Title
82260
    1SAPS     N    1   5.506   0.341  11.067 -0.3482  0.3181 -0.0032
    1SAPS   HN1    2   5.554   0.269  11.009  0.8371 -0.6775  2.1198
    1SAPS   HN2    3   5.561   0.337  11.155 -1.0163 -1.2141  0.3643
    1SAPS   HN3    4   5.415   0.297  11.089  1.0055 -0.9355  3.8989
    1SAPS   C12    5   5.484   0.476  11.006  0.2993 -0.0535  0.3803
    1SAPS  H12A    6   5.432   0.527  11.086 -1.1412  0.6365 -0.9533
    1SAPS   C13    7   5.607   0.554  10.979  0.3502 -0.3317 -0.0129
    1SAPS  O13A    8   5.718   0.489  10.986  0.2028 -0.1764  0.1699
    1SAPS  O13B    9   5.605   0.674  10.955  0.2014  0.2343 -0.1980
    1SAPS   C11   10   5.394   0.466  10.879 -0.2397 -0.1162  0.0588
    1SAPS  H11A   11   5.449   0.420  10.794 -0.1925  0.3119 -0.1456
    1SAPS  H11B   12   5.369   0.570  10.851 -0.8805  0.0592  1.2434
    1SAPS     P   13   5.136   0.438  10.906  0.1696  0.1134 -0.3282
    1SAPS   O13   14   5.053   0.316  10.888  0.8637 -0.2508 -0.0589
    1SAPS   O14   15   5.110   0.521  11.028  0.7737 -0.4284  0.5660
    1SAPS   O12   16   5.280   0.385  10.910 -0.1215 -0.6918  0.3315
    1SAPS   O11   17   5.130   0.528  10.774  0.4462 -0.2969 -0.4937
    1SAPS    C1   18   5.118   0.458  10.654 -0.6016 -0.0039  0.3037
    1SAPS    HA   19   5.209   0.396  10.643  0.0747  0.8985  0.6484
    1SAPS    HB   20   5.028   0.395  10.643 -0.1314 -0.4999 -0.9648
    1SAPS    C2   21   5.123   0.543  10.522  0.1420  0.6047 -0.3461
    1SAPS    HS   22   5.140   0.471  10.439 -0.9309 -0.2054  0.1123
    1SAPS   O21   23   5.224   0.641  10.536 -0.1318 -0.5560  0.1011
    1SAPS   C21   24   5.351   0.588  10.519  0.1481 -0.0041 -0.2000
    1SAPS   O22   25   5.381   0.481  10.484 -0.0483 -0.0598 -0.0160
    1SAPS   C22   26   5.444   0.710  10.525 -0.3266 -0.6015  0.8406
    1SAPS   H2R   27   5.399   0.802  10.482  2.1316  0.4727  0.4159
    1SAPS   H2S   28   5.464   0.726  10.633  0.1372 -3.2193  1.2289
    1SAPS    C3   29   4.989   0.628  10.508  0.0932  0.4408  0.4673
    1SAPS    HX   30   4.993   0.714  10.578 -0.2011  0.3032  0.6533
    1SAPS    HY   31   4.905   0.563  10.539  1.0366 -0.4138  1.3247
    1SAPS   O31   32   4.974   0.663  10.369  0.2745 -0.1549  0.0560
    1SAPS   C31   33   4.907   0.775  10.342  0.2413  0.5564 -0.2292
    1SAPS   O32   34   4.868   0.856  10.422 -0.3900 -0.7397 -0.1696
    1SAPS   C32   35   4.884   0.784  10.193 -0.1590 -0.2200 -0.3775
    1SAPS   H2X   36   4.868   0.681  10.157 -1.0094  0.1149 -1.0155
    1SAPS   H2Y   37   4.958   0.837  10.130 -0.3716 -0.1807 -0.5994
    1SAPS   C23   38   5.577   0.679  10.449  0.2834 -0.7203 -0.0676
    1SAPS   H3R   39   5.618   0.578  10.470 -1.1637 -1.6654 -1.5376
    1SAPS   H3S   40   5.656   0.748  10.486  0.7555 -0.5736 -1.3018
    1SAPS   C24   41   5.561   0.696  10.298 -0.0639  0.4250 -0.1186
    1SAPS   H4R   42   5.476   0.630  10.271  1.9963 -3.1778  1.3999
    1SAPS   H4S   43   5.655   0.656  10.253 -0.3438 -1.0571  0.5568
    1SAPS   C25   44   5.548   0.841  10.254 -0.7423  0.4197 -0.3047
    1SAPS   H5R   45   5.617   0.906  10.310 -1.4707  1.0494 -0.1052
    1SAPS   C26   46   5.466   0.898  10.160  0.7755 -0.6355 -0.1803
    1SAPS   H6R   47   5.470   1.006  10.139 -1.7260 -0.6448 -1.0450
    1SAPS   C27   48   5.366   0.836  10.067  0.4872 -0.8547 -0.2223
    1SAPS   H7R   49   5.289   0.779  10.123 -0.1450  0.3498  0.1737
    1SAPS   H7S   50   5.420   0.768   9.998 -1.5407  0.1756 -3.0334
    1SAPS   C28   51   5.296   0.942   9.988  0.0830  0.2385 -0.6030
    1SAPS   H8R   52   5.343   1.041   9.985  0.1084  0.2080 -1.4135
    1SAPS   C29   53   5.191   0.910   9.912  0.5367 -0.3446  0.1678
    1SAPS   H9R   54   5.148   0.993   9.854 -2.4156 -2.4688 -0.9171
    1SAPS  C210   55   5.124   0.780   9.893  0.1171 -0.7362  0.0774
    1SAPS  H10R   56   5.118   0.711   9.980  0.0139 -0.7401  0.0681
    1SAPS  H10S   57   5.186   0.725   9.819  0.6149 -1.6887  1.1711
    1SAPS  C211   58   4.987   0.777   9.835  0.6517 -0.8733 -0.3232
    1SAPS  H11R   59   4.910   0.806   9.908 -1.0149  2.4498 -3.0771
    1SAPS  C212   60   4.949   0.768   9.701 -0.7417 -0.0004 -0.7582
    1SAPS  H12R   61   4.844   0.763   9.670 -1.4678  1.3073  1.3431
    1SAPS  C213   62   5.044   0.749   9.584  0.1537  0.2905 -0.8253
    1SAPS  H13R   63   5.019   0.669   9.511  0.8937  0.2773 -1.0683
    1SAPS  H13S   64   5.132   0.694   9.624 -0.2722 -2.5217 -3.3574
    1SAPS  C214   65   5.094   0.875   9.527  0.5622 -0.2961  0.3355
    1SAPS  H14R   66   5.135   0.946   9.601  1.0806 -1.8405  1.5774
    1SAPS  C215   67   5.094   0.906   9.397 -0.4963 -0.0418 -0.6270
    1SAPS  H15R   68   5.139   1.004   9.379  3.1261 -1.0675  1.7332
    1SAPS  C216   69   5.055   0.821   9.272  0.1920 -0.7357 -0.0600
    1SAPS  H16R   70   5.015   0.890   9.195 -0.9363 -2.7562 -1.3688
    1SAPS  H16S   71   4.978   0.744   9.292 -0.8803  0.0750 -0.9450
    1SAPS  C217   72   5.169   0.749   9.200  0.0124  0.4190  0.3370
    1SAPS  H17R   73   5.217   0.684   9.276  1.6443  2.1227  0.8015
    1SAPS  H17S   74   5.239   0.828   9.167 -1.1754  1.1736 -0.4478
    1SAPS  C218   75   5.123   0.663   9.086  0.0506  0.4499  0.0725
    1SAPS  H18R   76   5.054   0.713   9.014 -1.9937 -1.9751  0.1972
    1SAPS  H18S   77   5.058   0.580   9.121 -0.9689  0.7822 -0.9347
    1SAPS  C219   78   5.234   0.594   9.004 -0.4988 -0.0293  0.1657
    1SAPS  H19R   79   5.314   0.550   9.067  0.8917  1.0724 -0.7928
    1SAPS  H19S   80   5.277   0.673   8.939  0.0518 -1.4613 -1.2704
    1SAPS  C220   81   5.174   0.481   8.914  0.0734  0.2592  0.1763
    1SAPS  H20R   82   5.149   0.386   8.966 -0.1134 -0.1236 -0.6121
    1SAPS  H20S   83   5.247   0.456   8.834  0.3373  1.2291  0.1058
    1SAPS  H20T   84   5.084   0.513   8.858 -0.5068  0.7502  1.3495
    1SAPS   C33   85   4.755   0.865  10.172 -0.3760 -0.3324  0.4108
    1SAPS   H3X   86   4.676   0.826  10.239  0.0064  0.2222  1.1972
    1SAPS   H3Y   87   4.718   0.853  10.068 -0.0705  1.7867  0.0062
    1SAPS   C34   88   4.765   1.012  10.203  0.1170  0.1240  0.6183
    1SAPS   H4X   89   4.828   1.065  10.128 -1.4621 -0.0613 -0.8968
    1SAPS   H4Y   90   4.807   1.042  10.301  1.7314 -0.5830  0.1784
    1SAPS   C35   91   4.627   1.081  10.202  0.0225  0.3147  0.1933
    1SAPS   H5X   92   4.579   1.050  10.297  1.0953  1.3561  1.1038
    1SAPS   H5Y   93   4.576   1.030  10.117  0.9863 -3.2172  1.5602
    1SAPS   C36   94   4.631   1.235  10.192  1.0494  0.4529 -0.3738
    1SAPS   H6X   95   4.696   1.272  10.110  0.2352 -0.6711 -1.5675
    1SAPS   H6Y   96   4.685   1.272  10.282  0.0547  0.1844  0.3569
    1SAPS   C37   97   4.496   1.303  10.169  0.6517  0.7499  0.1503
    1SAPS   H7X   98   4.510   1.411  10.194  0.4905  0.5115  1.3005
    1SAPS   H7Y   99   4.409   1.267  10.228 -0.9174  2.4777 -0.9772
    1SAPS   C38  100   4.456   1.309  10.020 -0.6260  0.0472  0.7118
    1SAPS   H8X  101   4.465   1.209   9.972  0.1282 -0.0073  0.9496
    1SAPS   H8Y  102   4.524   1.373   9.960  1.0524 -2.9043 -0.7482
    1SAPS   C39  103   4.314   1.360  10.001 -0.6714  0.1881  0.6270
    1SAPS   H9X  104   4.300   1.465  10.034 -0.6976 -0.3158  2.3034
    1SAPS   H9Y  105   4.247   1.301  10.067 -1.6501 -1.5571 -1.8027
    1SAPS  C310  106   4.266   1.360   9.851 -0.0793 -0.9132  0.0580
    1SAPS  H10X  107   4.166   1.407   9.840  1.5088  2.8635  0.2294
    1SAPS  H10Y  108   4.250   1.253   9.830 -2.3416 -1.0847  2.1911
    1SAPS  C311  109   4.366   1.425   9.752 -0.2612 -0.4607  0.0506
    1SAPS  H11X  110   4.465   1.375   9.763  0.5178  1.1557  0.7268
    1SAPS  H11Y  111   4.378   1.534   9.772 -3.6898 -0.0177  0.1966
    1SAPS  C312  112   4.330   1.415   9.599  0.7514 -0.2267 -0.3500
    1SAPS  H12X  113   4.228   1.459   9.589  1.4507  1.6848  0.3432
    1SAPS  H12Y  114   4.323   1.308   9.569  0.5321 -1.0646  2.4135
    1SAPS  C313  115   4.420   1.488   9.504 -0.2103  0.0965 -0.1469
    1SAPS  H13X  116   4.509   1.420   9.500 -1.3781 -1.4726 -0.3152
    1SAPS  H13Y  117   4.445   1.589   9.543 -0.8882 -0.0195  0.6047
    1SAPS  C314  118   4.363   1.489   9.364 -0.6719 -0.3123  0.5734
    1SAPS  H14X  119   4.259   1.528   9.361 -0.0855  1.3277 -0.1133
    1SAPS  H14Y  120   4.364   1.379   9.351 -0.4670 -0.3371  0.7873
    1SAPS  C315  121   4.452   1.571   9.270  0.1401  0.0610 -0.1848
    1SAPS  H15X  122   4.557   1.547   9.294 -0.1219 -0.2310  0.7254
    1SAPS  H15Y  123   4.437   1.677   9.301  0.9962  0.1905 -0.1970
    1SAPS  C316  124   4.418   1.554   9.120  0.4246  0.8123 -0.2752
    1SAPS  H16X  125   4.310   1.573   9.100 -0.3208 -0.7805  1.8493
    1SAPS  H16Y  126   4.445   1.451   9.091 -2.4470  0.0943 -0.6966
    1SAPS  C317  127   4.505   1.650   9.044  0.0405  0.0496 -0.1777
    1SAPS  H17X  128   4.612   1.629   9.066  0.9433  2.7382 -1.5895
    1SAPS  H17Y  129   4.489   1.750   9.091  0.0747 -0.3852  0.7809
    1SAPS  C318  130   4.493   1.643   8.893  0.8972 -0.0010 -0.4773
    1SAPS  H18X  131   4.391   1.682   8.872  1.5163  1.5254 -0.7418
    1SAPS  H18Y  132   4.506   1.538   8.861  0.3718  0.3860 -2.0550
    1SAPS  H18Z  133   4.573   1.702   8.843  1.0121  0.4755  0.2534
    2SAPS     N  134   1.814   1.160  10.472  0.1204 -0.4119  0.8867
    2SAPS   HN1  135   1.834   1.221  10.391 -1.8323  1.1162  1.4745
    2SAPS   HN2  136   1.902   1.109  10.493  0.8613  0.6721  0.4538
    2SAPS   HN3  137   1.741   1.092  10.442  2.2392 -1.3396 -2.6766
    2SAPS   C12  138   1.783   1.240  10.590 -0.0596  0.0000 -0.0948
    2SAPS  H12A  139   1.710   1.312  10.558 -1.9715 -2.3034 -1.2875
    2SAPS   C13  140   1.715   1.166  10.712  0.3957  0.0971  0.5888
    2SAPS  O13A  141   1.672   1.050  10.693  0.1173 -0.1509  0.2891
    2SAPS  O13B  142   1.678   1.234  10.811  0.0799 -0.3973  0.4738
    2SAPS   C11  143   1.923   1.307  10.623 -0.0490 -0.0149  0.9995
    2SAPS  H11A  144   1.985   1.224  10.662 -2.4679 -3.6675 -2.2778
    2SAPS  H11B  145   1.904   1.376  10.708 -1.5271 -0.1630  0.8030
    2SAPS     P  146   2.115   1.457  10.536 -0.5686  0.1136  0.0483
    2SAPS   O13  147   2.081   1.591  10.586  0.0346  0.1199  0.0561
    2SAPS   O14  148   2.191   1.372  10.635 -0.1128  0.4787 -0.3227
    2SAPS   O12  149   1.977   1.377  10.514 -0.2479  0.2918  0.3742
    2SAPS   O11  150   2.198   1.456  10.397  0.5543  0.1029 -0.3413
    2SAPS    C1  151   2.202   1.344  10.321  0.4670  0.3361  0.1624
    2SAPS    HA  152   2.228   1.259  10.389 -1.5418 -0.9766 -0.6061
    2SAPS    HB  153   2.108   1.328  10.263  1.7522 -0.0591 -1.8975
    2SAPS    C2  154   2.312   1.354  10.210  0.3096 -0.1875 -0.1551
    2SAPS    HS  155   2.266   1.392  10.116 -2.4564 -0.9986  0.7800
    2SAPS   O21  156   2.362   1.222  10.182 -0.9599 -0.0651 -0.3302
    2SAPS   C21  157   2.287   1.136  10.127  0.5347  0.1590 -0.0255
    2SAPS   O22  158   2.172   1.144  10.095  0.1140 -0.1434  0.5545
    2SAPS   C22  159   2.373   1.009  10.119  0.2655  0.0281 -0.1778
    2SAPS   H2R  160   2.479   1.028  10.145  0.1643 -1.0975  1.2415
    2SAPS   H2S  161   2.346   0.936  10.199  2.2411  0.6328  1.1387
    2SAPS    C3  162   2.429   1.450  10.253 -0.0271 -0.0518  0.2532
    2SAPS    HX  163   2.454   1.444  10.361  0.0893  2.7421  0.4552
    2SAPS    HY  164   2.393   1.555  10.245  1.3006  0.3933 -0.0996
    2SAPS   O31  165   2.552   1.446  10.172 -0.7037 -0.0848  0.1555
    2SAPS   C31  166   2.632   1.345  10.192 -0.8835 -0.3552 -0.3184
    2SAPS   O32  167   2.620   1.265  10.284  0.1677  0.3151 -0.0674
    2SAPS   C32  168   2.753   1.351  10.093 -0.1051  0.8886  0.3907
    2SAPS   H2X  169   2.808   1.259  10.124  0.5297  1.5242  1.2294
    2SAPS   H2Y  170   2.811   1.445  10.107  0.4873  1.1107 -2.9199
    2SAPS   C23  171   2.364   0.950   9.977 -0.9794 -1.0487 -0.0184
    2SAPS   H3R  172   2.256   0.929   9.958 -1.6460  3.6702 -3.2626
    2SAPS   H3S  173   2.421   0.855   9.981  2.3475  0.7962 -0.1975
    2SAPS   C24  174   2.428   1.025   9.864  0.8525  0.0778  0.4949
    2SAPS   H4R  175   2.489   0.957   9.800 -1.6183 -0.2939 -1.6514
    2SAPS   H4S  176   2.504   1.099   9.897 -0.7137  2.9240 -1.7945
    2SAPS   C25  177   2.325   1.098   9.777  0.0796  0.4324 -0.7085
    2SAPS   H5R  178   2.231   1.136   9.821 -0.0413 -0.2534 -0.3557
    2SAPS   C26  179   2.344   1.139   9.656 -0.0830 -0.6209 -0.1330
    2SAPS   H6R  180   2.271   1.200   9.600 -0.3746 -0.6281  0.2286
    2SAPS   C27  181   2.471   1.116   9.580 -0.5406  0.2351 -0.1201
    2SAPS   H7R  182   2.467   1.024   9.517 -1.8812  0.9746 -1.1720
    2SAPS   H7S  183   2.550   1.100   9.657  0.9296  1.0399 -1.3902
    2SAPS   C28  184   2.510   1.238   9.493 -0.7834  0.4865 -1.0881
    2SAPS   H8R  185   2.454   1.329   9.516 -0.2537  0.4999  0.2866
    2SAPS   C29  186   2.607   1.248   9.405 -0.2920  0.2218 -0.3281
    2SAPS   H9R  187   2.620   1.341   9.348  0.4823  0.5106  0.3001
    2SAPS  C210  188   2.703   1.131   9.374  0.1298 -0.1755  0.5881
    2SAPS  H10R  189   2.662   1.032   9.404  1.9111 -0.5008  2.1490
    2SAPS  H10S  190   2.795   1.139   9.437  1.1235 -0.5338 -0.7824
    2SAPS  C211  191   2.759   1.141   9.231 -0.4181  1.1411  0.3823
    2SAPS  H11R  192   2.863   1.176   9.229  1.2630 -3.1106  1.4604
    2SAPS  C212  193   2.691   1.132   9.113  1.0548 -0.1049  0.2840
    2SAPS  H12R  194   2.739   1.137   9.014  1.4119 -3.9756  0.0839
    2SAPS  C213  195   2.541   1.095   9.117  0.1456  0.4082  0.3811
    2SAPS  H13R  196   2.491   1.145   9.203  1.1162  1.6352  0.2616
    2SAPS  H13S  197   2.533   0.985   9.128  2.6678 -0.2151 -2.7586
    2SAPS  C214  198   2.465   1.146   8.998  0.6280  0.3348  0.1184
    2SAPS  H14R  199   2.446   1.254   8.986 -0.5650  0.0660 -0.5022
    2SAPS  C215  200   2.416   1.075   8.900 -0.5265  0.1249 -0.0522
    2SAPS  H15R  201   2.369   1.132   8.819 -1.5148  1.6524  1.5249
    2SAPS  C216  202   2.424   0.926   8.876 -0.5469  0.7451 -0.3346
    2SAPS  H16R  203   2.465   0.879   8.968 -2.1838  2.1672  1.1884
    2SAPS  H16S  204   2.507   0.913   8.802 -0.3699  0.5262 -0.0986
    2SAPS  C217  205   2.294   0.856   8.831 -0.2660 -0.0484  0.1964
    2SAPS  H17R  206   2.267   0.912   8.739 -0.9835  0.2020  0.5481
    2SAPS  H17S  207   2.210   0.877   8.901 -0.4398  3.2690 -0.8351
    2SAPS  C218  208   2.307   0.709   8.788 -0.2902  0.0077 -0.3449
    2SAPS  H18R  209   2.316   0.644   8.878 -1.6509  2.3609  1.5925
    2SAPS  H18S  210   2.406   0.702   8.737  0.8393  0.1182  1.7160
    2SAPS  C219  211   2.189   0.658   8.705  0.3909  0.7084 -0.0929
    2SAPS  H19R  212   2.146   0.739   8.642 -0.6338  0.4128  0.1971
    2SAPS  H19S  213   2.111   0.629   8.779  0.0131  0.6879 -0.4939
    2SAPS  C220  214   2.232   0.546   8.608 -0.0494 -0.0747 -0.2591
    2SAPS  H20R  215   2.281   0.469   8.670  0.4434  0.9950  0.7243
    2SAPS  H20S  216   2.309   0.579   8.535  0.6017 -0.4867  0.2362
    2SAPS  H20T  217   2.149   0.490   8.559  1.6361 -0.7466 -2.4864
    2SAPS   C33  218   2.724   1.348   9.940  0.0960 -0.3377 -0.9303
    2SAPS   H3X  219   2.655   1.435   9.928 -0.5112 -0.7575 -0.5420
    2SAPS   H3Y  220   2.691   1.250   9.900  2.0207 -0.2816 -2.7870
    2SAPS   C34  221   2.854   1.378   9.862  0.2144 -0.0658 -0.5120
    2SAPS   H4X  222   2.928   1.296   9.876  1.5847  1.2040 -0.0450
    2SAPS   H4Y  223   2.907   1.466   9.905  0.2053 -0.6719  0.8104
    2SAPS   C35  224   2.837   1.380   9.710  0.1041  0.3862 -0.5601
    2SAPS   H5X  225   2.751   1.445   9.683 -0.2722 -1.6591 -5.3081
    2SAPS   H5Y  226   2.794   1.282   9.680 -1.0556  0.8249 -0.3743
    2SAPS   C36  227   2.971   1.419   9.633 -0.0071  0.2793 -0.4393
    2SAPS   H6X  228   2.990   1.524   9.664 -0.8001  0.3205 -0.0604
    2SAPS   H6Y  229   2.943   1.414   9.526  1.8487 -2.8530 -0.9018
    2SAPS   C37  230   3.101   1.336   9.659  0.5543  0.3248  0.9334
    2SAPS   H7X  231   3.114   1.298   9.763 -1.7669  1.1734  1.6017
    2SAPS   H7Y  232   3.190   1.400   9.640  1.0686 -1.2727 -2.8298
    2SAPS   C38  233   3.098   1.211   9.568 -0.2906  0.9914  0.4891
    2SAPS   H8X  234   2.997   1.164   9.575 -0.4240  1.3804  1.3776
    2SAPS   H8Y  235   3.173   1.140   9.607  0.2968  1.5977  0.4726
    2SAPS   C39  236   3.125   1.247   9.423  1.0516  0.8664  0.5343
    2SAPS   H9X  237   3.218   1.306   9.410  0.1390  2.4760  0.9993
    2SAPS   H9Y  238   3.046   1.314   9.383  0.0957  1.1145  2.7048
    2SAPS  C310  239   3.130   1.123   9.342  0.2235  0.0319  0.3568
    2SAPS  H10X  240   3.038   1.060   9.333  1.9873 -2.8145  0.8221
    2SAPS  H10Y  241   3.202   1.056   9.394  2.3920  1.1911 -1.0110
    2SAPS  C311  242   3.190   1.155   9.207 -0.7757  0.0690 -0.6787
    2SAPS  H11X  243   3.289   1.204   9.221 -1.0084  0.2116  0.5716
    2SAPS  H11Y  244   3.119   1.217   9.148 -0.4501  1.1047 -0.0226
    2SAPS  C312  245   3.210   1.031   9.110  0.1558 -0.5817 -0.5950
    2SAPS  H12X  246   3.253   0.942   9.160 -1.0931 -1.0271 -0.2807
    2SAPS  H12Y  247   3.279   1.053   9.026 -0.6177  0.0672 -1.0785
    2SAPS  C313  248   3.088   0.965   9.053 -0.6537 -0.3650  0.3673
    2SAPS  H13X  249   3.013   1.037   9.012  0.0587 -0.0860 -0.4687
    2SAPS  H13Y  250   3.022   0.920   9.130 -2.4154  0.3562 -0.6487
    2SAPS  C314  251   3.102   0.861   8.943 -0.2195 -0.5606  0.2957
    2SAPS  H14X  252   3.160   0.783   8.998  1.2580 -0.0165 -0.4450
    2SAPS  H14Y  253   3.168   0.880   8.856 -1.2194  0.4028 -0.2746
    2SAPS  C315  254   2.969   0.810   8.886  0.0080  0.2152  0.7260
    2SAPS  H15X  255   2.908   0.888   8.836  0.8485  0.3718 -0.0999
    2SAPS  H15Y  256   2.910   0.778   8.974 -0.5118 -0.4730  0.1396
    2SAPS  C316  257   2.988   0.691   8.788 -0.0453  0.1713  0.1443
    2SAPS  H16X  258   3.055   0.616   8.835 -1.6171 -0.3954  1.5560
    2SAPS  H16Y  259   3.032   0.730   8.693 -1.7248  0.0972 -0.6951
    2SAPS  C317  260   2.861   0.621   8.743 -1.4313  0.8580  0.4240
    2SAPS  H17X  261   2.802   0.565   8.818 -0.7974 -1.4793 -0.7182
    2SAPS  H17Y  262   2.899   0.544   8.671  0.7520  1.7672  0.5374
    2SAPS  C318  263   2.762   0.711   8.668 -0.0421  0.3540  0.4116
    2SAPS  H18X  264   2.730   0.802   8.724 -0.7720  0.0823  0.4452
    2SAPS  H18Y  265   2.678   0.643   8.644  0.5904 -0.2956 -0.0162
    2SAPS  H18Z  266   2.799   0.741   8.568 -0.7074 -0.7588 -0.1847
    3SAPS     N  267   4.538   2.793  10.634  0.2836 -0.2869  0.1530
    3SAPS   HN1  268   4.479   2.819  10.553 -0.8331 -1.9564  0.3936
    3SAPS   HN2  269   4.611   2.720  10.620  1.9918  1.3197  0.1504
    3SAPS   HN3  270   4.479   2.748  10.707  0.4418 -1.3937 -0.3803
    3SAPS   C12  271   4.609   2.914  10.694 -0.3061 -0.1430  0.4064
    3SAPS  H12A  272   4.537   2.984  10.735  2.1721  1.2362  2.7720
    3SAPS   C13  273   4.690   2.857  10.812 -0.4308 -0.2003  0.2226
    3SAPS  O13A  274   4.672   2.741  10.854 -0.2880  0.1112 -0.8055
    3SAPS  O13B  275   4.755   2.941  10.880  0.3756  0.2976  0.1796
    3SAPS   C11  276   4.702   2.982  10.588  0.0430  0.0692  0.3174
    3SAPS  H11A  277   4.638   2.986  10.497 -3.3123  0.7138  2.5226
    3SAPS  H11B  278   4.786   2.910  10.573 -0.4477 -0.6560  0.9834
    3SAPS     P  279   4.807   3.218  10.540  0.0260  0.0583 -0.1257
    3SAPS   O13  280   4.724   3.343  10.530 -0.7479  0.2707  0.5430
    3SAPS   O14  281   4.945   3.232  10.596 -0.4331  0.1727  0.1545
    3SAPS   O12  282   4.738   3.110  10.632 -0.6700  0.0911  0.0975
    3SAPS   O11  283   4.817   3.150  10.395 -0.1184 -0.0682 -0.2766
    3SAPS    C1  284   4.707   3.177  10.304 -0.5528  0.1414 -0.5465
    3SAPS    HA  285   4.613   3.155  10.359 -1.0726 -0.6899 -1.7321
    3SAPS    HB  286   4.708   3.279  10.261  2.7780  0.1762 -0.6628
    3SAPS    C2  287   4.709   3.073  10.190  0.1910  0.7101 -0.0220
    3SAPS    HS  288   4.811   3.083  10.147 -0.3103  0.6346 -1.2585
    3SAPS   O21  289   4.598   3.110  10.101 -0.1334  0.1317  0.6844
    3SAPS   C21  290   4.632   3.100   9.971 -0.4793  0.5937 -0.3286
    3SAPS   O22  291   4.747   3.077   9.927  0.1367  0.6380 -0.5227
    3SAPS   C22  292   4.507   3.106   9.883 -0.5440  0.4461 -0.2689
    3SAPS   H2R  293   4.449   3.015   9.908 -1.2104  1.4170  2.0375
    3SAPS   H2S  294   4.436   3.180   9.925 -0.1443  1.1504 -0.8081
    3SAPS    C3  295   4.685   2.923  10.234  0.4306  0.3748 -0.1512
    3SAPS    HX  296   4.580   2.922  10.270  0.1771 -0.4918 -0.8772
    3SAPS    HY  297   4.752   2.891  10.316 -1.1089 -2.0538  0.2572
    3SAPS   O31  298   4.689   2.832  10.121 -0.6778  0.2333  0.2285
    3SAPS   C31  299   4.809   2.809  10.071 -0.8242  0.0020 -0.4777
    3SAPS   O32  300   4.916   2.844  10.119 -0.2554  0.7479 -0.9708
    3SAPS   C32  301   4.804   2.714   9.953  0.0786 -0.4132 -0.1091
    3SAPS   H2X  302   4.706   2.721   9.902  1.1813  2.2928 -2.0826
    3SAPS   H2Y  303   4.817   2.609   9.985  2.3223  0.5675  2.6041
    3SAPS   C23  304   4.541   3.117   9.741  0.7686  0.3153  0.3593
    3SAPS   H3R  305   4.453   3.104   9.675  0.9096  1.0119  0.0253
    3SAPS   H3S  306   4.602   3.030   9.708  0.5080  0.3759 -0.3003
    3SAPS   C24  307   4.610   3.246   9.688 -0.2141  0.2237 -0.1332
    3SAPS   H4R  308   4.630   3.233   9.579 -1.4655  1.4487 -0.5282
    3SAPS   H4S  309   4.711   3.238   9.734 -0.1806 -1.8188 -0.4678
    3SAPS   C25  310   4.535   3.368   9.718 -0.0232  0.2127 -0.4425
    3SAPS   H5R  311   4.496   3.364   9.821 -1.6758 -0.8860 -1.0526
    3SAPS   C26  312   4.482   3.462   9.638  0.2528 -0.0325  0.4327
    3SAPS   H6R  313   4.426   3.546   9.680  0.1016 -0.1381  0.4439
    3SAPS   C27  314   4.503   3.468   9.489  0.3136 -0.0051  0.0057
    3SAPS   H7R  315   4.606   3.432   9.468 -0.1110 -0.1252 -2.1276
    3SAPS   H7S  316   4.522   3.575   9.464  1.8138 -0.0643  0.7891
    3SAPS   C28  317   4.407   3.395   9.398  0.0105  0.2197  0.3510
    3SAPS   H8R  318   4.301   3.402   9.428  0.1287  2.2842  0.4477
    3SAPS   C29  319   4.441   3.336   9.283 -0.3207 -0.2178  0.9364
    3SAPS   H9R  320   4.370   3.291   9.212  0.5573  2.2991 -1.7453
    3SAPS  C210  321   4.576   3.331   9.226  0.2233 -0.1812  0.6395
    3SAPS  H10R  322   4.656   3.393   9.271 -0.8853  2.1772 -0.4508
    3SAPS  H10S  323   4.575   3.373   9.123 -0.7573 -0.3051  0.5832
    3SAPS  C211  324   4.636   3.191   9.228  0.1382  0.6507 -1.0959
    3SAPS  H11R  325   4.671   3.155   9.326  2.3174 -3.0591 -3.0080
    3SAPS  C212  326   4.668   3.105   9.129 -0.2430 -0.1086 -0.5191
    3SAPS  H12R  327   4.700   3.006   9.162 -4.6755 -0.9974  1.9152
    3SAPS  C213  328   4.660   3.124   8.980  0.4103  0.0446  0.3214
    3SAPS  H13R  329   4.743   3.070   8.930 -0.3549  0.1726 -1.1490
    3SAPS  H13S  330   4.665   3.231   8.952  1.3869 -0.2883 -0.8908
    3SAPS  C214  331   4.541   3.043   8.921 -0.1814 -0.4346 -0.5495
    3SAPS  H14R  332   4.463   3.016   8.994 -0.9229  1.9226 -0.3725
    3SAPS  C215  333   4.519   3.001   8.793  0.4610  0.5153 -0.7306
    3SAPS  H15R  334   4.425   2.953   8.761  0.9942 -1.0852  0.0044
    3SAPS  C216  335   4.616   3.031   8.675  0.0915  0.0306 -0.4503
    3SAPS  H16R  336   4.699   3.094   8.712  0.2925  0.1011 -1.0126
    3SAPS  H16S  337   4.568   3.095   8.599 -0.0900  2.3816  1.5464
    3SAPS  C217  338   4.674   2.903   8.622 -0.1264  0.5563  0.3493
    3SAPS  H17R  339   4.723   2.847   8.705 -1.3874 -0.6001  0.3439
    3SAPS  H17S  340   4.753   2.935   8.551  1.4982  2.8141  2.9725
    3SAPS  C218  341   4.575   2.816   8.549  0.1945 -0.3671 -0.1406
    3SAPS  H18R  342   4.506   2.772   8.625  0.1361  0.1064  0.0836
    3SAPS  H18S  343   4.634   2.735   8.501  1.4920 -0.1825  1.0761
    3SAPS  C219  344   4.484   2.889   8.449  0.9070 -0.0269  0.3965
    3SAPS  H19R  345   4.542   2.958   8.384  0.9113  0.9953  1.4447
    3SAPS  H19S  346   4.409   2.947   8.507 -0.4154 -0.1268 -1.1500
    3SAPS  C220  347   4.404   2.792   8.369  0.6918  0.0671 -0.1460
    3SAPS  H20R  348   4.357   2.710   8.428  0.1585  0.3744 -0.1374
    3SAPS  H20S  349   4.463   2.750   8.285  0.1756 -2.3876  0.6316
    3SAPS  H20T  350   4.318   2.847   8.324  0.8124  0.6172  0.2831
    3SAPS   C33  351   4.904   2.762   9.842 -0.1932  0.0270 -0.0835
    3SAPS   H3X  352   5.003   2.766   9.890 -0.8062  0.6032  1.1639
    3SAPS   H3Y  353   4.884   2.866   9.809 -2.6468  0.1006  1.3586
    3SAPS   C34  354   4.888   2.671   9.719 -0.2941 -0.5120  0.8185
    3SAPS   H4X  355   4.790   2.669   9.667 -0.0051  0.0428  0.2386
    3SAPS   H4Y  356   4.915   2.567   9.747  3.4353  0.4167  1.1475
    3SAPS   C35  357   4.993   2.710   9.614  0.1059 -0.6257  0.5053
    3SAPS   H5X  358   5.022   2.626   9.547 -0.5803 -0.1064 -0.4631
    3SAPS   H5Y  359   5.082   2.748   9.669  0.7630  3.5473 -2.9842
    3SAPS   C36  360   4.956   2.835   9.539  0.5768 -0.2632  0.2286
    3SAPS   H6X  361   4.954   2.932   9.593  3.6836  1.6191 -2.6573
    3SAPS   H6Y  362   4.856   2.828   9.492  0.3261 -2.0096  0.9608
    3SAPS   C37  363   5.051   2.872   9.426 -0.7695 -0.0720 -0.3735
    3SAPS   H7X  364   5.038   2.798   9.345 -0.0738 -0.4091 -0.1833
    3SAPS   H7Y  365   5.155   2.866   9.464 -0.6640 -0.2112 -0.6783
    3SAPS   C38  366   5.044   3.014   9.374  0.4333  0.3258  0.1595
    3SAPS   H8X  367   5.043   3.082   9.462  0.7596  2.0103 -1.0677
    3SAPS   H8Y  368   4.945   3.030   9.326  0.1831 -1.8310 -0.1267
    3SAPS   C39  369   5.157   3.055   9.275 -0.0223  0.6877  0.0200
    3SAPS   H9X  370   5.251   3.027   9.327  0.7236  0.9088 -1.1773
    3SAPS   H9Y  371   5.155   3.164   9.252 -0.5531  0.3740 -1.5385
    3SAPS  C310  372   5.145   2.998   9.135  0.4555 -0.0083  0.1523
    3SAPS  H10X  373   5.075   3.061   9.076  0.2066  0.0870  0.5448
    3SAPS  H10Y  374   5.109   2.893   9.140 -0.3684  0.2431 -0.3349
    3SAPS  C311  375   5.267   3.010   9.036  0.1718 -0.2688 -0.0746
    3SAPS  H11X  376   5.363   2.969   9.073 -1.1038 -1.3613  2.3010
    3SAPS  H11Y  377   5.291   3.118   9.024  1.6580 -0.5710 -0.0425
    3SAPS  C312  378   5.220   2.932   8.909 -0.7560  0.2029  0.0555
    3SAPS  H12X  379   5.111   2.925   8.891 -0.8931 -1.9078  1.2694
    3SAPS  H12Y  380   5.251   2.828   8.935  0.2985  0.1820 -1.1679
    3SAPS  C313  381   5.310   2.964   8.791 -0.6735 -0.0685 -0.5247
    3SAPS  H13X  382   5.280   2.889   8.714 -0.7234 -1.5774  0.9235
    3SAPS  H13Y  383   5.416   2.948   8.817 -0.8371 -0.3104 -0.0010
    3SAPS  C314  384   5.283   3.104   8.731 -0.3002 -0.0321 -0.8129
    3SAPS  H14X  385   5.307   3.180   8.808 -0.4428  0.4358 -1.2290
    3SAPS  H14Y  386   5.176   3.117   8.705 -0.2019  1.7485 -0.4572
    3SAPS  C315  387   5.368   3.130   8.609  0.0001  0.8969 -0.1047
    3SAPS  H15X  388   5.359   3.053   8.529  1.8190 -0.7268  1.1715
    3SAPS  H15Y  389   5.476   3.132   8.636 -0.2503  0.4637  0.9819
    3SAPS  C316  390   5.323   3.266   8.542 -0.7284 -1.1430  0.6201
    3SAPS  H16X  391   5.350   3.344   8.617  1.3596 -1.2659  0.0461
    3SAPS  H16Y  392   5.213   3.271   8.525 -1.0967 -0.7766  2.7732
    3SAPS  C317  393   5.408   3.283   8.416  0.6107 -0.8970  0.2589
    3SAPS  H17X  394   5.400   3.201   8.342  0.6286 -0.5476 -0.1345
    3SAPS  H17Y  395   5.516   3.284   8.445  0.7005 -1.1882 -0.0595
    3SAPS  C318  396   5.384   3.416   8.339  0.3078  0.4328 -0.0651
    3SAPS  H18X  397   5.417   3.498   8.407  0.1575 -0.1396  0.6992
    3SAPS  H18Y  398   5.275   3.429   8.324 -0.2818 -1.1196  2.3565
    3SAPS  H18Z  399   5.429   3.422   8.237  0.8582 -3.5299 -0.2062
    4SAPS     N  400   5.409   4.159  10.917  0.6005 -0.1407  0.6436
    4SAPS   HN1  401   5.337   4.098  10.874  0.6651 -0.3162  0.7838
    4SAPS   HN2  402   5.370   4.255  10.929  1.0497  0.2027 -0.4644
    4SAPS   HN3  403   5.490   4.176  10.853 -0.9786  1.8266 -0.9844
    4SAPS   C12  404   5.460   4.105  11.043  0.4226 -0.0471 -0.4619
    4SAPS  H12A  405   5.525   4.180  11.084  0.0983 -0.5140  0.9646
    4SAPS   C13  406   5.352   4.067  11.153  0.1021  0.8771  0.6398
    4SAPS  O13A  407   5.233   4.094  11.128  0.8343 -0.0214  0.3709
    4SAPS  O13B  408   5.398   4.045  11.276 -0.5212 -0.3860 -0.0726
    4SAPS   C11  409   5.547   3.971  11.008  0.5198 -0.6347  0.1424
    4SAPS  H11A  410   5.470   3.913  10.952 -4.9889  1.9570  4.0743
    4SAPS  H11B  411   5.575   3.922  11.103  1.7929 -0.0646  0.0871
    4SAPS     P  412   5.767   3.903  10.891  0.0542  0.1075 -0.1279
    4SAPS   O13  413   5.890   3.975  10.882 -0.5536 -0.0439  0.3674
    4SAPS   O14  414   5.772   3.796  10.992  0.1669  0.1005 -0.0928
    4SAPS   O12  415   5.656   4.008  10.925  0.6058 -0.1988 -0.9305
    4SAPS   O11  416   5.734   3.849  10.748  0.3348  0.2781 -0.5252
    4SAPS    C1  417   5.682   3.938  10.655  0.3528  0.5359  0.8360
    4SAPS    HA  418   5.619   4.024  10.686  0.5113  1.1723 -0.5443
    4SAPS    HB  419   5.770   3.975  10.599  1.6511 -1.0414  1.7158
    4SAPS    C2  420   5.595   3.863  10.557 -0.2913  0.2813 -0.3501
    4SAPS    HS  421   5.526   3.795  10.610  0.6412 -0.4373 -0.0336
    4SAPS   O21  422   5.680   3.781  10.469 -0.2595 -0.1720 -0.3796
    4SAPS   C21  423   5.624   3.688  10.393  0.0490  0.4273  0.0780
    4SAPS   O22  424   5.507   3.654  10.400 -0.0231 -0.7834 -0.1375
    4SAPS   C22  425   5.731   3.636  10.289  0.4126  0.6840 -0.0621
    4SAPS   H2R  426   5.828   3.687  10.305  0.7845 -0.4585  1.6313
    4SAPS   H2S  427   5.757   3.533  10.323  3.6450  1.8208  1.2476
    4SAPS    C3  428   5.510   3.967  10.475  0.0227 -0.2527 -0.2430
    4SAPS    HX  429   5.442   4.012  10.551  1.3512 -0.3518  1.0522
    4SAPS    HY  430   5.445   3.915  10.402 -1.0101  2.5211 -1.4341
    4SAPS   O31  431   5.599   4.074  10.419  0.0473  0.3579  0.0953
    4SAPS   C31  432   5.650   4.032  10.300 -0.8894  0.1442  0.5104
    4SAPS   O32  433   5.605   3.947  10.230  0.1090  0.1573  0.2184
    4SAPS   C32  434   5.767   4.124  10.265 -0.2874 -0.0652  0.1122
    4SAPS   H2X  435   5.800   4.184  10.353  0.5815 -1.5462  0.8507
    4SAPS   H2Y  436   5.726   4.192  10.188 -2.1867  0.7262  1.7361
    4SAPS   C23  437   5.684   3.634  10.143 -0.5089  0.7632  0.5450
    4SAPS   H3R  438   5.732   3.714  10.083 -2.3803  1.9433  0.5161
    4SAPS   H3S  439   5.575   3.656  10.142 -0.1696  2.8758  1.9541
    4SAPS   C24  440   5.721   3.501  10.073  0.2163 -0.1351 -0.0974
    4SAPS   H4R  441   5.673   3.504   9.973 -1.8789  1.2579  0.8758
    4SAPS   H4S  442   5.678   3.415  10.129 -0.0862  0.2719  0.3037
    4SAPS   C25  443   5.872   3.484  10.046 -0.0573  0.5775 -0.4079
    4SAPS   H5R  444   5.932   3.461  10.135  1.1996 -0.2219 -1.4234
    4SAPS   C26  445   5.934   3.481   9.925  0.6450 -0.1579 -0.4889
    4SAPS   H6R  446   6.043   3.472   9.924  0.6012 -0.7530 -0.4490
    4SAPS   C27  447   5.881   3.499   9.784 -0.8836 -0.0667  0.3320
    4SAPS   H7R  448   5.961   3.539   9.718 -2.1852 -0.0096 -1.3102
    4SAPS   H7S  449   5.800   3.575   9.783 -1.0951 -0.2809 -0.6666
    4SAPS   C28  450   5.840   3.365   9.717 -0.1389  0.2490  0.1295
    4SAPS   H8R  451   5.806   3.292   9.792 -0.8144  1.0237  0.5969
    4SAPS   C29  452   5.848   3.333   9.585  0.1986  0.4274  0.3575
    4SAPS   H9R  453   5.819   3.232   9.554 -0.6480  0.8630 -0.3079
    4SAPS  C210  454   5.885   3.436   9.474 -0.3722  0.2111 -0.2031
    4SAPS  H10R  455   5.911   3.535   9.517  0.7910 -0.4890  0.7514
    4SAPS  H10S  456   5.799   3.442   9.405  0.8573  2.1522 -1.6915
    4SAPS  C211  457   6.000   3.381   9.388  0.4450 -0.3295 -0.2095
    4SAPS  H11R  458   6.074   3.331   9.452  0.3937  0.3770  0.4035
    4SAPS  C212  459   6.012   3.393   9.256  0.0369  0.5762 -0.6950
    4SAPS  H12R  460   6.103   3.343   9.219  0.5237 -1.7186  3.1087
    4SAPS  C213  461   5.931   3.480   9.159  0.5365  0.1773 -0.5573
    4SAPS  H13R  462   5.844   3.512   9.218  1.3805 -0.0574  0.8626
    4SAPS  H13S  463   5.893   3.416   9.076  1.1928 -0.7951 -0.1299
    4SAPS  C214  464   6.020   3.598   9.130  0.2102  0.0853  0.7614
    4SAPS  H14R  465   6.082   3.624   9.217 -0.2368 -2.1983  1.8419
    4SAPS  C215  466   6.019   3.684   9.024 -0.3754  0.4646 -0.1658
    4SAPS  H15R  467   6.103   3.754   9.012 -0.3558  0.5128  0.2341
    4SAPS  C216  468   5.917   3.679   8.919  0.1295 -0.5630  0.1663
    4SAPS  H16R  469   5.885   3.783   8.897  2.9878  0.7246  1.5502
    4SAPS  H16S  470   5.826   3.628   8.958  0.3197 -2.0549 -1.2186
    4SAPS  C217  471   5.965   3.604   8.798 -0.2318  0.6563 -0.3034
    4SAPS  H17R  472   6.029   3.516   8.820  0.3577  1.2014  0.1958
    4SAPS  H17S  473   6.025   3.673   8.734  0.9604  1.5154  1.6554
    4SAPS  C218  474   5.845   3.555   8.710  0.2394  0.3512  1.3483
    4SAPS  H18R  475   5.879   3.572   8.605 -1.7427  2.6851  0.9840
    4SAPS  H18S  476   5.763   3.630   8.721  0.8166  1.9072 -3.0263
    4SAPS  C219  477   5.798   3.409   8.727 -0.7347  0.6042 -0.2162
    4SAPS  H19R  478   5.741   3.392   8.822 -2.2341  1.2705 -0.9613
    4SAPS  H19S  479   5.893   3.354   8.742  1.4679  4.0607 -0.4812
    4SAPS  C220  480   5.720   3.364   8.604 -0.1511  0.3476  0.6650
    4SAPS  H20R  481   5.682   3.260   8.612 -1.5765  0.6866 -0.9587
    4SAPS  H20S  482   5.787   3.374   8.516 -1.3012  1.0665 -0.1609
    4SAPS  H20T  483   5.627   3.423   8.587 -1.0427 -1.1745  0.0467
    4SAPS   C33  484   5.896   4.050  10.228 -0.1707  0.0048 -0.1304
    4SAPS   H3X  485   5.916   3.967  10.298  1.2490  0.4835  0.0637
    4SAPS   H3Y  486   5.972   4.130  10.238 -0.7175  0.3531  1.6054
    4SAPS   C34  487   5.893   4.006  10.084 -0.3017 -0.2111  0.4807
    4SAPS   H4X  488   5.869   4.082  10.007 -0.6606 -1.3152 -0.5374
    4SAPS   H4Y  489   5.807   3.939  10.061  1.1670 -2.7981  2.0294
    4SAPS   C35  490   6.020   3.938  10.044 -0.5489  0.1073 -0.5391
    4SAPS   H5X  491   6.044   3.870  10.129 -0.2633 -1.7084 -1.9935
    4SAPS   H5Y  492   6.101   4.014  10.047 -1.1047  0.6950 -0.3786
    4SAPS   C36  493   6.009   3.866   9.906  0.7394  0.2771 -0.2866
    4SAPS   H6X  494   5.967   3.944   9.839  0.6903  1.7828  1.4334
    4SAPS   H6Y  495   5.931   3.787   9.915 -0.7204  1.7370  0.4211
    4SAPS   C37  496   6.140   3.834   9.843 -0.8919  0.2129 -0.3012
    4SAPS   H7X  497   6.194   3.753   9.897  1.0752 -0.0333 -2.5109
    4SAPS   H7Y  498   6.202   3.926   9.851  0.1955 -0.2472 -2.6236
    4SAPS   C38  499   6.134   3.802   9.690 -0.4590  0.4076  0.3951
    4SAPS   H8X  500   6.046   3.740   9.665  0.0697 -0.2403  0.1171
    4SAPS   H8Y  501   6.236   3.767   9.662 -0.4622 -0.8787  1.8467
    4SAPS   C39  502   6.111   3.928   9.603 -0.8677 -0.1303 -0.1076
    4SAPS   H9X  503   6.191   4.002   9.623 -0.0402 -0.4848 -1.9101
    4SAPS   H9Y  504   6.009   3.960   9.632 -0.2000  2.1951 -0.1287
    4SAPS  C310  505   6.112   3.902   9.449  0.1112  0.0101 -0.0946
    4SAPS  H10X  506   6.041   3.819   9.426 -0.1792 -0.6788  2.9546
    4SAPS  H10Y  507   6.212   3.859   9.429 -0.7002 -2.5332  0.8622
    4SAPS  C311  508   6.074   4.023   9.364 -0.3869  0.0686 -0.2310
    4SAPS  H11X  509   6.126   4.114   9.400 -0.2154  0.1600 -0.7132
    4SAPS  H11Y  510   5.969   4.047   9.394 -0.0316 -0.1255  1.2560
    4SAPS  C312  511   6.084   4.010   9.211 -0.2864  0.5269  0.1703
    4SAPS  H12X  512   6.037   3.922   9.161  1.4056 -0.0986 -0.3744
    4SAPS  H12Y  513   6.191   3.995   9.187 -0.1702 -0.2490  1.1066
    4SAPS  C313  514   6.034   4.135   9.127  0.4463 -0.0211 -1.0276
    4SAPS  H13X  515   6.081   4.228   9.165 -0.4271  0.3617 -0.8659
    4SAPS  H13Y  516   5.924   4.137   9.139  0.5513 -1.6201  0.6003
    4SAPS  C314  517   6.070   4.125   8.982 -0.1208  0.2808 -0.2403
    4SAPS  H14X  518   6.017   4.029   8.959  0.0984 -0.0260  0.5163
    4SAPS  H14Y  519   6.178   4.106   8.965 -0.0447  0.5093 -0.0159
    4SAPS  C315  520   6.034   4.238   8.886 -0.4251  0.0084 -0.3588
    4SAPS  H15X  521   6.097   4.327   8.907 -1.1507  0.4552 -0.0126
    4SAPS  H15Y  522   5.934   4.281   8.908  0.9381  2.0075  2.6963
    4SAPS  C316  523   6.056   4.192   8.735  1.1468 -0.2534 -0.7675
    4SAPS  H16X  524   6.027   4.085   8.733 -1.3935  0.3842 -0.4683
    4SAPS  H16Y  525   6.166   4.205   8.724  1.1570  3.8213  1.8060
    4SAPS  C317  526   5.988   4.283   8.634  0.1255  0.2938 -0.5704
    4SAPS  H17X  527   5.877   4.270   8.630 -0.0216  1.6270 -1.2753
    4SAPS  H17Y  528   6.030   4.248   8.537 -2.0604  0.3773 -1.6200
    4SAPS  C318  529   6.016   4.432   8.655  0.3805  0.1323  0.2333
    4SAPS  H18X  530   5.990   4.451   8.761  0.9859 -1.0587  0.6238
    4SAPS  H18Y  531   5.956   4.497   8.588 -0.7081  0.1106  1.1647
    4SAPS  H18Z  532   6.124   4.445   8.635  0.3144  0.6675  0.2266
    5SAPS     N  533   3.918   4.177  10.891 -0.5164 -0.1738  0.3676
    5SAPS   HN1  534   3.889   4.083  10.923 -1.2204  1.2904  4.5730
    5SAPS   HN2  535   3.860   4.213  10.812 -1.9032  0.1205  1.4786
    5SAPS   HN3  536   4.019   4.174  10.868 -0.5490 -2.1640  0.3485
    5SAPS   C12  537   3.919   4.268  11.012 -0.1452  0.4171 -0.1170
    5SAPS  H12A  538   3.819   4.272  11.053  0.2308 -2.3433  1.3517
    5SAPS   C13  539   4.012   4.218  11.127 -0.1840 -0.2756 -0.3380
    5SAPS  O13A  540   4.077   4.110  11.122  0.3703 -0.5081 -0.5349
    5SAPS  O13B  541   3.990   4.268  11.241  0.3191  0.6954 -0.6156
    5SAPS   C11  542   3.973   4.411  10.971 -0.0260 -0.2679 -0.5610
    5SAPS  H11A  543   3.952   4.472  11.061  0.3303 -0.3772 -0.4005
    5SAPS  H11B  544   3.910   4.437  10.883  2.3739 -2.9620 -3.3208
    5SAPS     P  545   4.167   4.461  10.803  0.0009 -0.3250  0.4636
    5SAPS   O13  546   4.086   4.588  10.772  0.1646  0.2898 -0.1624
    5SAPS   O14  547   4.319   4.468  10.787  0.0474 -0.0431 -0.3841
    5SAPS   O12  548   4.119   4.414  10.948  0.5839 -0.5633  0.2226
    5SAPS   O11  549   4.115   4.344  10.719  1.0363 -0.0900  0.4328
    5SAPS    C1  550   4.016   4.375  10.611 -0.6774  0.0135  0.3514
    5SAPS    HA  551   3.948   4.290  10.589 -0.3096 -0.0524 -0.5696
    5SAPS    HB  552   3.934   4.429  10.664 -1.4649 -0.7454 -0.0723
    5SAPS    C2  553   4.076   4.433  10.486 -0.4551  0.3954  0.1462
    5SAPS    HS  554   4.092   4.543  10.487 -1.0605  0.4949 -0.4150
    5SAPS   O21  555   3.991   4.397  10.373 -0.0500 -0.3449  0.1350
    5SAPS   C21  556   3.871   4.451  10.386  0.9884  0.2180  0.7520
    5SAPS   O22  557   3.839   4.538  10.464  0.4994  0.7454  0.2409
    5SAPS   C22  558   3.789   4.395  10.273 -0.1522  0.1555 -0.3130
    5SAPS   H2R  559   3.847   4.398  10.178 -1.1701 -2.0522 -1.0673
    5SAPS   H2S  560   3.764   4.289  10.294  0.0713  0.1816  0.1102
    5SAPS    C3  561   4.213   4.374  10.451  0.0705  0.2997  0.3445
    5SAPS    HX  562   4.208   4.264  10.436 -0.7294  0.4517 -0.6324
    5SAPS    HY  563   4.289   4.404  10.526  1.3333  0.0481 -0.7958
    5SAPS   O31  564   4.254   4.433  10.332  0.0899  0.0218 -0.2394
    5SAPS   C31  565   4.340   4.366  10.255  0.7499  0.2705  0.0029
    5SAPS   O32  566   4.411   4.271  10.294  0.0800 -0.6124 -0.0370
    5SAPS   C32  567   4.332   4.413  10.112  0.0199 -0.3374 -0.0870
    5SAPS   H2X  568   4.371   4.517  10.114 -0.6829 -0.0687 -0.2324
    5SAPS   H2Y  569   4.224   4.414  10.088 -0.2705 -0.2658  1.1202
    5SAPS   C23  570   3.659   4.489  10.247  0.0463 -0.4323 -0.0284
    5SAPS   H3R  571   3.681   4.596  10.230 -1.6539 -0.1887 -0.8822
    5SAPS   H3S  572   3.592   4.491  10.336  0.3844  2.5370  0.2650
    5SAPS   C24  573   3.584   4.427  10.139 -0.7667 -0.0804  0.0478
    5SAPS   H4R  574   3.540   4.331  10.171 -0.9052 -0.0589 -0.0766
    5SAPS   H4S  575   3.651   4.402  10.054 -1.1517  2.4912 -1.1342
    5SAPS   C25  576   3.460   4.511  10.102  0.4077  0.5247 -0.5406
    5SAPS   H5R  577   3.398   4.553  10.182 -0.0361 -1.2466  0.0860
    5SAPS   C26  578   3.425   4.529   9.974 -0.7744  0.5767 -0.3521
    5SAPS   H6R  579   3.331   4.580   9.951 -1.9763 -0.8573  1.1338
    5SAPS   C27  580   3.503   4.472   9.858  0.2427  0.1635  0.1938
    5SAPS   H7R  581   3.441   4.456   9.767  0.6357 -3.5967  0.4182
    5SAPS   H7S  582   3.532   4.366   9.876  1.4313  0.7360  1.9348
    5SAPS   C28  583   3.624   4.552   9.807 -0.4277  0.2708 -0.0459
    5SAPS   H8R  584   3.648   4.634   9.876 -1.4943  0.7129 -0.1718
    5SAPS   C29  585   3.686   4.536   9.688 -0.0368  0.5334 -0.1889
    5SAPS   H9R  586   3.783   4.580   9.660 -1.0822  2.4166 -1.0295
    5SAPS  C210  587   3.650   4.418   9.598 -0.2374 -0.4881 -0.4801
    5SAPS  H10R  588   3.674   4.435   9.491 -0.9214  0.9306 -0.4199
    5SAPS  H10S  589   3.540   4.403   9.603  0.2081 -4.7308  1.3438
    5SAPS  C211  590   3.701   4.276   9.638  0.0204 -0.9666 -0.4696
    5SAPS  H11R  591   3.719   4.261   9.746  0.6630 -0.4032 -0.4884
    5SAPS  C212  592   3.725   4.171   9.564 -0.2201  0.1198 -0.6092
    5SAPS  H12R  593   3.772   4.081   9.608  1.3992  0.6767 -1.1403
    5SAPS  C213  594   3.700   4.163   9.414 -0.0292 -0.1908  0.6697
    5SAPS  H13R  595   3.622   4.236   9.384 -0.6734 -1.1756 -0.1085
    5SAPS  H13S  596   3.660   4.063   9.384  2.1022 -0.9069  0.0573
    5SAPS  C214  597   3.813   4.196   9.323 -0.7102 -0.4245 -0.3731
    5SAPS  H14R  598   3.899   4.247   9.369 -0.1169 -1.4352 -0.3334
    5SAPS  C215  599   3.812   4.158   9.194 -0.4028  0.1910 -0.2598
    5SAPS  H15R  600   3.903   4.173   9.134 -0.3829 -1.5910 -0.7298
    5SAPS  C216  601   3.704   4.086   9.124  0.8646 -0.1194  0.4648
    5SAPS  H16R  602   3.608   4.118   9.170  0.6089  0.4401 -0.4284
    5SAPS  H16S  603   3.714   3.976   9.136 -1.1275 -0.2966  0.9328
    5SAPS  C217  604   3.687   4.118   8.971 -0.6768 -0.1411 -0.7582
    5SAPS  H17R  605   3.674   4.226   8.948 -2.2688  0.1321  1.0837
    5SAPS  H17S  606   3.599   4.063   8.932 -0.3150 -0.2350 -1.4447
    5SAPS  C218  607   3.815   4.069   8.894 -0.0586 -0.9283  0.6483
    5SAPS  H18R  608   3.890   4.144   8.928  2.0798 -1.0516 -3.2295
    5SAPS  H18S  609   3.853   3.967   8.916  1.0751 -0.8850 -0.9796
    5SAPS  C219  610   3.792   4.094   8.740 -0.4556  0.5481 -0.4749
    5SAPS  H19R  611   3.755   4.198   8.729 -2.3631 -0.1778 -1.5583
    5SAPS  H19S  612   3.722   4.017   8.700  1.2183 -1.7679  0.7955
    5SAPS  C220  613   3.925   4.078   8.674  0.1796  1.2841  0.1397
    5SAPS  H20R  614   3.917   4.092   8.564 -0.4455  1.0657  0.1533
    5SAPS  H20S  615   3.962   3.974   8.690  0.4124  0.8959 -2.3727
    5SAPS  H20T  616   4.004   4.149   8.707  1.5030  0.1572 -0.4938
    5SAPS   C33  617   4.415   4.338  10.009  0.5824 -0.2294 -0.0300
    5SAPS   H3X  618   4.367   4.239   9.993 -1.8547  0.5549  1.6720
    5SAPS   H3Y  619   4.516   4.318  10.052  0.2906  0.1046  0.8388
    5SAPS   C34  620   4.425   4.417   9.874 -0.6685  0.1983 -0.6304
    5SAPS   H4X  621   4.465   4.521   9.882 -2.8886  0.9474  2.2192
    5SAPS   H4Y  622   4.324   4.435   9.831  0.0180  0.8024 -2.0656
    5SAPS   C35  623   4.504   4.343   9.765 -0.0098 -0.0765 -0.2086
    5SAPS   H5X  624   4.440   4.254   9.749 -0.4047 -0.1708  1.6472
    5SAPS   H5Y  625   4.610   4.327   9.794 -0.4504  0.5776  1.9119
    5SAPS   C36  626   4.501   4.436   9.646 -0.8919 -0.0117 -0.1511
    5SAPS   H6X  627   4.545   4.535   9.673 -0.0805 -0.9271  2.1467
    5SAPS   H6Y  628   4.393   4.439   9.620 -1.4346 -0.2755  1.9207
    5SAPS   C37  629   4.572   4.389   9.519 -0.1986 -0.2292 -0.1981
    5SAPS   H7X  630   4.556   4.279   9.516 -1.7161 -0.1070  1.5324
    5SAPS   H7Y  631   4.682   4.404   9.526 -0.3052  0.0799  1.0808
    5SAPS   C38  632   4.522   4.461   9.396  0.0151 -0.2067  0.4988
    5SAPS   H8X  633   4.536   4.570   9.413 -1.7053  0.2660 -0.9016
    5SAPS   H8Y  634   4.413   4.442   9.393  0.3041 -2.0566  0.6495
    5SAPS   C39  635   4.591   4.420   9.264  0.8037  0.5753 -0.3788
    5SAPS   H9X  636   4.596   4.309   9.263  1.7760  0.6080 -1.3051
    5SAPS   H9Y  637   4.698   4.452   9.263  0.2284  2.8074  1.5158
    5SAPS  C310  638   4.511   4.451   9.133  0.8884 -0.3555  0.5337
    5SAPS  H10X  639   4.483   4.558   9.148  0.1556 -0.5157  0.3107
    5SAPS  H10Y  640   4.419   4.390   9.127  1.4376 -1.1025 -0.7419
    5SAPS  C311  641   4.579   4.416   9.003  0.9848  0.4073  0.3709
    5SAPS  H11X  642   4.656   4.493   8.984 -0.7758  2.6204  1.6781
    5SAPS  H11Y  643   4.499   4.436   8.928  0.0867 -0.4979  1.0443
    5SAPS  C312  644   4.655   4.283   8.986 -0.0833 -0.2932 -0.2843
    5SAPS  H12X  645   4.597   4.193   9.015 -0.0743  0.2769  1.6024
    5SAPS  H12Y  646   4.744   4.286   9.052 -0.1242 -0.9989 -0.1867
    5SAPS  C313  647   4.704   4.268   8.834  0.2333  0.3984 -0.7081
    5SAPS  H13X  648   4.773   4.343   8.790  0.7077 -0.1723 -0.9476
    5SAPS  H13Y  649   4.607   4.278   8.780  0.7738  2.7624 -1.3362
    5SAPS  C314  650   4.757   4.122   8.793 -0.0713 -0.0616  0.4431
    5SAPS  H14X  651   4.830   4.070   8.859 -0.8035 -1.7596 -0.0294
    5SAPS  H14Y  652   4.810   4.129   8.695  1.2418 -3.1767  0.8325
    5SAPS  C315  653   4.641   4.021   8.749 -0.7397  0.3981 -0.1250
    5SAPS  H15X  654   4.557   4.080   8.705 -0.6246 -0.3369 -1.3697
    5SAPS  H15Y  655   4.610   3.971   8.843  4.2295 -2.0850  0.5017
    5SAPS  C316  656   4.672   3.911   8.646 -0.1602  0.0284 -0.2094
    5SAPS  H16X  657   4.767   3.873   8.688  2.1499  2.2743 -2.9265
    5SAPS  H16Y  658   4.687   3.955   8.545 -1.9536  0.8214 -0.1770
    5SAPS  C317  659   4.562   3.810   8.633 -0.4173 -0.0598  0.2139
    5SAPS  H17X  660   4.533   3.776   8.735  0.7282 -0.5128  0.4021
    5SAPS  H17Y  661   4.604   3.722   8.579 -1.4186 -0.5918  0.2740
    5SAPS  C318  662   4.428   3.847   8.564 -0.5592  0.8539  0.2541
    5SAPS  H18X  663   4.384   3.940   8.607 -4.0352 -0.1466 -0.8122
    5SAPS  H18Y  664   4.357   3.762   8.558 -0.3892  0.4346  2.9056
    5SAPS  H18Z  665   4.440   3.882   8.459 -0.0434  2.6740  0.8869
    6SAPS     N  666   3.870   3.703  10.755 -0.3263 -0.3063  0.4966
    6SAPS   HN1  667   3.911   3.635  10.823 -0.4877  0.8771  1.8130
    6SAPS   HN2  668   3.835   3.649  10.673 -2.0411  1.2359  0.1280
    6SAPS   HN3  669   3.938   3.775  10.725 -1.0986 -0.2832 -1.3577
    6SAPS   C12  670   3.752   3.778  10.797 -0.0561 -0.4157  0.4596
    6SAPS  H12A  671   3.690   3.707  10.849 -1.0722  0.1989  0.1059
    6SAPS   C13  672   3.776   3.889  10.898 -0.4051 -0.0137 -0.1129
    6SAPS  O13A  673   3.898   3.916  10.925  0.4223  0.2487  0.5226
    6SAPS  O13B  674   3.686   3.953  10.948 -0.2348 -0.3522 -0.2368
    6SAPS   C11  675   3.683   3.837  10.672  0.6596  0.1047  0.6307
    6SAPS  H11A  676   3.735   3.930  10.641 -1.5456  0.5109 -2.2585
    6SAPS  H11B  677   3.581   3.876  10.694  0.4270 -0.1400  0.0029
    6SAPS     P  678   3.581   3.765  10.447 -0.5575 -0.1610 -0.1257
    6SAPS   O13  679   3.631   3.690  10.327  0.3968  0.6965 -0.5082
    6SAPS   O14  680   3.452   3.727  10.509 -0.1581  0.4379 -0.1683
    6SAPS   O12  681   3.692   3.749  10.559  0.0581 -0.0095  0.0544
    6SAPS   O11  682   3.575   3.921  10.426  0.2296 -0.9607  0.0454
    6SAPS    C1  683   3.470   3.989  10.348  0.2918  0.6928  0.1460
    6SAPS    HA  684   3.374   3.936  10.366  0.6817  0.6805  2.4775
    6SAPS    HB  685   3.454   4.092  10.385 -1.1768 -0.7866  4.1628
    6SAPS    C2  686   3.502   3.979  10.194 -0.2139 -0.2990 -0.2536
    6SAPS    HS  687   3.509   3.870  10.175 -0.8912 -0.6969  1.6102
    6SAPS   O21  688   3.628   4.045  10.176  0.1324  0.5779 -0.6007
    6SAPS   C21  689   3.708   4.019  10.075 -0.6663 -0.3093  0.2777
    6SAPS   O22  690   3.698   3.923  10.000  0.0057 -0.1372  0.2973
    6SAPS   C22  691   3.827   4.118  10.060  1.0314 -0.3847 -0.0006
    6SAPS   H2R  692   3.788   4.215  10.022 -1.8159 -1.1576  0.7017
    6SAPS   H2S  693   3.857   4.148  10.163  0.8252  2.0762 -0.5739
    6SAPS    C3  694   3.388   4.044  10.115 -0.9482 -0.0371 -0.0294
    6SAPS    HX  695   3.386   4.147  10.156 -0.4795  0.1471 -0.4551
    6SAPS    HY  696   3.287   4.000  10.131 -1.9668  0.9607 -2.9806
    6SAPS   O31  697   3.426   4.057   9.978 -0.2091 -0.4205  0.1641
    6SAPS   C31  698   3.375   3.972   9.884  0.8266 -0.1365 -0.0014
    6SAPS   O32  699   3.301   3.879   9.910 -0.0670 -0.2163 -0.5459
    6SAPS   C32  700   3.419   4.013   9.744  0.2629  0.5205 -0.5549
    6SAPS   H2X  701   3.525   3.981   9.741 -0.0678 -0.5298 -1.5480
    6SAPS   H2Y  702   3.416   4.124   9.737 -1.4638  0.6710  1.5523
    6SAPS   C23  703   3.945   4.058   9.974  0.1255  0.1461 -0.5375
    6SAPS   H3R  704   3.904   4.022   9.877 -2.2506 -2.5478  1.3087
    6SAPS   H3S  705   3.991   3.966  10.016 -1.0118  0.0770  0.6106
    6SAPS   C24  706   4.060   4.161   9.959  0.0737 -0.6387  0.0995
    6SAPS   H4R  707   4.157   4.118   9.925  1.4463  0.5242  2.2851
    6SAPS   H4S  708   4.073   4.215  10.056  0.8552  0.8756 -0.8002
    6SAPS   C25  709   3.998   4.264   9.866 -0.7393 -0.3371 -0.1532
    6SAPS   H5R  710   3.905   4.316   9.893 -1.4507 -0.6886 -1.7552
    6SAPS   C26  711   4.048   4.286   9.741 -0.4361  0.1221  0.0620
    6SAPS   H6R  712   4.004   4.353   9.665 -0.7663 -1.0563 -0.8258
    6SAPS   C27  713   4.177   4.217   9.684  0.3760  0.5539  0.1512
    6SAPS   H7R  714   4.246   4.198   9.769 -0.5263 -0.2362  0.7280
    6SAPS   H7S  715   4.232   4.293   9.625  1.9677 -0.3240  0.4538
    6SAPS   C28  716   4.148   4.085   9.617 -0.5964 -0.2499 -0.7435
    6SAPS   H8R  717   4.117   4.000   9.680 -0.3358  0.2498  0.0760
    6SAPS   C29  718   4.161   4.067   9.488  0.0023  0.5470 -0.1543
    6SAPS   H9R  719   4.115   3.975   9.448 -0.8435 -0.3245  2.5935
    6SAPS  C210  720   4.193   4.167   9.376  0.2358  0.3021  0.5587
    6SAPS  H10R  721   4.221   4.262   9.427 -1.7971  1.1443  0.1821
    6SAPS  H10S  722   4.116   4.194   9.302  0.3850 -0.7848 -0.0206
    6SAPS  C211  723   4.318   4.120   9.301  0.5057  0.2777  0.5047
    6SAPS  H11R  724   4.415   4.110   9.352  0.2122  0.8889  1.2026
    6SAPS  C212  725   4.333   4.103   9.171 -0.0276 -0.5493  0.5515
    6SAPS  H12R  726   4.433   4.068   9.142 -0.2956 -1.5517  0.7904
    6SAPS  C213  727   4.222   4.122   9.067  0.0188  0.2825 -0.0641
    6SAPS  H13R  728   4.152   4.205   9.091  0.5198  0.3533  1.2356
    6SAPS  H13S  729   4.153   4.036   9.061 -1.1350  1.1803 -0.1152
    6SAPS  C214  730   4.290   4.138   8.931 -0.2772 -0.7680 -0.1075
    6SAPS  H14R  731   4.385   4.086   8.913  0.6388  0.3309  1.3086
    6SAPS  C215  732   4.255   4.234   8.836  0.2471  1.3437  0.0773
    6SAPS  H15R  733   4.314   4.225   8.744  0.6678 -0.8161  0.4902
    6SAPS  C216  734   4.154   4.341   8.838 -0.3572  0.1973  0.1834
    6SAPS  H16R  735   4.088   4.326   8.926  0.6509  1.5371  1.2197
    6SAPS  H16S  736   4.092   4.341   8.746 -0.9610  1.9491  0.5528
    6SAPS  C217  737   4.198   4.488   8.859  0.2217  0.8578  0.4878
    6SAPS  H17R  738   4.248   4.498   8.958 -1.4114  0.7222  1.3694
    6SAPS  H17S  739   4.107   4.552   8.858 -0.4430 -0.0378 -1.9781
    6SAPS  C218  740   4.297   4.544   8.759 -0.5438 -0.0311  0.4011
    6SAPS  H18R  741   4.258   4.556   8.655  2.2467 -3.6316 -1.3098
    6SAPS  H18S  742   4.377   4.469   8.742  1.9599  2.3978  0.7018
    6SAPS  C219  743   4.356   4.676   8.803 -0.7006  0.1563 -0.1726
    6SAPS  H19R  744   4.444   4.691   8.737 -1.5036 -0.0716 -1.3259
    6SAPS  H19S  745   4.382   4.669   8.911 -1.1984 -4.0453 -0.1585
    6SAPS  C220  746   4.266   4.794   8.775  0.4139  0.3418  0.1572
    6SAPS  H20R  747   4.325   4.885   8.800  0.8606 -0.1295  0.8148
    6SAPS  H20S  748   4.179   4.791   8.844  0.4446  0.4558  0.2021
    6SAPS  H20T  749   4.234   4.794   8.668  0.2363 -0.3698  0.2091
    6SAPS   C33  750   3.337   3.957   9.618 -0.3748 -0.0718  0.3750
    6SAPS   H3X  751   3.365   4.015   9.527 -3.2823 -0.4502 -0.8540
    6SAPS   H3Y  752   3.228   3.967   9.635 -0.1212 -0.7964  2.8589
    6SAPS   C34  753   3.383   3.817   9.582  0.1745  0.8454  0.0855
    6SAPS   H4X  754   3.344   3.754   9.665 -1.6285  1.4748 -0.2333
    6SAPS   H4Y  755   3.491   3.796   9.592  0.4954  1.1233 -2.2901
    6SAPS   C35  756   3.335   3.764   9.447  0.0397  0.1199  0.3607
    6SAPS   H5X  757   3.232   3.802   9.428 -0.1416 -1.4109 -2.1891
    6SAPS   H5Y  758   3.330   3.653   9.453 -0.4615  0.2125  2.4461
    6SAPS   C36  759   3.415   3.814   9.324  0.3279  0.6902 -0.0637
    6SAPS   H6X  760   3.514   3.766   9.339  0.2647  0.7277  0.4696
    6SAPS   H6Y  761   3.430   3.924   9.323 -1.1372  0.9166  0.0249
    6SAPS   C37  762   3.357   3.771   9.190  0.2058 -0.3321  0.6662
    6SAPS   H7X  763   3.295   3.855   9.153 -0.1827 -0.6040  0.6848
    6SAPS   H7Y  764   3.288   3.686   9.210 -1.5316  0.8227 -0.1898
    6SAPS   C38  765   3.467   3.741   9.087  1.3995  0.3509 -0.4656
    6SAPS   H8X  766   3.507   3.639   9.109 -1.7267 -1.8610 -3.7458
    6SAPS   H8Y  767   3.532   3.831   9.085  0.9791  0.6691 -2.6618
    6SAPS   C39  768   3.402   3.746   8.943 -0.0063  0.0629  0.5363
    6SAPS   H9X  769   3.357   3.847   8.928 -1.5361 -0.5494  0.7578
    6SAPS   H9Y  770   3.313   3.680   8.950 -0.2929  0.4689  0.7349
    6SAPS  C310  771   3.489   3.692   8.823 -0.0325  0.5534 -0.2040
    6SAPS  H10X  772   3.459   3.586   8.808  0.9772 -0.1025  2.0081
    6SAPS  H10Y  773   3.590   3.687   8.868 -0.0893  1.2956  0.0258
    6SAPS  C311  774   3.495   3.799   8.710  0.2570 -0.0846 -0.1437
    6SAPS  H11X  775   3.526   3.899   8.747 -1.2498  0.7778 -1.0785
    6SAPS  H11Y  776   3.393   3.827   8.676  0.9421  0.5639 -1.7418
    6SAPS  C312  777   3.593   3.748   8.601  0.2567 -0.3300  0.3683
    6SAPS  H12X  778   3.691   3.711   8.637  0.1377 -2.5081 -1.3053
    6SAPS  H12Y  779   3.607   3.821   8.519 -0.2940 -3.2798 -2.5660
    6SAPS  C313  780   3.540   3.628   8.518 -0.2042  0.0676 -0.3864
    6SAPS  H13X  781   3.452   3.664   8.460  0.6459  1.1406 -1.0527
    6SAPS  H13Y  782   3.516   3.550   8.593  0.8081  0.2679  0.1625
    6SAPS  C314  783   3.640   3.566   8.427  0.5835 -0.2379  0.0797
    6SAPS  H14X  784   3.608   3.469   8.383 -1.5422  0.4592 -0.0277
    6SAPS  H14Y  785   3.731   3.546   8.487 -0.4481 -1.8200  1.2018
    6SAPS  C315  786   3.673   3.657   8.299 -0.2758 -0.0707  0.3326
    6SAPS  H15X  787   3.668   3.761   8.337 -0.2872 -0.2881  0.9347
    6SAPS  H15Y  788   3.582   3.655   8.234 -0.4148  1.4305  0.4405
    6SAPS  C316  789   3.808   3.623   8.234  0.3351  0.6490  0.3603
    6SAPS  H16X  790   3.783   3.624   8.126 -2.3192  1.5358  0.9046
    6SAPS  H16Y  791   3.836   3.519   8.261  0.1847  1.0034  1.9800
    6SAPS  C317  792   3.913   3.731   8.257 -0.2079  0.3626 -0.1186
    6SAPS  H17X  793   3.863   3.827   8.234 -2.3293 -0.2681  1.5631
    6SAPS  H17Y  794   3.997   3.717   8.185 -0.2730  0.7360 -0.2674
    6SAPS  C318  795   3.969   3.723   8.398  0.4325 -0.3900  0.9233
    6SAPS  H18X  796   4.026   3.630   8.420  1.0055 -0.1151  0.6044
    6SAPS  H18Y  797   3.888   3.730   8.474  1.5361 -0.9683  2.2157
    6SAPS  H18Z  798   4.034   3.812   8.413 -1.2356  1.6106 -2.5750
    7SAPS     N  799   6.112   0.875  10.960 -0.0229 -0.1483  0.1416
    7SAPS   HN1  800   6.122   0.873  10.856  3.6358  0.4018  0.3278
    7SAPS   HN2  801   6.211   0.869  10.992  0.4441  1.0635 -0.9662
    7SAPS   HN3  802   6.043   0.805  10.992 -0.6389 -0.4977 -1.8087
    7SAPS   C12  803   6.036   1.005  10.984  0.1081  0.2081 -0.3229
    7SAPS  H12A  804   5.947   1.003  10.923 -0.0451  0.1257 -0.0944
    7SAPS   C13  805   6.003   1.030  11.128 -0.5376  0.4038  0.2995
    7SAPS  O13A  806   6.053   0.963  11.219  0.0494 -0.0519  0.0949
    7SAPS  O13B  807   5.921   1.124  11.155 -0.2547 -0.2025  0.0386
    7SAPS   C11  808   6.139   1.113  10.940  0.5925  0.1658 -0.4083
    7SAPS  H11A  809   6.236   1.115  10.996 -0.5332 -0.3799  1.6619
    7SAPS  H11B  810   6.089   1.206  10.974  0.4711  0.9449 -2.5915
    7SAPS     P  811   6.122   1.204  10.690  0.2337  0.4477 -0.0947
    7SAPS   O13  812   6.105   1.332  10.764  0.2268 -0.1339  0.2554
    7SAPS   O14  813   6.224   1.207  10.584 -0.4027 -0.0565 -0.3596
    7SAPS   O12  814   6.164   1.098  10.799  0.0216  0.3649  0.4141
    7SAPS   O11  815   5.986   1.153  10.636 -0.2843 -0.3025 -0.7547
    7SAPS    C1  816   5.987   1.060  10.530  0.1628  0.3698  0.3946
    7SAPS    HA  817   6.092   1.035  10.502  0.6590  3.0589 -0.4122
    7SAPS    HB  818   5.932   0.968  10.560  0.7023  0.4051  1.5559
    7SAPS    C2  819   5.905   1.109  10.407  0.8953 -0.2038 -0.0856
    7SAPS    HS  820   5.959   1.190  10.353 -1.4118  0.5478 -1.4240
    7SAPS   O21  821   5.776   1.156  10.459  0.5956  0.2892 -0.6930
    7SAPS   C21  822   5.740   1.283  10.427  0.1360 -0.2955  0.1992
    7SAPS   O22  823   5.808   1.363  10.365  0.4693  0.1001  0.1594
    7SAPS   C22  824   5.605   1.313  10.487  0.1458 -0.5704  0.2787
    7SAPS   H2R  825   5.594   1.239  10.569  2.8174 -0.5873  0.7235
    7SAPS   H2S  826   5.596   1.414  10.532 -0.6992 -1.1882  1.5519
    7SAPS    C3  827   5.883   0.991  10.305 -0.5746  0.7743 -0.4038
    7SAPS    HX  828   5.823   0.914  10.358 -0.0791  1.1626  0.7397
    7SAPS    HY  829   5.974   0.930  10.285 -1.5936 -0.9388 -0.0153
    7SAPS   O31  830   5.807   1.036  10.191 -0.2429  0.1831  0.2358
    7SAPS   C31  831   5.884   1.082  10.096 -0.5732 -0.3339  0.2552
    7SAPS   O32  832   6.004   1.076  10.096  0.2309  0.3843  0.4338
    7SAPS   C32  833   5.794   1.119   9.978  0.2179  0.0255  0.4168
    7SAPS   H2X  834   5.749   1.020   9.953  1.9424 -1.2707  2.1000
    7SAPS   H2Y  835   5.862   1.153   9.897  1.9086 -0.0195  1.7481
    7SAPS   C23  836   5.487   1.305  10.382  0.7597 -0.1486 -0.8758
    7SAPS   H3R  837   5.491   1.217  10.315  1.6568  0.1716 -1.2616
    7SAPS   H3S  838   5.486   1.393  10.315 -1.5274  0.9329  0.4636
    7SAPS   C24  839   5.350   1.309  10.459  0.1101  0.0731  0.2835
    7SAPS   H4R  840   5.269   1.332  10.386  0.1708  0.3117  0.2886
    7SAPS   H4S  841   5.354   1.397  10.527 -4.1595  1.0120 -0.3510
    7SAPS   C25  842   5.327   1.190  10.550 -0.0163 -0.1317  0.2153
    7SAPS   H5R  843   5.389   1.192  10.640 -2.2254 -2.6039  1.9360
    7SAPS   C26  844   5.225   1.108  10.529  0.6978  0.2027  0.5669
    7SAPS   H6R  845   5.220   1.018  10.592  1.8086 -0.2707  0.0098
    7SAPS   C27  846   5.116   1.113  10.421 -0.4104  1.0557 -0.1921
    7SAPS   H7R  847   5.093   1.006  10.403 -0.7146  0.5578  2.5945
    7SAPS   H7S  848   5.165   1.161  10.334  3.0385  3.4956  2.7672
    7SAPS   C28  849   4.983   1.171  10.475 -0.0577  0.1987  0.5309
    7SAPS   H8R  850   4.933   1.107  10.550  1.9848  0.8536  2.5794
    7SAPS   C29  851   4.940   1.295  10.445 -0.2111  0.1588 -0.3820
    7SAPS   H9R  852   4.836   1.312  10.477 -0.7208 -0.1075 -1.8336
    7SAPS  C210  853   4.997   1.394  10.347 -0.3441 -0.0929 -0.1888
    7SAPS  H10R  854   5.084   1.353  10.292 -1.0508 -0.8371 -0.7788
    7SAPS  H10S  855   5.031   1.481  10.408 -0.3236 -0.5772  0.5026
    7SAPS  C211  856   4.895   1.448  10.250 -0.1182  0.1385  0.1388
    7SAPS  H11R  857   4.800   1.480  10.297 -0.4006 -1.8112  1.0354
    7SAPS  C212  858   4.903   1.451  10.114  1.0944 -0.4767  0.3494
    7SAPS  H12R  859   4.825   1.505  10.058  2.7936 -0.4791 -2.1937
    7SAPS  C213  860   5.006   1.400  10.019 -0.5524 -0.5980 -1.2166
    7SAPS  H13R  861   5.101   1.407  10.075 -2.3462  0.4258  1.9658
    7SAPS  H13S  862   5.030   1.474   9.940  0.6759  1.0939  0.6722
    7SAPS  C214  863   4.994   1.260   9.963  0.2633  0.2499 -0.3927
    7SAPS  H14R  864   5.074   1.187   9.981 -0.9231 -0.5287  2.2934
    7SAPS  C215  865   4.900   1.213   9.882 -0.1534  0.7197  0.4648
    7SAPS  H15R  866   4.926   1.109   9.855  0.4299  0.5561  1.5835
    7SAPS  C216  867   4.783   1.272   9.816 -0.0120  0.5842 -0.1503
    7SAPS  H16R  868   4.775   1.381   9.838  0.5354  0.7193 -0.5845
    7SAPS  H16S  869   4.701   1.212   9.861  1.8604 -0.4615  2.0641
    7SAPS  C217  870   4.797   1.272   9.658 -0.2391 -0.7895 -0.2044
    7SAPS  H17R  871   4.689   1.260   9.632 -0.7422  2.3009 -0.0078
    7SAPS  H17S  872   4.856   1.189   9.615 -1.6621 -2.6499  1.2345
    7SAPS  C218  873   4.836   1.415   9.595 -0.4607  0.0136  0.0543
    7SAPS  H18R  874   4.940   1.434   9.629 -0.5807 -0.5076  0.7340
    7SAPS  H18S  875   4.770   1.483   9.653  0.6127 -0.9408  2.5035
    7SAPS  C219  876   4.825   1.409   9.445  0.3891  0.2122 -0.6331
    7SAPS  H19R  877   4.717   1.396   9.425  0.3873  0.8718 -1.0678
    7SAPS  H19S  878   4.880   1.317   9.417  0.2564 -0.4488  1.1213
    7SAPS  C220  879   4.872   1.541   9.367 -0.5222 -0.3399 -0.0713
    7SAPS  H20R  880   4.980   1.527   9.344 -0.6672 -1.1353 -0.2913
    7SAPS  H20S  881   4.856   1.631   9.430  0.1478 -0.5706  0.4325
    7SAPS  H20T  882   4.827   1.546   9.265  3.5834  0.7296 -2.0438
    7SAPS   C33  883   5.695   1.227  10.007  0.4024 -0.0516  0.3553
    7SAPS   H3X  884   5.739   1.328   9.994 -1.8944  0.7871 -1.7106
    7SAPS   H3Y  885   5.646   1.224  10.107 -0.5207 -0.0077 -0.0894
    7SAPS   C34  886   5.565   1.213   9.923  0.6214  0.5499 -0.1948
    7SAPS   H4X  887   5.479   1.271   9.964 -0.2889 -0.0339 -1.2287
    7SAPS   H4Y  888   5.541   1.104   9.921  0.1832  0.6419 -0.1482
    7SAPS   C35  889   5.587   1.258   9.776 -0.5207 -0.4312  0.3205
    7SAPS   H5X  890   5.631   1.176   9.716  1.6122  0.7330  0.2151
    7SAPS   H5Y  891   5.653   1.348   9.775  0.7497 -1.3289  1.0390
    7SAPS   C36  892   5.453   1.301   9.709  0.7393  0.1461  0.4188
    7SAPS   H6X  893   5.416   1.390   9.764 -1.0041 -0.5564  0.4529
    7SAPS   H6Y  894   5.372   1.226   9.721 -0.5908  1.3942 -0.5685
    7SAPS   C37  895   5.472   1.342   9.564 -0.2373  0.1094 -0.1488
    7SAPS   H7X  896   5.571   1.389   9.550  0.2804 -1.0162 -0.3755
    7SAPS   H7Y  897   5.392   1.403   9.517 -0.5619  0.0083  0.2678
    7SAPS   C38  898   5.482   1.217   9.474  0.0953  0.3042  0.0514
    7SAPS   H8X  899   5.389   1.156   9.483  1.7557 -2.1699  1.3886
    7SAPS   H8Y  900   5.564   1.154   9.513  0.6451  1.6575  1.1700
    7SAPS   C39  901   5.525   1.243   9.332  0.4420  0.5123  0.0708
    7SAPS   H9X  902   5.514   1.154   9.267 -2.9785 -0.3923  1.6239
    7SAPS   H9Y  903   5.627   1.287   9.334  0.0163  1.5545 -0.4266
    7SAPS  C310  904   5.435   1.338   9.254 -0.0915  0.1028  0.4591
    7SAPS  H10X  905   5.472   1.366   9.153  3.0772 -0.1181  1.4385
    7SAPS  H10Y  906   5.421   1.436   9.306  1.5553  1.1021 -0.8909
    7SAPS  C311  907   5.289   1.276   9.235  0.0978 -0.0917  0.0707
    7SAPS  H11X  908   5.225   1.366   9.225  1.4595  0.9723  0.6758
    7SAPS  H11Y  909   5.257   1.221   9.326 -0.8856 -0.6422 -0.5835
    7SAPS  C312  910   5.282   1.180   9.118 -0.8323  0.2149 -0.0005
    7SAPS  H12X  911   5.316   1.080   9.153 -1.6048 -0.1169 -0.1712
    7SAPS  H12Y  912   5.356   1.219   9.045  0.3103 -2.2599 -0.2764
    7SAPS  C313  913   5.146   1.171   9.049  0.2281  0.7001 -0.5039
    7SAPS  H13X  914   5.115   1.266   9.001 -2.5045  0.0245 -0.2775
    7SAPS  H13Y  915   5.075   1.144   9.131  0.6583 -0.5115 -0.5117
    7SAPS  C314  916   5.157   1.066   8.940  1.0935 -0.3371 -0.0571
    7SAPS  H14X  917   5.171   0.971   8.995  2.0553  0.0395  0.3721
    7SAPS  H14Y  918   5.251   1.086   8.884  1.2128 -1.1893 -0.1720
    7SAPS  C315  919   5.023   1.062   8.867  0.5271 -0.0327  0.8261
    7SAPS  H15X  920   5.033   1.147   8.795 -2.3235 -0.0497  0.3041
    7SAPS  H15Y  921   4.941   1.079   8.939 -0.2733 -1.2141  0.2266
    7SAPS  C316  922   4.987   0.945   8.778 -0.4146 -0.0269  0.2128
    7SAPS  H16X  923   4.886   0.952   8.733 -0.2576 -1.5342 -0.4393
    7SAPS  H16Y  924   4.988   0.850   8.836 -0.6012  0.2344  0.6501
    7SAPS  C317  925   5.090   0.912   8.672 -1.0737 -0.3070  0.4447
    7SAPS  H17X  926   5.182   0.883   8.725 -1.2615 -3.2217 -0.6172
    7SAPS  H17Y  927   5.120   1.003   8.615 -0.3121 -1.1644 -0.5799
    7SAPS  C318  928   5.042   0.808   8.573 -0.2637 -0.3091  0.8973
    7SAPS  H18X  929   4.979   0.856   8.495  2.6062  2.0191 -0.1676
    7SAPS  H18Y  930   5.010   0.710   8.614  0.8473 -1.4001 -0.7506
    7SAPS  H18Z  931   5.125   0.766   8.513 -0.6876  0.1631 -0.0341
    8SAPS     N  932   3.020   6.652  10.924 -0.0479 -0.7804  0.3850
    8SAPS   HN1  933   2.928   6.694  10.897  0.6375 -0.0267 -0.9118
    8SAPS   HN2  934   3.087   6.685  10.852  1.5619 -1.0415  1.7204
    8SAPS   HN3  935   3.022   6.548  10.931  0.5151 -0.6878  1.7557
    8SAPS   C12  936   3.053   6.699  11.067 -0.1924  0.2852 -0.1010
    8SAPS  H12A  937   3.043   6.807  11.061 -4.4073  0.1758  1.6256
    8SAPS   C13  938   2.965   6.651  11.180 -0.1383  0.3909  0.1134
    8SAPS  O13A  939   2.871   6.572  11.150 -0.1772 -0.0194 -0.4487
    8SAPS  O13B  940   2.978   6.691  11.300  0.2385  0.0029  0.6139
    8SAPS   C11  941   3.198   6.663  11.099 -0.1961  0.6684 -0.2466
    8SAPS  H11A  942   3.206   6.553  11.089  3.4764  0.8164 -0.5270
    8SAPS  H11B  943   3.226   6.694  11.202  1.7857  0.5936 -0.7088
    8SAPS     P  944   3.442   6.729  11.032 -0.1062  0.2726 -0.2857
    8SAPS   O13  945   3.481   6.864  10.993 -0.0743  0.1807 -0.1287
    8SAPS   O14  946   3.471   6.687  11.172 -0.0089  0.0388  0.6043
    8SAPS   O12  947   3.288   6.721  11.003 -0.2735  0.5560 -0.0246
    8SAPS   O11  948   3.508   6.636  10.925  0.7158  0.6825  0.0975
    8SAPS    C1  949   3.453   6.507  10.895 -0.5373 -0.5653 -0.4309
    8SAPS    HA  950   3.481   6.430  10.971  1.5704 -2.3640 -2.8792
    8SAPS    HB  951   3.342   6.510  10.904 -0.4371  0.3628  0.7581
    8SAPS    C2  952   3.496   6.460  10.756 -0.3574 -0.3680  0.0444
    8SAPS    HS  953   3.446   6.362  10.747  0.1803 -0.7605  1.1795
    8SAPS   O21  954   3.642   6.455  10.744  0.9432  0.2190  0.2632
    8SAPS   C21  955   3.703   6.365  10.813  0.2235 -0.1096  0.3245
    8SAPS   O22  956   3.648   6.274  10.875  0.2005 -0.6215  0.1985
    8SAPS   C22  957   3.845   6.395  10.819  0.0786  0.4751 -0.0191
    8SAPS   H2R  958   3.875   6.483  10.758  0.5016 -0.4478 -1.1825
    8SAPS   H2S  959   3.874   6.410  10.925 -0.4157 -5.2829  1.2387
    8SAPS    C3  960   3.441   6.561  10.652  0.0654  0.0142 -0.2888
    8SAPS    HX  961   3.510   6.646  10.639 -2.0556  1.9026  0.1442
    8SAPS    HY  962   3.347   6.607  10.690  0.1544 -0.5961  0.7073
    8SAPS   O31  963   3.417   6.481  10.529  0.6975 -0.5694  0.1474
    8SAPS   C31  964   3.304   6.418  10.513  0.7541 -0.1192 -0.3136
    8SAPS   O32  965   3.210   6.405  10.591  0.0996 -0.0504 -0.4838
    8SAPS   C32  966   3.311   6.343  10.377  0.2400 -0.0482 -0.0328
    8SAPS   H2X  967   3.407   6.286  10.373  0.7844  0.8426 -0.0202
    8SAPS   H2Y  968   3.329   6.421  10.300  1.1377 -1.5794 -1.4398
    8SAPS   C23  969   3.942   6.282  10.772  0.2341 -0.3097 -0.1033
    8SAPS   H3R  970   3.931   6.185  10.824  1.0061 -0.2195  0.2392
    8SAPS   H3S  971   4.050   6.300  10.787  0.5240 -1.3470 -0.8634
    8SAPS   C24  972   3.920   6.228  10.626  0.2254 -0.1412 -0.1511
    8SAPS   H4R  973   3.813   6.198  10.617  0.6509 -1.3067 -1.8289
    8SAPS   H4S  974   3.981   6.135  10.625 -2.3637 -1.9417  0.4895
    8SAPS   C25  975   3.945   6.318  10.498  0.5238  0.7188 -0.3619
    8SAPS   H5R  976   4.049   6.351  10.483  2.2442 -1.9183  4.0973
    8SAPS   C26  977   3.859   6.362  10.410  0.1448 -0.0833 -0.2371
    8SAPS   H6R  978   3.913   6.420  10.334  1.1781  0.1283  0.6408
    8SAPS   C27  979   3.713   6.351  10.400  0.4023  0.2582  0.3120
    8SAPS   H7R  980   3.663   6.450  10.413  0.1403  0.4168 -1.5570
    8SAPS   H7S  981   3.664   6.295  10.482 -0.9265 -0.1624 -0.7174
    8SAPS   C28  982   3.672   6.294  10.266  0.3141 -0.0380  0.4672
    8SAPS   H8R  983   3.700   6.188  10.255 -2.2103 -0.9203  1.7235
    8SAPS   C29  984   3.603   6.345  10.162 -0.2937  0.8033  0.0971
    8SAPS   H9R  985   3.586   6.280  10.075  3.0978  0.2284 -0.2795
    8SAPS  C210  986   3.553   6.488  10.138  0.1810  0.0101 -0.3112
    8SAPS  H10R  987   3.581   6.556  10.221 -1.6935  0.3697  0.0847
    8SAPS  H10S  988   3.442   6.481  10.129  0.2684  1.1066 -3.1875
    8SAPS  C211  989   3.591   6.556  10.010 -0.2183 -0.5124 -0.6365
    8SAPS  H11R  990   3.674   6.625  10.031  0.4032 -1.9229  1.9498
    8SAPS  C212  991   3.561   6.536   9.888  0.4253  0.1975  0.3190
    8SAPS  H12R  992   3.625   6.585   9.812  0.9076  0.6200  0.9849
    8SAPS  C213  993   3.466   6.436   9.815  0.0491  0.1298 -0.0691
    8SAPS  H13R  994   3.368   6.482   9.795 -0.6548 -1.6030 -0.8224
    8SAPS  H13S  995   3.444   6.355   9.888  0.1182  1.1147  1.0704
    8SAPS  C214  996   3.527   6.389   9.687  0.1578 -0.5997 -0.4624
    8SAPS  H14R  997   3.511   6.459   9.603 -0.6648  0.2944  0.4244
    8SAPS  C215  998   3.592   6.273   9.668 -0.8155 -0.2290  0.0724
    8SAPS  H15R  999   3.634   6.251   9.569 -0.8935  2.3629 -0.6122
    8SAPS  C216 1000   3.630   6.176   9.778 -0.1073 -0.1012  0.7577
    8SAPS  H16R 1001   3.615   6.073   9.739 -2.1446  0.5441 -0.2758
    8SAPS  H16S 1002   3.566   6.184   9.868  0.1159 -3.7977  1.4076
    8SAPS  C217 1003   3.777   6.202   9.809 -0.5253 -0.4878 -0.3312
    8SAPS  H17R 1004   3.791   6.312   9.815 -0.1124 -0.4963 -1.0344
    8SAPS  H17S 1005   3.854   6.168   9.736  0.8032 -0.0546  0.8184
    8SAPS  C218 1006   3.805   6.127   9.938 -0.2502  0.1481 -0.2098
    8SAPS  H18R 1007   3.780   6.019   9.931  1.1346 -0.1857 -0.2032
    8SAPS  H18S 1008   3.747   6.172  10.022  0.3949 -0.7677  0.7540
    8SAPS  C219 1009   3.950   6.145   9.983 -0.4796  0.6029 -1.0047
    8SAPS  H19R 1010   3.973   6.244  10.028 -0.1137 -0.1179  0.4468
    8SAPS  H19S 1011   4.023   6.138   9.900  2.3062  0.8713  1.2684
    8SAPS  C220 1012   3.992   6.039  10.088  0.3287 -0.0657  0.4156
    8SAPS  H20R 1013   3.988   5.936  10.047 -3.6445 -0.3663  1.1161
    8SAPS  H20S 1014   3.930   6.036  10.180 -0.2041  0.8231  0.1069
    8SAPS  H20T 1015   4.096   6.060  10.120  0.3187  2.4661 -0.8857
    8SAPS   C33 1016   3.196   6.245  10.337 -0.1070 -0.5069  1.2348
    8SAPS   H3X 1017   3.140   6.212  10.427 -0.2479 -0.5986  1.1133
    8SAPS   H3Y 1018   3.226   6.142  10.308 -1.0786 -0.7079  0.8883
    8SAPS   C34 1019   3.095   6.307  10.240 -0.3568 -0.3645  0.3979
    8SAPS   H4X 1020   3.149   6.326  10.145 -0.9563 -2.2471 -0.3700
    8SAPS   H4Y 1021   3.069   6.399  10.296  1.3627 -0.5449  1.5497
    8SAPS   C35 1022   2.981   6.215  10.218 -0.1130  0.5217 -0.3695
    8SAPS   H5X 1023   2.938   6.179  10.313  2.6070  0.6185  1.0133
    8SAPS   H5Y 1024   3.011   6.133  10.149  1.3572  0.7298 -0.0156
    8SAPS   C36 1025   2.868   6.284  10.132 -0.2069 -0.4686 -0.5745
    8SAPS   H6X 1026   2.838   6.377  10.185 -1.8750 -1.6737  0.7113
    8SAPS   H6Y 1027   2.779   6.218  10.126  0.4866 -1.5242  0.2940
    8SAPS   C37 1028   2.915   6.343   9.994 -0.7527  0.3333 -0.0501
    8SAPS   H7X 1029   3.001   6.411  10.012 -1.0983  0.6952  0.2419
    8SAPS   H7Y 1030   2.839   6.408   9.946  0.6439  2.0711 -0.0425
    8SAPS   C38 1031   2.961   6.241   9.883  0.1783  0.2985 -0.3208
    8SAPS   H8X 1032   2.868   6.236   9.823  0.2635 -3.8233 -0.3597
    8SAPS   H8Y 1033   2.959   6.143   9.934  0.6743  0.2523 -0.3812
    8SAPS   C39 1034   3.086   6.274   9.813  0.0090 -0.3167  0.0492
    8SAPS   H9X 1035   3.165   6.200   9.839 -0.5267 -1.6709 -1.9761
    8SAPS   H9Y 1036   3.113   6.379   9.835  0.0643 -0.6235  1.5990
    8SAPS  C310 1037   3.062   6.278   9.660 -0.3556 -0.1263 -0.2044
    8SAPS  H10X 1038   2.962   6.323   9.641 -0.7272 -0.7619  0.2168
    8SAPS  H10Y 1039   3.061   6.169   9.637  2.9069 -1.0559  3.0711
    8SAPS  C311 1040   3.178   6.329   9.577  0.4902 -0.7271 -0.3684
    8SAPS  H11X 1041   3.272   6.279   9.608  1.4768  0.7661 -0.8828
    8SAPS  H11Y 1042   3.204   6.435   9.596  0.5150 -0.2805 -2.6104
    8SAPS  C312 1043   3.164   6.315   9.422  0.4959  0.1600 -0.2954
    8SAPS  H12X 1044   3.083   6.383   9.390 -0.8173  0.1619  2.6814
    8SAPS  H12Y 1045   3.133   6.212   9.395  1.0378  0.1724 -1.0183
    8SAPS  C313 1046   3.299   6.335   9.348  0.0497 -0.4525 -0.5582
    8SAPS  H13X 1047   3.370   6.260   9.390  0.4229 -0.6041 -1.4449
    8SAPS  H13Y 1048   3.335   6.441   9.347 -1.9099  0.2870 -2.8278
    8SAPS  C314 1049   3.297   6.292   9.205  0.2047  0.2490  0.0838
    8SAPS  H14X 1050   3.201   6.328   9.162  1.0022  0.8633 -1.2843
    8SAPS  H14Y 1051   3.303   6.181   9.205 -0.2294  0.2208 -0.6743
    8SAPS  C315 1052   3.407   6.350   9.109 -0.1116 -0.3169 -0.5652
    8SAPS  H15X 1053   3.387   6.457   9.090  1.5523 -0.2430 -2.2141
    8SAPS  H15Y 1054   3.386   6.308   9.008  0.3491 -1.4683 -0.2005
    8SAPS  C316 1055   3.548   6.321   9.163  0.1864 -0.1929  0.2308
    8SAPS  H16X 1056   3.545   6.224   9.216  1.3901  0.7677  2.1875
    8SAPS  H16Y 1057   3.569   6.396   9.242 -1.5359 -0.5331  1.0634
    8SAPS  C317 1058   3.671   6.322   9.061  0.1591  0.6295 -0.1039
    8SAPS  H17X 1059   3.679   6.229   9.001 -0.7836  0.4488  0.0477
    8SAPS  H17Y 1060   3.765   6.341   9.118  0.6112  1.2264 -1.0261
    8SAPS  C318 1061   3.652   6.432   8.959 -0.0500 -0.0105  0.1160
    8SAPS  H18X 1062   3.736   6.430   8.886  0.8128  0.2369  1.0932
    8SAPS  H18Y 1063   3.644   6.532   9.007  0.6973  0.2256 -0.2280
    8SAPS  H18Z 1064   3.555   6.420   8.907 -0.6640  2.3158  0.6388
    9SAPS     N 1065   4.582   2.213   6.115  0.2193  0.0117 -0.3970
    9SAPS   HN1 1066   4.548   2.203   6.213  0.2320  2.7823 -0.0276
    9SAPS   HN2 1067   4.497   2.207   6.055  0.4173  1.4033 -0.8687
    9SAPS   HN3 1068   4.651   2.142   6.083  0.6333  1.1156 -2.0984
    9SAPS   C12 1069   4.626   2.351   6.097 -0.1252  0.0011 -0.1972
    9SAPS  H12A 1070   4.710   2.379   6.159 -1.0610  1.8551  0.3238
    9SAPS   C13 1071   4.652   2.388   5.947 -0.2888 -0.1026 -0.6387
    9SAPS  O13A 1072   4.602   2.307   5.864  0.3392  0.6725  0.3019
    9SAPS  O13B 1073   4.675   2.506   5.916 -0.3157 -1.0866  0.1007
    9SAPS   C11 1074   4.512   2.454   6.146  0.4787 -0.6032 -0.8080
    9SAPS  H11A 1075   4.434   2.457   6.066  0.2598 -0.5076 -0.5907
    9SAPS  H11B 1076   4.566   2.551   6.149  2.2822 -1.5573 -1.0615
    9SAPS     P 1077   4.329   2.502   6.326  0.0307 -0.2131 -0.2286
    9SAPS   O13 1078   4.345   2.647   6.298 -0.2162 -0.3362  0.2264
    9SAPS   O14 1079   4.204   2.439   6.287 -0.1413  0.5914 -0.3061
    9SAPS   O12 1080   4.447   2.416   6.267  0.2531 -0.2811 -0.2491
    9SAPS   O11 1081   4.344   2.485   6.475  0.0242  0.1764 -0.7374
    9SAPS    C1 1082   4.345   2.353   6.529  0.1038  0.2773 -0.1277
    9SAPS    HA 1083   4.244   2.307   6.541  0.6341 -1.0589 -0.5766
    9SAPS    HB 1084   4.395   2.283   6.459  1.8361  2.8699 -1.6403
    9SAPS    C2 1085   4.412   2.359   6.670  0.8589 -0.2693 -0.0677
    9SAPS    HS 1086   4.356   2.437   6.726  0.3109 -1.1313  0.6136
    9SAPS   O21 1087   4.549   2.400   6.659  0.2701 -0.0165  0.5340
    9SAPS   C21 1088   4.572   2.522   6.693  0.6042 -0.0006 -0.0682
    9SAPS   O22 1089   4.494   2.615   6.715  0.3331  0.6454 -0.5647
    9SAPS   C22 1090   4.723   2.539   6.711  0.5186  0.2545 -0.2343
    9SAPS   H2R 1091   4.778   2.443   6.707  0.5175 -0.0213  3.3518
    9SAPS   H2S 1092   4.752   2.599   6.622  0.9219  1.0812  0.4421
    9SAPS    C3 1093   4.379   2.226   6.745 -0.0949 -0.4400  0.3700
    9SAPS    HX 1094   4.443   2.149   6.697 -0.4604 -0.3669 -0.2383
    9SAPS    HY 1095   4.272   2.216   6.719  0.0688  0.0366 -0.5282
    9SAPS   O31 1096   4.407   2.241   6.891  0.1012 -0.2643  0.2845
    9SAPS   C31 1097   4.376   2.126   6.954 -0.0786 -0.1356  0.1883
    9SAPS   O32 1098   4.326   2.024   6.899 -0.1695 -0.2294 -0.4192
    9SAPS   C32 1099   4.415   2.141   7.103 -0.3061 -1.0184  0.3839
    9SAPS   H2X 1100   4.360   2.230   7.141  0.7332 -0.6841  1.1755
    9SAPS   H2Y 1101   4.522   2.168   7.115  0.4852 -1.8870 -3.4584
    9SAPS   C23 1102   4.761   2.609   6.851 -0.3959  0.1845 -0.2521
    9SAPS   H3R 1103   4.715   2.710   6.857 -0.6897  0.0767 -0.5996
    9SAPS   H3S 1104   4.868   2.630   6.835  0.5161 -0.7088  3.7317
    9SAPS   C24 1105   4.721   2.517   6.967  0.3489  0.1935 -0.2649
    9SAPS   H4R 1106   4.776   2.421   6.955 -1.3012 -1.0495  1.5937
    9SAPS   H4S 1107   4.615   2.485   6.957  0.4323  0.2464 -1.4071
    9SAPS   C25 1108   4.764   2.568   7.102  0.6387  0.7695 -0.4320
    9SAPS   H5R 1109   4.856   2.627   7.116  0.5378  0.4301  2.2488
    9SAPS   C26 1110   4.693   2.553   7.219  0.3127  0.7217 -0.3539
    9SAPS   H6R 1111   4.733   2.592   7.314  0.3930  0.7554 -0.4012
    9SAPS   C27 1112   4.564   2.476   7.254  0.3398  0.8266  0.6954
    9SAPS   H7R 1113   4.596   2.392   7.320  0.4296 -0.0433 -0.4278
    9SAPS   H7S 1114   4.522   2.437   7.159 -0.0235  3.6239 -0.3858
    9SAPS   C28 1115   4.462   2.555   7.328 -0.0353 -0.2647 -0.0048
    9SAPS   H8R 1116   4.465   2.663   7.308  2.3884 -0.5877 -2.0286
    9SAPS   C29 1117   4.388   2.517   7.433 -0.7637 -0.1896 -0.4781
    9SAPS   H9R 1118   4.328   2.590   7.488  2.9610  0.8779  2.5952
    9SAPS  C210 1119   4.374   2.371   7.479 -0.2844  1.4772  0.1924
    9SAPS  H10R 1120   4.359   2.366   7.589  2.2643 -1.0972  0.5350
    9SAPS  H10S 1121   4.473   2.321   7.472 -0.8299  0.5306 -1.2765
    9SAPS  C211 1122   4.272   2.289   7.402 -0.0605  0.5820 -0.2938
    9SAPS  H11R 1123   4.275   2.308   7.294  1.4328  0.3787 -0.3036
    9SAPS  C212 1124   4.192   2.192   7.448  0.2255  0.5523 -0.0184
    9SAPS  H12R 1125   4.143   2.134   7.368  2.7929 -1.9371  0.0631
    9SAPS  C213 1126   4.168   2.156   7.592  0.0969 -0.2391 -0.2779
    9SAPS  H13R 1127   4.080   2.214   7.627  1.1056  1.1405  0.0381
    9SAPS  H13S 1128   4.248   2.179   7.666  0.2293 -2.4027  0.3220
    9SAPS  C214 1129   4.141   2.003   7.589 -0.1059  0.1291 -0.6995
    9SAPS  H14R 1130   4.171   1.953   7.496 -3.2319 -1.8889 -0.7635
    9SAPS  C215 1131   4.075   1.928   7.678  0.7436  0.6553  0.8607
    9SAPS  H15R 1132   4.071   1.819   7.667 -1.8373  0.6345  1.3965
    9SAPS  C216 1133   4.015   1.979   7.805  0.0033  0.3591 -0.3705
    9SAPS  H16R 1134   3.918   1.925   7.816 -0.8282  1.8751  0.0043
    9SAPS  H16S 1135   3.996   2.088   7.796  0.0938  0.2895 -1.6826
    9SAPS  C217 1136   4.090   1.944   7.938  0.3910  0.7804  0.9517
    9SAPS  H17R 1137   4.177   2.012   7.941  1.3193 -0.3268  0.0413
    9SAPS  H17S 1138   4.128   1.840   7.944  2.3869  1.5148  1.9370
    9SAPS  C218 1139   3.984   1.978   8.046  0.2043  0.1690 -0.8906
    9SAPS  H18R 1140   3.887   1.928   8.026 -0.6204  1.1722  0.4543
    9SAPS  H18S 1141   3.962   2.087   8.048 -0.1496  0.0967 -0.7920
    9SAPS  C219 1142   4.033   1.926   8.183  0.2815 -0.4877 -0.3522
    9SAPS  H19R 1143   4.126   1.980   8.212 -0.3655 -1.1814  3.4674
    9SAPS  H19S 1144   4.060   1.819   8.172  2.1624 -0.2461  1.1914
    9SAPS  C220 1145   3.938   1.938   8.299 -0.0361  0.3754 -0.6465
    9SAPS  H20R 1146   3.838   1.893   8.278  1.5701 -2.9444 -2.0196
    9SAPS  H20S 1147   3.918   2.043   8.327 -0.6228  1.2976 -4.0707
    9SAPS  H20T 1148   3.978   1.888   8.390 -1.4369 -1.6667 -1.0760
    9SAPS   C33 1149   4.377   2.014   7.192  0.5557 -0.5584  0.2357
    9SAPS   H3X 1150   4.275   1.978   7.165  0.3638  0.7249 -0.8787
    9SAPS   H3Y 1151   4.388   2.048   7.297 -1.6416 -0.5923  0.5242
    9SAPS   C34 1152   4.471   1.891   7.171  0.0333 -0.4574  0.3390
    9SAPS   H4X 1153   4.579   1.916   7.182 -0.1960 -0.4666  3.7864
    9SAPS   H4Y 1154   4.466   1.860   7.065 -1.6611  3.2415 -0.8380
    9SAPS   C35 1155   4.446   1.770   7.266 -0.1562 -0.5332  0.7222
    9SAPS   H5X 1156   4.496   1.675   7.240 -0.0555 -1.2225  3.1801
    9SAPS   H5Y 1157   4.336   1.751   7.260 -0.6946  1.1105  3.5250
    9SAPS   C36 1158   4.470   1.785   7.414 -0.2291 -0.9097  0.1357
    9SAPS   H6X 1159   4.430   1.883   7.448 -2.1361 -1.8884  0.8592
    9SAPS   H6Y 1160   4.574   1.776   7.451  0.0662 -0.7513 -0.6382
    9SAPS   C37 1161   4.404   1.674   7.493  0.4513  0.6161  0.2205
    9SAPS   H7X 1162   4.450   1.579   7.458  1.7509  1.6303 -0.9052
    9SAPS   H7Y 1163   4.293   1.669   7.488  0.3728  0.9900  1.4373
    9SAPS   C38 1164   4.438   1.689   7.638  0.4879  0.1430  0.0414
    9SAPS   H8X 1165   4.389   1.788   7.653  1.2699  0.5637 -0.1114
    9SAPS   H8Y 1166   4.548   1.700   7.652  0.6438 -1.4062  0.2311
    9SAPS   C39 1167   4.365   1.604   7.751  0.1640 -0.3564  0.6945
    9SAPS   H9X 1168   4.402   1.499   7.749  0.3516 -0.3035 -1.9693
    9SAPS   H9Y 1169   4.262   1.600   7.710 -0.4625  4.6178  1.1582
    9SAPS  C310 1170   4.364   1.660   7.897  0.0234 -0.5045 -0.0585
    9SAPS  H10X 1171   4.327   1.765   7.905 -1.1491 -0.9638  0.7730
    9SAPS  H10Y 1172   4.471   1.660   7.927 -0.6841 -0.8407  2.7903
    9SAPS  C311 1173   4.289   1.582   7.997  0.3833  0.2991 -0.1195
    9SAPS  H11X 1174   4.330   1.480   7.991  0.8384  0.5475 -1.5923
    9SAPS  H11Y 1175   4.184   1.578   7.959  0.6656 -3.3949 -0.8879
    9SAPS  C312 1176   4.309   1.627   8.139 -0.5259 -0.2404  1.0437
    9SAPS  H12X 1177   4.247   1.719   8.147  0.3818  0.2170  3.4820
    9SAPS  H12Y 1178   4.414   1.658   8.157 -0.5806  1.0578 -0.6089
    9SAPS  C313 1179   4.252   1.528   8.232  0.8685 -0.5485  0.0254
    9SAPS  H13X 1180   4.268   1.564   8.336  0.8244  2.1417 -0.8126
    9SAPS  H13Y 1181   4.285   1.422   8.229 -0.2619 -0.9148  0.1089
    9SAPS  C314 1182   4.105   1.518   8.227  0.7906  0.1174 -0.1558
    9SAPS  H14X 1183   4.070   1.495   8.125  0.5152  0.7332 -0.2057
    9SAPS  H14Y 1184   4.053   1.612   8.254 -2.5039 -1.1161 -1.7192
    9SAPS  C315 1185   4.048   1.403   8.320 -0.2539  0.1416  0.1711
    9SAPS  H15X 1186   4.092   1.420   8.421  0.9044 -1.4595 -0.0206
    9SAPS  H15Y 1187   4.083   1.303   8.286  2.4964  1.5785 -1.6136
    9SAPS  C316 1188   3.892   1.404   8.313  0.4311  0.3859 -0.3711
    9SAPS  H16X 1189   3.845   1.402   8.213 -3.2017  0.7774  1.1543
    9SAPS  H16Y 1190   3.863   1.506   8.349  0.7646  1.0383 -1.8890
    9SAPS  C317 1191   3.817   1.291   8.397  0.7828 -1.1071  0.4751
    9SAPS  H17X 1192   3.846   1.192   8.355 -2.4245 -1.7643 -0.4725
    9SAPS  H17Y 1193   3.708   1.306   8.384  0.9564 -1.2076 -1.3314
    9SAPS  C318 1194   3.837   1.292   8.545  1.1715  0.2809 -0.3346
    9SAPS  H18X 1195   3.811   1.392   8.586  0.2058  0.5014 -1.4440
    9SAPS  H18Y 1196   3.944   1.275   8.572  1.3574 -1.7698 -2.1408
    9SAPS  H18Z 1197   3.780   1.208   8.590  1.4467  0.6031  0.6451
   10SAPS     N 1198   4.475   1.051   6.325  0.1661  0.3255  0.3453
   10SAPS   HN1 1199   4.533   1.007   6.250  0.1841 -0.4758  0.8147
   10SAPS   HN2 1200   4.536   1.118   6.375  0.6783 -1.0323  1.6051
   10SAPS   HN3 1201   4.440   0.973   6.385  0.2167 -0.4272 -0.5630
   10SAPS   C12 1202   4.376   1.122   6.246  0.2592 -0.5811 -0.1840
   10SAPS  H12A 1203   4.348   1.206   6.307 -0.4360 -2.5671  2.4372
   10SAPS   C13 1204   4.422   1.181   6.111  0.2756 -0.1421 -0.6095
   10SAPS  O13A 1205   4.544   1.195   6.086 -0.1053  0.0763 -0.8105
   10SAPS  O13B 1206   4.343   1.255   6.047 -0.0697 -0.1471 -0.8272
   10SAPS   C11 1207   4.252   1.038   6.224  0.4406  0.0753  0.0152
   10SAPS  H11A 1208   4.278   0.952   6.158  2.2850 -0.1136  0.9219
   10SAPS  H11B 1209   4.181   1.103   6.168 -1.1311 -1.5595  0.0118
   10SAPS     P 1210   4.085   1.072   6.430 -0.2479  0.3536  0.6716
   10SAPS   O13 1211   4.097   1.210   6.378 -1.2173 -0.5313  0.1305
   10SAPS   O14 1212   3.953   1.005   6.422 -0.0470 -0.3250 -0.2503
   10SAPS   O12 1213   4.193   0.988   6.345  0.4378 -0.6157 -0.1900
   10SAPS   O11 1214   4.134   1.074   6.581  0.2808  0.8766  0.4985
   10SAPS    C1 1215   4.175   0.956   6.650  0.7159  0.0566  0.7056
   10SAPS    HA 1216   4.104   0.926   6.729 -0.1087 -1.5462 -0.5636
   10SAPS    HB 1217   4.169   0.864   6.587 -1.4373 -1.2110  2.6287
   10SAPS    C2 1218   4.316   0.983   6.717  0.0864 -0.3749  0.0218
   10SAPS    HS 1219   4.397   0.979   6.641  2.0054  1.3690  1.8770
   10SAPS   O21 1220   4.329   0.869   6.807 -0.2113  0.0798 -0.2793
   10SAPS   C21 1221   4.452   0.855   6.860  0.7795  0.0440  0.1692
   10SAPS   O22 1222   4.547   0.927   6.834  0.0468 -0.0620  0.0606
   10SAPS   C22 1223   4.456   0.745   6.974 -0.5553  0.0196 -0.5611
   10SAPS   H2R 1224   4.368   0.682   6.949 -0.9099  0.0140  0.6466
   10SAPS   H2S 1225   4.547   0.690   6.941 -1.3673  0.4487 -3.9238
   10SAPS    C3 1226   4.331   1.124   6.796  0.6494  0.9278  0.2227
   10SAPS    HX 1227   4.312   1.210   6.727 -1.1007  0.8009  0.4919
   10SAPS    HY 1228   4.433   1.132   6.840  0.1592  0.9908  1.3942
   10SAPS   O31 1229   4.233   1.119   6.898 -0.0829 -0.3496  0.0985
   10SAPS   C31 1230   4.235   1.235   6.969  0.0342  0.0083  0.3434
   10SAPS   O32 1231   4.321   1.320   6.948  0.2342  0.2213 -0.5237
   10SAPS   C32 1232   4.118   1.225   7.073  0.1413 -0.0930 -0.7194
   10SAPS   H2X 1233   4.115   1.122   7.114 -3.0600  0.8012  1.7099
   10SAPS   H2Y 1234   4.028   1.223   7.007 -0.6552  3.7138  0.0150
   10SAPS   C23 1235   4.452   0.806   7.116  0.1294 -0.5067  0.2018
   10SAPS   H3R 1236   4.527   0.888   7.120 -1.7863  1.3150  0.4459
   10SAPS   H3S 1237   4.477   0.724   7.186  0.0100 -0.1933  0.6115
   10SAPS   C24 1238   4.307   0.867   7.148 -0.8544 -1.0635  0.8203
   10SAPS   H4R 1239   4.281   0.956   7.087 -0.3296  0.4228  2.6745
   10SAPS   H4S 1240   4.313   0.892   7.256 -0.5321 -0.4712  0.6662
   10SAPS   C25 1241   4.195   0.771   7.127 -0.8572 -0.0862  0.5225
   10SAPS   H5R 1242   4.154   0.786   7.026  0.4915 -0.8534 -0.1726
   10SAPS   C26 1243   4.156   0.666   7.204  0.4673 -0.8469 -0.1607
   10SAPS   H6R 1244   4.076   0.598   7.172 -0.3327 -0.0846  0.1713
   10SAPS   C27 1245   4.222   0.622   7.332  0.4786  0.1046 -0.4032
   10SAPS   H7R 1246   4.301   0.687   7.374 -1.0394  0.0580  2.8788
   10SAPS   H7S 1247   4.273   0.527   7.305 -0.8054 -0.3178 -1.4645
   10SAPS   C28 1248   4.111   0.594   7.437 -0.0897 -0.0603  0.0920
   10SAPS   H8R 1249   4.010   0.562   7.407 -0.1971  0.1119  0.2665
   10SAPS   C29 1250   4.120   0.607   7.570  0.2082 -0.5521  0.1603
   10SAPS   H9R 1251   4.043   0.578   7.643  0.1473 -1.4284 -0.2350
   10SAPS  C210 1252   4.244   0.653   7.643 -0.9568 -0.1726  1.0302
   10SAPS  H10R 1253   4.302   0.724   7.581 -1.3112  1.7028  2.7695
   10SAPS  H10S 1254   4.309   0.563   7.643 -1.4140 -0.6044 -1.5904
   10SAPS  C211 1255   4.236   0.714   7.777 -0.0587  0.3060 -0.0822
   10SAPS  H11R 1256   4.277   0.816   7.772 -0.9063  0.6348 -0.6382
   10SAPS  C212 1257   4.199   0.653   7.891  0.6884 -0.9046  0.3216
   10SAPS  H12R 1258   4.189   0.720   7.978 -1.4079 -0.2424 -0.3475
   10SAPS  C213 1259   4.141   0.520   7.912  0.6025  0.1608  0.0877
   10SAPS  H13R 1260   4.144   0.461   7.818 -0.0121  1.8762 -1.0567
   10SAPS  H13S 1261   4.031   0.528   7.927  0.6985  0.8708  0.4525
   10SAPS  C214 1262   4.198   0.451   8.036 -0.3553  0.1346 -0.1848
   10SAPS  H14R 1263   4.296   0.405   8.019 -0.4662  1.0045 -4.6800
   10SAPS  C215 1264   4.152   0.457   8.167 -0.1593  0.3694 -0.2865
   10SAPS  H15R 1265   4.202   0.404   8.249 -3.3473  0.7270  2.1028
   10SAPS  C216 1266   4.031   0.526   8.214 -0.1171  0.6256  0.8083
   10SAPS  H16R 1267   3.981   0.469   8.296 -0.7441  0.7699  0.5319
   10SAPS  H16S 1268   3.960   0.546   8.131  0.3550  1.7444  0.6573
   10SAPS  C217 1269   4.065   0.662   8.271 -0.4232 -0.7661 -0.7892
   10SAPS  H17R 1270   4.084   0.747   8.202  0.6150 -0.0503  0.3546
   10SAPS  H17S 1271   4.159   0.651   8.329 -0.7189 -1.4553 -0.4317
   10SAPS  C218 1272   3.964   0.717   8.378 -0.8222  0.6587 -0.0805
   10SAPS  H18R 1273   3.930   0.634   8.444 -2.3419 -0.4403 -2.1142
   10SAPS  H18S 1274   3.869   0.728   8.321 -1.1581  1.8886  0.6961
   10SAPS  C219 1275   4.017   0.843   8.453  0.2515 -0.3597 -0.5904
   10SAPS  H19R 1276   4.046   0.915   8.374  4.8457 -2.1296 -0.8497
   10SAPS  H19S 1277   4.102   0.809   8.516 -0.0809 -0.7436 -0.3442
   10SAPS  C220 1278   3.913   0.906   8.547 -0.7132  0.0686  0.7838
   10SAPS  H20R 1279   3.936   1.014   8.554  0.3743  0.0706 -1.9274
   10SAPS  H20S 1280   3.914   0.855   8.646 -1.6827  0.1719  0.8620
   10SAPS  H20T 1281   3.807   0.890   8.517 -0.6451 -1.3558  1.2168
   10SAPS   C33 1282   4.106   1.333   7.179  0.3082  0.4451 -0.0208
   10SAPS   H3X 1283   4.004   1.373   7.159  0.4017  0.8394  0.2838
   10SAPS   H3Y 1284   4.174   1.421   7.178 -0.3005  0.9532  1.2545
   10SAPS   C34 1285   4.110   1.269   7.316 -1.2297  0.0399 -0.4979
   10SAPS   H4X 1286   4.053   1.174   7.312  2.6178 -2.4721 -2.0662
   10SAPS   H4Y 1287   4.073   1.346   7.387  3.1451  0.6227  1.5423
   10SAPS   C35 1288   4.262   1.237   7.344  0.8039 -0.5571  0.8921
   10SAPS   H5X 1289   4.323   1.329   7.347 -0.3112  0.1978  0.7859
   10SAPS   H5Y 1290   4.302   1.181   7.256 -0.4010  0.3374 -0.2539
   10SAPS   C36 1291   4.282   1.179   7.478  0.0345 -0.3609  0.4769
   10SAPS   H6X 1292   4.390   1.157   7.492  0.5190 -0.0063 -2.2594
   10SAPS   H6Y 1293   4.230   1.081   7.479  0.8114 -0.8147 -1.1419
   10SAPS   C37 1294   4.234   1.270   7.593  0.8791  0.7374 -0.0400
   10SAPS   H7X 1295   4.130   1.303   7.572  0.6965 -0.0724 -0.4314
   10SAPS   H7Y 1296   4.305   1.356   7.595  2.2259 -0.3399 -0.0717
   10SAPS   C38 1297   4.249   1.203   7.726  0.1950 -0.0386 -0.1380
   10SAPS   H8X 1298   4.182   1.116   7.740  0.2744 -0.2580 -1.0397
   10SAPS   H8Y 1299   4.212   1.278   7.799  3.6758 -0.6164  2.4482
   10SAPS   C39 1300   4.384   1.170   7.773  0.3063  0.1415 -0.1584
   10SAPS   H9X 1301   4.452   1.257   7.761  1.2320 -0.2646  1.8111
   10SAPS   H9Y 1302   4.424   1.076   7.732 -0.7736 -0.8192  0.9144
   10SAPS  C310 1303   4.384   1.150   7.925  0.4650  0.0907 -0.4468
   10SAPS  H10X 1304   4.314   1.224   7.970  1.5985  1.7813 -1.3406
   10SAPS  H10Y 1305   4.490   1.175   7.950  1.1644 -1.9969 -1.1558
   10SAPS  C311 1306   4.351   1.006   7.970  0.0477 -0.4745  0.6068
   10SAPS  H11X 1307   4.413   0.937   7.910 -0.7400 -1.0705  0.4602
   10SAPS  H11Y 1308   4.250   0.970   7.941 -0.0402  1.1158 -1.3003
   10SAPS  C312 1309   4.389   0.985   8.116 -0.6118 -0.2494  0.4570
   10SAPS  H12X 1310   4.492   1.018   8.143 -0.1271 -1.5607  0.2907
   10SAPS  H12Y 1311   4.387   0.874   8.125  0.8781 -0.5954 -2.2062
   10SAPS  C313 1312   4.287   1.035   8.228 -0.1299  0.0398  0.2415
   10SAPS  H13X 1313   4.204   0.962   8.221  0.9768 -1.2123 -0.4409
   10SAPS  H13Y 1314   4.250   1.135   8.198  4.3551  1.5769 -0.9622
   10SAPS  C314 1315   4.347   1.040   8.370  0.4154 -0.6712  0.6079
   10SAPS  H14X 1316   4.272   1.085   8.439  0.8592 -0.1238  0.7439
   10SAPS  H14Y 1317   4.439   1.101   8.359 -1.5974  2.1859 -2.1044
   10SAPS  C315 1318   4.391   0.903   8.420 -0.0232 -0.6357 -1.2284
   10SAPS  H15X 1319   4.451   0.855   8.340  0.3008  0.0295 -1.3846
   10SAPS  H15Y 1320   4.312   0.829   8.449  2.0334 -2.2241  0.6857
   10SAPS  C316 1321   4.476   0.913   8.545 -0.1655 -0.4316  0.3565
   10SAPS  H16X 1322   4.555   0.991   8.550 -0.5081  0.0254 -0.9825
   10SAPS  H16Y 1323   4.518   0.814   8.575  0.0595 -0.8362 -1.1621
   10SAPS  C317 1324   4.383   0.962   8.658 -0.6308  0.1628  0.4282
   10SAPS  H17X 1325   4.290   0.900   8.655 -0.6087  0.1575 -0.4552
   10SAPS  H17Y 1326   4.343   1.064   8.643 -0.3503  0.6907  2.9236
   10SAPS  C318 1327   4.443   0.960   8.797  0.3959  0.7093  0.5306
   10SAPS  H18X 1328   4.554   0.967   8.796  0.4998  0.0912 -2.5186
   10SAPS  H18Y 1329   4.423   0.859   8.839 -1.1168  1.2138  1.0948
   10SAPS  H18Z 1330   4.396   1.038   8.861 -0.3707 -0.3629  1.3083
   11SAPS     N 1331   6.081   3.622   5.887  0.0834 -0.3737  0.0102
   11SAPS   HN1 1332   6.027   3.710   5.900  2.4068  1.6751 -2.8964
   11SAPS   HN2 1333   6.003   3.558   5.912  0.1216  0.0496  1.2919
   11SAPS   HN3 1334   6.151   3.629   5.965 -1.6879 -0.9890  1.7347
   11SAPS   C12 1335   6.135   3.598   5.747  0.0084 -0.0971 -1.1921
   11SAPS  H12A 1336   6.197   3.510   5.753 -1.1404 -0.9121 -1.1392
   11SAPS   C13 1337   6.017   3.574   5.651 -0.3903  0.0210 -0.6937
   11SAPS  O13A 1338   5.900   3.570   5.695 -0.1666  0.3357  0.1233
   11SAPS  O13B 1339   6.049   3.536   5.534  0.4379 -0.0378 -0.6550
   11SAPS   C11 1340   6.217   3.720   5.687 -0.0772 -0.1698  0.1230
   11SAPS  H11A 1341   6.154   3.812   5.697 -0.7173 -0.4444 -1.1753
   11SAPS  H11B 1342   6.228   3.695   5.580  0.9791 -1.6745  0.5605
   11SAPS     P 1343   6.470   3.801   5.678 -0.1195  0.1311  0.3038
   11SAPS   O13 1344   6.559   3.704   5.615  0.2585 -0.3099  0.1633
   11SAPS   O14 1345   6.427   3.917   5.601 -0.1227 -0.5418 -0.1643
   11SAPS   O12 1346   6.345   3.734   5.744 -0.6726  0.0124 -0.0656
   11SAPS   O11 1347   6.547   3.844   5.808  0.7280  0.3064  0.4086
   11SAPS    C1 1348   6.473   3.927   5.904  0.7036 -0.4039  0.1069
   11SAPS    HA 1349   6.430   4.015   5.853  0.0222 -1.1953 -0.7334
   11SAPS    HB 1350   6.393   3.861   5.944 -1.9960  1.0530 -2.4680
   11SAPS    C2 1351   6.572   3.973   6.022 -0.2900 -0.5021 -0.7867
   11SAPS    HS 1352   6.639   4.054   5.986  0.3788 -1.1839 -1.1085
   11SAPS   O21 1353   6.650   3.862   6.068  0.0797  0.0109 -0.2954
   11SAPS   C21 1354   6.761   3.897   6.134  0.4160  1.2207 -0.1068
   11SAPS   O22 1355   6.813   4.007   6.145  0.1920  0.5304 -0.2559
   11SAPS   C22 1356   6.829   3.768   6.198 -0.2743  0.1081 -0.3665
   11SAPS   H2R 1357   6.740   3.712   6.235 -0.3406 -0.0974 -0.8404
   11SAPS   H2S 1358   6.885   3.711   6.121 -0.7687  1.9905 -2.2138
   11SAPS    C3 1359   6.486   4.024   6.144 -0.4578 -0.0463  0.0575
   11SAPS    HX 1360   6.455   3.931   6.197  1.7212  0.0605  1.6321
   11SAPS    HY 1361   6.396   4.078   6.106 -1.6208 -2.1759 -0.3548
   11SAPS   O31 1362   6.568   4.105   6.236 -0.0759 -0.2019 -0.4891
   11SAPS   C31 1363   6.606   4.223   6.190  0.3571  0.1974 -0.3017
   11SAPS   O32 1364   6.565   4.273   6.086 -0.0629 -0.2852  0.1397
   11SAPS   C32 1365   6.705   4.278   6.286 -0.6550 -0.2859  0.3252
   11SAPS   H2X 1366   6.755   4.352   6.221 -0.3939 -2.3473 -1.9426
   11SAPS   H2Y 1367   6.772   4.198   6.322 -0.8355  0.0284  1.4202
   11SAPS   C23 1368   6.916   3.784   6.331 -0.0989  0.0545 -0.5196
   11SAPS   H3R 1369   6.863   3.849   6.404  2.2031  1.2505  0.1808
   11SAPS   H3S 1370   7.012   3.838   6.320  1.3700 -1.7509  2.1451
   11SAPS   C24 1371   6.941   3.640   6.389 -0.3103  0.1967  0.6063
   11SAPS   H4R 1372   7.007   3.580   6.323 -0.9446 -0.8296  0.8969
   11SAPS   H4S 1373   6.840   3.597   6.406  0.3475 -0.5704  2.9277
   11SAPS   C25 1374   7.012   3.658   6.518  0.0637 -1.2848 -0.1722
   11SAPS   H5R 1375   7.105   3.717   6.513  1.3838 -3.1768  0.6899
   11SAPS   C26 1376   6.968   3.618   6.638 -0.1378 -0.3338  0.5745
   11SAPS   H6R 1377   7.039   3.621   6.723  0.7861  3.0263 -0.1256
   11SAPS   C27 1378   6.843   3.538   6.658  0.0516 -0.2576  0.0849
   11SAPS   H7R 1379   6.836   3.475   6.567  0.5812  0.1678 -0.2563
   11SAPS   H7S 1380   6.750   3.599   6.651  0.3835  0.1665 -0.7033
   11SAPS   C28 1381   6.854   3.446   6.784 -0.7172 -1.1219  1.1733
   11SAPS   H8R 1382   6.910   3.354   6.764 -0.6680 -1.1167  1.2833
   11SAPS   C29 1383   6.790   3.461   6.902  0.4059  0.1565  0.5523
   11SAPS   H9R 1384   6.816   3.393   6.985  1.3543 -1.5688 -1.0672
   11SAPS  C210 1385   6.689   3.568   6.928 -0.1966 -0.5242  0.2409
   11SAPS  H10R 1386   6.660   3.630   6.840  1.3619  1.5716  1.1211
   11SAPS  H10S 1387   6.742   3.653   6.975 -1.9831  1.3766 -1.0098
   11SAPS  C211 1388   6.564   3.524   6.992  0.8715 -0.2665 -0.1075
   11SAPS  H11R 1389   6.488   3.486   6.923 -0.0461  1.3708 -0.0561
   11SAPS  C212 1390   6.534   3.519   7.126 -0.0368 -0.0194 -0.0644
   11SAPS  H12R 1391   6.434   3.480   7.151  0.1711 -0.0035  0.8280
   11SAPS  C213 1392   6.610   3.563   7.246  0.0387  0.3607  0.1288
   11SAPS  H13R 1393   6.540   3.598   7.325  1.2351  0.1665  1.3143
   11SAPS  H13S 1394   6.675   3.650   7.223  0.3209 -0.2071 -1.3826
   11SAPS  C214 1395   6.696   3.445   7.297 -0.1245 -0.2171  0.2734
   11SAPS  H14R 1396   6.793   3.440   7.247 -0.9857  0.0817 -1.5232
   11SAPS  C215 1397   6.674   3.360   7.395  0.4293  0.2861  0.1528
   11SAPS  H15R 1398   6.745   3.279   7.414  0.6069  0.8028  1.8032
   11SAPS  C216 1399   6.551   3.349   7.486 -0.3648  0.2395 -0.3299
   11SAPS  H16R 1400   6.526   3.243   7.507  1.3666 -0.1830 -0.2286
   11SAPS  H16S 1401   6.466   3.399   7.435 -2.1138 -2.1995  0.0669
   11SAPS  C217 1402   6.563   3.412   7.623  0.0723 -0.2033  0.3537
   11SAPS  H17R 1403   6.464   3.425   7.673 -1.7009 -2.4805 -2.2722
   11SAPS  H17S 1404   6.598   3.515   7.602 -0.8672 -0.1504 -1.1111
   11SAPS  C218 1405   6.661   3.334   7.709 -1.0172 -0.1193 -0.5053
   11SAPS  H18R 1406   6.759   3.317   7.660 -0.4726 -0.7064  0.7521
   11SAPS  H18S 1407   6.607   3.238   7.724 -1.1507  0.2213  1.5540
   11SAPS  C219 1408   6.683   3.406   7.843  0.8775  0.5810 -0.5663
   11SAPS  H19R 1409   6.722   3.506   7.815  2.6436 -0.4400 -1.9942
   11SAPS  H19S 1410   6.758   3.348   7.901 -0.3269 -0.1086  0.3585
   11SAPS  C220 1411   6.554   3.428   7.934 -1.1608 -0.3589  0.3304
   11SAPS  H20R 1412   6.487   3.505   7.891  0.3677  0.7612 -0.1534
   11SAPS  H20S 1413   6.586   3.457   8.036 -1.5095  0.5939  0.1834
   11SAPS  H20T 1414   6.489   3.338   7.938 -1.3580 -0.3885 -1.8953
   11SAPS   C33 1415   6.650   4.369   6.402  0.5741  0.8753 -0.5673
   11SAPS   H3X 1416   6.585   4.323   6.481  0.4016 -0.7270 -1.5932
   11SAPS   H3Y 1417   6.593   4.454   6.359 -1.8376  1.4713  3.2507
   11SAPS   C34 1418   6.772   4.414   6.491  0.4779 -0.2244 -0.7856
   11SAPS   H4X 1419   6.818   4.498   6.435 -0.8041  0.3980 -0.9621
   11SAPS   H4Y 1420   6.843   4.329   6.492  0.8409  0.0746 -0.8262
   11SAPS   C35 1421   6.732   4.461   6.633 -0.1294  0.2922 -0.5939
   11SAPS   H5X 1422   6.714   4.376   6.703  1.3791  1.7566  1.6910
   11SAPS   H5Y 1423   6.635   4.513   6.620 -1.2428 -1.9225 -1.9340
   11SAPS   C36 1424   6.842   4.536   6.709 -0.3743  0.3146  0.0416
   11SAPS   H6X 1425   6.857   4.631   6.654 -1.8951  0.7836  0.3903
   11SAPS   H6Y 1426   6.932   4.471   6.707 -1.2977 -1.0294  0.6631
   11SAPS   C37 1427   6.805   4.567   6.857 -0.0655 -0.0520  0.0475
   11SAPS   H7X 1428   6.753   4.479   6.899 -1.3669  1.2441  1.2584
   11SAPS   H7Y 1429   6.731   4.650   6.852 -0.3047 -0.0725  2.1716
   11SAPS   C38 1430   6.927   4.596   6.942  0.5328 -0.0746  0.0191
   11SAPS   H8X 1431   6.974   4.685   6.894 -0.9883 -0.4808 -2.3741
   11SAPS   H8Y 1432   6.988   4.507   6.914 -2.1403 -1.8365 -0.5590
   11SAPS   C39 1433   6.910   4.617   7.092  0.5969  0.4282 -0.1216
   11SAPS   H9X 1434   6.835   4.699   7.099 -0.5884 -0.2296 -3.1589
   11SAPS   H9Y 1435   7.011   4.642   7.130  0.2269  0.8292  0.6051
   11SAPS  C310 1436   6.864   4.486   7.162  0.0293 -0.0933 -0.5991
   11SAPS  H10X 1437   6.905   4.395   7.114 -0.8804 -0.1965 -1.1998
   11SAPS  H10Y 1438   6.753   4.477   7.158 -0.3089  0.6707  3.0889
   11SAPS  C311 1439   6.910   4.495   7.310  0.5348  0.3777 -0.3294
   11SAPS  H11X 1440   6.852   4.581   7.350 -0.0339 -0.4594  0.6656
   11SAPS  H11Y 1441   7.015   4.533   7.306  0.0301  1.8790 -0.1185
   11SAPS  C312 1442   6.897   4.362   7.396 -0.2589  0.0929 -0.3472
   11SAPS  H12X 1443   6.933   4.274   7.339 -1.2906  1.0038 -2.5126
   11SAPS  H12Y 1444   6.788   4.351   7.410 -0.1898 -0.5740 -0.3282
   11SAPS  C313 1445   6.953   4.382   7.534 -0.6843 -0.0735  0.2148
   11SAPS  H13X 1446   7.064   4.390   7.527 -0.2755 -4.0452 -0.2439
   11SAPS  H13Y 1447   6.927   4.288   7.589 -3.8650  1.4050  1.4628
   11SAPS  C314 1448   6.901   4.496   7.614 -0.1289  0.2302 -0.3504
   11SAPS  H14X 1449   6.791   4.477   7.619 -0.3111  1.2098 -0.3480
   11SAPS  H14Y 1450   6.918   4.591   7.558 -0.2910  0.2551 -0.3585
   11SAPS  C315 1451   6.964   4.504   7.754  0.2303  0.1514  0.0661
   11SAPS  H15X 1452   7.074   4.517   7.746  0.2423  1.0123  1.2471
   11SAPS  H15Y 1453   6.958   4.403   7.798  0.5385 -0.0404 -0.3247
   11SAPS  C316 1454   6.897   4.616   7.830 -0.1832 -0.4313  0.6737
   11SAPS  H16X 1455   6.787   4.602   7.835 -0.5345  1.2790 -1.2257
   11SAPS  H16Y 1456   6.923   4.709   7.776  2.6141 -1.7036 -0.4146
   11SAPS  C317 1457   6.948   4.633   7.975  0.8538 -0.4447 -0.3434
   11SAPS  H17X 1458   6.923   4.734   8.014  0.3262 -1.3219  1.7699
   11SAPS  H17Y 1459   7.058   4.637   7.962  0.7359  0.7728 -1.1156
   11SAPS  C318 1460   6.915   4.525   8.081  0.5220 -0.0668 -0.7243
   11SAPS  H18X 1461   6.942   4.423   8.046  1.4241  0.4690 -1.6413
   11SAPS  H18Y 1462   6.812   4.520   8.122  1.1301  2.4654  1.4784
   11SAPS  H18Z 1463   6.984   4.546   8.167  0.5488 -2.5893 -0.0621
   12SAPS     N 1464   5.341   4.717   6.079 -0.1680 -0.0669 -0.4321
   12SAPS   HN1 1465   5.411   4.780   6.124 -0.7954  0.4982 -0.2406
   12SAPS   HN2 1466   5.281   4.705   6.163  0.2985 -0.5616 -0.1618
   12SAPS   HN3 1467   5.379   4.623   6.054 -1.6451 -1.4479  2.0723
   12SAPS   C12 1468   5.273   4.784   5.961  0.5379 -0.1406  0.5063
   12SAPS  H12A 1469   5.340   4.838   5.896 -0.9285 -1.1982 -2.0374
   12SAPS   C13 1470   5.208   4.685   5.862  0.4824 -0.6502 -0.3802
   12SAPS  O13A 1471   5.188   4.564   5.899  0.0726  0.0261 -0.2770
   12SAPS  O13B 1472   5.170   4.724   5.745 -0.1132  0.0860  0.1959
   12SAPS   C11 1473   5.169   4.894   5.997 -0.2119 -0.7865  0.0623
   12SAPS  H11A 1474   5.100   4.839   6.065 -0.8861 -1.3439 -1.0518
   12SAPS  H11B 1475   5.110   4.937   5.914 -0.8328  2.0229  1.8243
   12SAPS     P 1476   5.164   5.132   6.098  0.2956  0.0219  0.3356
   12SAPS   O13 1477   5.188   5.231   5.996  0.1366 -0.1058  0.4652
   12SAPS   O14 1478   5.023   5.105   6.139 -0.5505 -0.4008 -0.0527
   12SAPS   O12 1479   5.239   5.001   6.059  0.5028  0.1069 -0.1320
   12SAPS   O11 1480   5.234   5.172   6.229  0.4116 -0.2780  0.1374
   12SAPS    C1 1481   5.311   5.080   6.311 -0.2274 -0.4796 -0.2849
   12SAPS    HA 1482   5.309   5.107   6.419  2.8417 -2.2262  0.3260
   12SAPS    HB 1483   5.286   4.973   6.302 -0.7861 -0.4432  0.6505
   12SAPS    C2 1484   5.465   5.093   6.288  0.7163  0.1954 -0.2079
   12SAPS    HS 1485   5.482   5.057   6.185  0.5686  0.1232 -0.2071
   12SAPS   O21 1486   5.532   5.011   6.382 -0.1784  0.4294  0.1154
   12SAPS   C21 1487   5.535   4.885   6.356  0.8083  0.6903 -1.2087
   12SAPS   O22 1488   5.508   4.833   6.249 -0.1506  0.7108 -0.2290
   12SAPS   C22 1489   5.575   4.821   6.486 -0.2646  0.4102  0.1299
   12SAPS   H2R 1490   5.558   4.712   6.473  4.5176 -0.8342  2.3972
   12SAPS   H2S 1491   5.686   4.823   6.483  0.1723 -5.8273  0.0314
   12SAPS    C3 1492   5.513   5.242   6.283  0.0160  0.1660 -0.3830
   12SAPS    HX 1493   5.456   5.284   6.198 -0.5915 -1.2520 -0.7110
   12SAPS    HY 1494   5.621   5.247   6.256 -0.0317  0.7046 -0.4738
   12SAPS   O31 1495   5.473   5.308   6.407  0.4679 -0.0801 -0.2218
   12SAPS   C31 1496   5.557   5.298   6.506  0.5703 -0.0655  0.3571
   12SAPS   O32 1497   5.674   5.263   6.506  0.2946  0.1528 -0.3366
   12SAPS   C32 1498   5.479   5.359   6.620  0.3664  0.0387 -0.4814
   12SAPS   H2X 1499   5.382   5.306   6.632  0.4767 -0.2800 -0.9621
   12SAPS   H2Y 1500   5.462   5.463   6.585 -1.9296 -0.2142 -0.3111
   12SAPS   C23 1501   5.491   4.863   6.613  0.0523  0.3882 -0.1123
   12SAPS   H3R 1502   5.477   4.970   6.636 -0.0757 -0.2054  3.1424
   12SAPS   H3S 1503   5.544   4.832   6.706 -2.2326 -0.3506  1.0189
   12SAPS   C24 1504   5.356   4.791   6.625 -0.8872  0.2554 -0.4578
   12SAPS   H4R 1505   5.345   4.771   6.734 -0.5486 -0.2023 -0.5044
   12SAPS   H4S 1506   5.363   4.694   6.572  1.0556  0.0867  0.0378
   12SAPS   C25 1507   5.238   4.878   6.583 -0.3378  0.3096  0.0934
   12SAPS   H5R 1508   5.208   4.869   6.478 -1.5780  5.0053 -0.1789
   12SAPS   C26 1509   5.176   4.972   6.664 -0.0623 -0.1983 -0.9175
   12SAPS   H6R 1510   5.075   5.004   6.634 -0.5348  0.7632  1.5278
   12SAPS   C27 1511   5.216   4.987   6.809 -0.0393  0.2534 -0.1709
   12SAPS   H7R 1512   5.327   4.995   6.811 -0.0186  0.4439 -1.3344
   12SAPS   H7S 1513   5.206   4.896   6.872  0.4845  0.8560  0.8010
   12SAPS   C28 1514   5.149   5.111   6.864 -0.3845  0.1711 -0.2525
   12SAPS   H8R 1515   5.131   5.188   6.788 -1.9878 -0.9903 -1.1130
   12SAPS   C29 1516   5.140   5.141   6.995 -0.8305 -1.1542 -0.0363
   12SAPS   H9R 1517   5.086   5.231   7.026  0.8969  0.5884 -1.8494
   12SAPS  C210 1518   5.176   5.049   7.110  0.2866 -0.3138  0.7241
   12SAPS  H10R 1519   5.265   5.087   7.164  0.4884 -0.7105  0.6726
   12SAPS  H10S 1520   5.206   4.952   7.066 -0.5716 -0.5637  0.6668
   12SAPS  C211 1521   5.067   5.033   7.211 -0.5032 -0.2410 -0.3842
   12SAPS  H11R 1522   4.991   4.964   7.172  0.6576 -0.6442 -2.0353
   12SAPS  C212 1523   5.034   5.083   7.333 -0.2650  0.3466  0.1155
   12SAPS  H12R 1524   4.956   5.029   7.389  0.8886  0.7859  2.2805
   12SAPS  C213 1525   5.102   5.186   7.422 -0.2108  0.6927 -0.3796
   12SAPS  H13R 1526   5.019   5.245   7.466  1.0690  1.2294  1.4426
   12SAPS  H13S 1527   5.172   5.252   7.367  0.5049 -0.0502 -0.3957
   12SAPS  C214 1528   5.184   5.109   7.523 -0.5531 -0.7186 -0.3965
   12SAPS  H14R 1529   5.280   5.081   7.478  0.9971  1.5669  1.2804
   12SAPS  C215 1530   5.170   5.083   7.650 -0.6854  0.5667 -0.2617
   12SAPS  H15R 1531   5.242   5.016   7.699  0.0483  1.2696 -0.3691
   12SAPS  C216 1532   5.047   5.123   7.717  0.0249 -0.7049 -0.1830
   12SAPS  H16R 1533   4.980   5.187   7.656  0.7702 -0.7483 -1.0756
   12SAPS  H16S 1534   5.064   5.192   7.801  1.9545  2.1412 -2.7177
   12SAPS  C217 1535   4.968   5.000   7.765  0.4387 -0.2199  0.1061
   12SAPS  H17R 1536   4.941   4.935   7.679  0.3854 -0.7599  0.5202
   12SAPS  H17S 1537   4.865   5.035   7.788 -0.4336 -1.9866 -0.8515
   12SAPS  C218 1538   5.034   4.916   7.873 -0.2729  0.1998 -0.1989
   12SAPS  H18R 1539   5.092   4.989   7.934 -0.7725 -0.3852  1.0081
   12SAPS  H18S 1540   5.114   4.852   7.830  0.2264 -0.9874  2.3154
   12SAPS  C219 1541   4.930   4.835   7.958  0.4874 -0.6208 -0.7685
   12SAPS  H19R 1542   4.937   4.734   7.913 -1.2189 -2.5051  2.8438
   12SAPS  H19S 1543   4.825   4.870   7.951  0.2343 -1.4443 -1.2583
   12SAPS  C220 1544   4.959   4.831   8.107  0.6305  0.1133  0.5471
   12SAPS  H20R 1545   4.991   4.928   8.149 -0.8081  1.1995 -0.7516
   12SAPS  H20S 1546   5.046   4.771   8.142  0.5241 -0.7721 -0.6325
   12SAPS  H20T 1547   4.868   4.798   8.162 -1.0814  1.4741 -1.3081
   12SAPS   C33 1548   5.574   5.370   6.752  0.5053  0.1544  0.2219
   12SAPS   H3X 1549   5.514   5.434   6.819 -0.0827  0.5181 -0.6302
   12SAPS   H3Y 1550   5.670   5.423   6.733  1.6094 -1.3933  1.1776
   12SAPS   C34 1551   5.593   5.236   6.818  0.3536  0.4571 -0.4751
   12SAPS   H4X 1552   5.671   5.176   6.767  0.8180 -0.1355  0.9020
   12SAPS   H4Y 1553   5.500   5.176   6.823 -1.2874  2.7556 -1.4173
   12SAPS   C35 1554   5.645   5.237   6.963  0.2450  0.1640 -0.1512
   12SAPS   H5X 1555   5.567   5.294   7.017  1.1321  0.1659  1.1733
   12SAPS   H5Y 1556   5.723   5.316   6.961 -1.4230  1.8838 -2.5037
   12SAPS   C36 1557   5.678   5.099   7.028 -0.0511  0.1779 -0.0553
   12SAPS   H6X 1558   5.765   5.054   6.974  0.0081  1.4315 -1.0620
   12SAPS   H6Y 1559   5.590   5.038   6.997  0.9326 -0.6634 -1.3242
   12SAPS   C37 1560   5.706   5.092   7.174 -0.1845  0.1344  0.8307
   12SAPS   H7X 1561   5.799   5.151   7.189  0.1444 -0.5570  1.5790
   12SAPS   H7Y 1562   5.711   4.985   7.203 -1.9624 -0.7868 -1.8062
   12SAPS   C38 1563   5.592   5.152   7.257  1.1959 -0.9805 -0.3810
   12SAPS   H8X 1564   5.487   5.128   7.230  0.1377  0.8429  1.8169
   12SAPS   H8Y 1565   5.603   5.260   7.236  2.1337 -1.0069 -0.0994
   12SAPS   C39 1566   5.608   5.131   7.412  0.1125 -0.5300  0.4184
   12SAPS   H9X 1567   5.543   5.209   7.457 -1.1115 -0.1332 -1.9085
   12SAPS   H9Y 1568   5.712   5.167   7.427  0.1993  0.1827 -1.5834
   12SAPS  C310 1569   5.599   4.990   7.468 -0.0382  0.5641 -1.0250
   12SAPS  H10X 1570   5.669   4.917   7.421  0.0292 -1.0488  1.3900
   12SAPS  H10Y 1571   5.495   4.969   7.435 -1.8897  1.4372  3.5590
   12SAPS  C311 1572   5.605   4.985   7.622  0.1019  0.2741  0.1561
   12SAPS  H11X 1573   5.578   4.880   7.646 -1.2095  0.6354  0.3442
   12SAPS  H11Y 1574   5.535   5.060   7.666 -1.9937  0.3454 -2.9850
   12SAPS  C312 1575   5.741   5.001   7.698 -0.0091  0.0610 -0.0217
   12SAPS  H12X 1576   5.785   5.100   7.674  1.1759  0.3063  2.7607
   12SAPS  H12Y 1577   5.810   4.925   7.655 -0.7933 -1.2490  0.9723
   12SAPS  C313 1578   5.737   4.976   7.848 -0.5259 -0.7032  0.3346
   12SAPS  H13X 1579   5.847   4.992   7.857 -0.6821  0.6892 -0.0720
   12SAPS  H13Y 1580   5.717   4.868   7.866 -0.0090 -0.7158  0.8890
   12SAPS  C314 1581   5.646   5.063   7.931 -0.0855  0.4994  0.7964
   12SAPS  H14X 1582   5.545   5.065   7.884  0.3227  1.5297 -0.0805
   12SAPS  H14Y 1583   5.685   5.167   7.934 -1.9001  1.3163 -1.1989
   12SAPS  C315 1584   5.624   5.022   8.080 -0.1737 -0.8766  0.3538
   12SAPS  H15X 1585   5.560   4.931   8.089  1.8126 -2.3453  0.2917
   12SAPS  H15Y 1586   5.570   5.107   8.126  1.8774 -0.4386  2.1252
   12SAPS  C316 1587   5.755   5.003   8.167  0.3846  0.0868  0.2769
   12SAPS  H16X 1588   5.825   4.929   8.124 -0.1947  0.1556 -0.8219
   12SAPS  H16Y 1589   5.731   4.962   8.267  3.8743 -0.2563  1.0839
   12SAPS  C317 1590   5.840   5.124   8.199  0.2908 -0.3849  0.4595
   12SAPS  H17X 1591   5.772   5.213   8.194 -0.3601 -0.9266 -1.0956
   12SAPS  H17Y 1592   5.918   5.136   8.121  1.1146 -1.6201  1.0651
   12SAPS  C318 1593   5.917   5.118   8.334 -0.3313  0.2174  0.7060
   12SAPS  H18X 1594   5.849   5.127   8.421  1.3898 -0.2174  2.1304
   12SAPS  H18Y 1595   5.991   5.198   8.352  1.1940 -1.2282  1.1158
   12SAPS  H18Z 1596   5.977   5.026   8.347 -0.8871 -0.3837 -0.6793
   13SAPS     N 1597   5.539   1.303   5.974 -0.0517  0.1623  0.1089
   13SAPS   HN1 1598   5.517   1.265   6.069 -1.1105 -3.3800 -1.3842
   13SAPS   HN2 1599   5.514   1.229   5.905 -0.0234 -0.5943  0.8900
   13SAPS   HN3 1600   5.643   1.310   5.983  0.2690 -1.1743 -1.9150
   13SAPS   C12 1601   5.461   1.430   5.959  0.3776 -0.3551  0.1308
   13SAPS  H12A 1602   5.489   1.488   5.872  0.5281  0.0261  0.4278
   13SAPS   C13 1603   5.307   1.399   5.947  0.2669  0.3520  0.9314
   13SAPS  O13A 1604   5.260   1.281   5.951 -0.1550 -0.3526 -0.1707
   13SAPS  O13B 1605   5.236   1.496   5.916 -0.1092 -0.5273 -0.0158
   13SAPS   C11 1606   5.477   1.519   6.083 -0.0234 -0.4984 -0.3408
   13SAPS  H11A 1607   5.423   1.484   6.174 -1.1671 -2.3048 -1.6330
   13SAPS  H11B 1608   5.436   1.620   6.058  0.0305 -0.4954 -0.4164
   13SAPS     P 1609   5.672   1.641   6.224  0.6090  0.0930 -0.2340
   13SAPS   O13 1610   5.808   1.607   6.272  0.1532  0.1443 -0.2070
   13SAPS   O14 1611   5.651   1.786   6.186 -0.4921  0.0923 -0.2291
   13SAPS   O12 1612   5.616   1.538   6.113 -0.3152  0.2337  0.2744
   13SAPS   O11 1613   5.577   1.614   6.348  0.0969 -0.4611 -0.8336
   13SAPS    C1 1614   5.575   1.501   6.430  0.6195 -0.2188  0.2719
   13SAPS    HA 1615   5.471   1.472   6.456  1.3619 -1.9766  1.4739
   13SAPS    HB 1616   5.609   1.410   6.376  0.5731 -0.0562 -0.0334
   13SAPS    C2 1617   5.637   1.515   6.570  0.0654  0.6286  0.5259
   13SAPS    HS 1618   5.572   1.451   6.633 -0.4449 -0.7467 -1.3078
   13SAPS   O21 1619   5.649   1.654   6.605 -0.2418 -0.4701 -0.3813
   13SAPS   C21 1620   5.540   1.702   6.654 -1.0736 -0.6686  0.6367
   13SAPS   O22 1621   5.447   1.637   6.686  1.0425  0.3227  0.2839
   13SAPS   C22 1622   5.562   1.858   6.668 -0.1706 -0.1331  0.0445
   13SAPS   H2R 1623   5.656   1.859   6.727 -0.6536  1.7411  0.8522
   13SAPS   H2S 1624   5.584   1.895   6.566  2.3352 -0.3495  0.4433
   13SAPS    C3 1625   5.771   1.441   6.578  0.1460  0.0239  0.1782
   13SAPS    HX 1626   5.849   1.497   6.522 -0.1970  1.9885  1.5923
   13SAPS    HY 1627   5.763   1.337   6.539  0.3291  0.6627 -1.6494
   13SAPS   O31 1628   5.824   1.444   6.710 -0.2024 -0.1615 -0.0687
   13SAPS   C31 1629   5.894   1.340   6.750 -0.3540  0.3427  0.7783
   13SAPS   O32 1630   5.910   1.234   6.689 -0.0748 -0.3417  0.2883
   13SAPS   C32 1631   5.947   1.367   6.891  0.4245 -0.3737  0.8852
   13SAPS   H2X 1632   5.882   1.444   6.938 -0.1395 -0.1126 -0.2816
   13SAPS   H2Y 1633   6.053   1.399   6.874  0.8079 -1.1060  1.8348
   13SAPS   C23 1634   5.440   1.934   6.727 -0.3376 -0.1806  0.2868
   13SAPS   H3R 1635   5.354   1.890   6.671 -0.7265 -1.9434  2.1546
   13SAPS   H3S 1636   5.447   2.044   6.714  0.1512 -0.4535 -2.4446
   13SAPS   C24 1637   5.413   1.898   6.879  0.0075 -0.5873  0.3886
   13SAPS   H4R 1638   5.387   1.790   6.884 -0.7903 -0.5867 -2.0522
   13SAPS   H4S 1639   5.322   1.955   6.907 -0.4432 -0.9694 -0.2427
   13SAPS   C25 1640   5.539   1.941   6.947  0.1196  0.0487 -0.0138
   13SAPS   H5R 1641   5.570   2.046   6.931 -1.7294  0.5739 -0.3731
   13SAPS   C26 1642   5.627   1.864   7.013 -0.0621  0.1644 -0.2723
   13SAPS   H6R 1643   5.711   1.917   7.060 -0.6814  0.0932  0.9456
   13SAPS   C27 1644   5.610   1.713   7.022  0.2003 -0.3113 -0.3918
   13SAPS   H7R 1645   5.652   1.663   6.933  0.5069 -1.5306  0.4131
   13SAPS   H7S 1646   5.506   1.688   7.054 -0.9436  1.1614 -2.7360
   13SAPS   C28 1647   5.690   1.644   7.137  0.6911  0.0356  0.0399
   13SAPS   H8R 1648   5.779   1.589   7.104  0.7789 -0.6077  1.2741
   13SAPS   C29 1649   5.656   1.614   7.261  0.3790 -0.7337  0.3360
   13SAPS   H9R 1650   5.739   1.575   7.321  1.5585  2.0395  0.6950
   13SAPS  C210 1651   5.520   1.646   7.330 -0.0956  0.9132  0.2456
   13SAPS  H10R 1652   5.492   1.557   7.389  0.4207 -0.2617 -1.2324
   13SAPS  H10S 1653   5.438   1.661   7.257 -1.3367 -0.8559  1.2203
   13SAPS  C211 1654   5.531   1.773   7.401  0.4128  0.2784 -0.5500
   13SAPS  H11R 1655   5.578   1.859   7.351 -3.2506  1.6739 -2.0202
   13SAPS  C212 1656   5.468   1.802   7.516 -0.8708  0.0016 -0.8891
   13SAPS  H12R 1657   5.487   1.901   7.561 -1.1573 -0.5029  0.4054
   13SAPS  C213 1658   5.388   1.707   7.607  0.4933 -0.9150  1.2628
   13SAPS  H13R 1659   5.449   1.673   7.693  1.7784 -2.6072 -0.2336
   13SAPS  H13S 1660   5.358   1.609   7.563  0.3172  0.2160 -1.3809
   13SAPS  C214 1661   5.270   1.791   7.652 -0.5180  0.5295 -0.6281
   13SAPS  H14R 1662   5.175   1.771   7.599 -0.1088  1.1148 -1.6252
   13SAPS  C215 1663   5.260   1.876   7.756  0.9283  0.1604 -0.2154
   13SAPS  H15R 1664   5.164   1.926   7.770  1.4941  1.3879 -0.5903
   13SAPS  C216 1665   5.376   1.910   7.839  0.4391 -0.4666 -0.3392
   13SAPS  H16R 1666   5.393   2.020   7.833  3.2562 -0.7384  0.9222
   13SAPS  H16S 1667   5.477   1.877   7.808  1.0490  1.9367 -1.1278
   13SAPS  C217 1668   5.366   1.877   7.989 -0.3542 -0.2051 -0.2704
   13SAPS  H17R 1669   5.414   1.778   8.006 -0.2852 -0.1428 -0.1051
   13SAPS  H17S 1670   5.262   1.852   8.020  0.3937 -2.6129  0.5486
   13SAPS  C218 1671   5.424   1.990   8.079 -0.0186  0.5769  0.9627
   13SAPS  H18R 1672   5.344   2.066   8.073 -0.3942  0.0876 -2.4833
   13SAPS  H18S 1673   5.520   2.026   8.034 -1.0055 -0.9526 -2.7489
   13SAPS  C219 1674   5.465   1.953   8.214 -0.2741 -0.1758  0.6035
   13SAPS  H19R 1675   5.511   2.041   8.264 -0.2006  0.5415 -0.6966
   13SAPS  H19S 1676   5.544   1.876   8.201 -0.4672 -0.6072  1.8189
   13SAPS  C220 1677   5.349   1.914   8.309  0.2002 -0.2351 -0.4555
   13SAPS  H20R 1678   5.293   1.820   8.288 -0.8203 -0.4797  2.8787
   13SAPS  H20S 1679   5.266   1.986   8.323 -0.0921 -0.9044  1.5951
   13SAPS  H20T 1680   5.399   1.905   8.408  1.3839 -2.3879 -1.1709
   13SAPS   C33 1681   5.946   1.243   6.981 -0.0254  0.6279 -0.1509
   13SAPS   H3X 1682   6.021   1.161   6.972  1.4906  1.7978  1.2436
   13SAPS   H3Y 1683   5.854   1.181   6.977  0.3645 -0.1284  1.5321
   13SAPS   C34 1684   5.954   1.287   7.131  0.1429  0.4465 -0.9069
   13SAPS   H4X 1685   5.877   1.360   7.164 -0.8899 -1.5366  1.3229
   13SAPS   H4Y 1686   6.046   1.345   7.155 -0.9507  2.1442 -0.6410
   13SAPS   C35 1687   5.941   1.172   7.231  0.5044  0.1965  0.8028
   13SAPS   H5X 1688   6.016   1.101   7.192  1.7858  1.5174  0.7885
   13SAPS   H5Y 1689   5.849   1.110   7.223  0.6938  0.0187 -0.1100
   13SAPS   C36 1690   5.969   1.212   7.375 -0.2082 -0.0003 -0.2886
   13SAPS   H6X 1691   6.057   1.280   7.380  1.4444 -2.0417  0.1843
   13SAPS   H6Y 1692   6.000   1.116   7.422  0.2116 -0.1577 -0.8780
   13SAPS   C37 1693   5.855   1.273   7.461  0.0843  0.2552  0.3156
   13SAPS   H7X 1694   5.763   1.213   7.443  1.6073 -1.6128 -1.9181
   13SAPS   H7Y 1695   5.842   1.382   7.440 -0.2375 -0.1482 -1.8731
   13SAPS   C38 1696   5.891   1.278   7.615  0.4104 -0.7781  0.1402
   13SAPS   H8X 1697   5.998   1.307   7.617  1.4368 -4.1370  0.9200
   13SAPS   H8Y 1698   5.880   1.179   7.665  1.6294  0.7888  3.9235
   13SAPS   C39 1699   5.802   1.369   7.702  0.0711 -0.2206  0.9388
   13SAPS   H9X 1700   5.696   1.345   7.679  0.4935 -0.1078 -1.4076
   13SAPS   H9Y 1701   5.821   1.470   7.660  1.4986 -1.2531 -1.0657
   13SAPS  C310 1702   5.816   1.350   7.852 -0.2763  0.2962 -0.1034
   13SAPS  H10X 1703   5.916   1.367   7.898  0.0554 -0.7564 -0.3925
   13SAPS  H10Y 1704   5.801   1.241   7.868 -0.7566  0.4203  0.3358
   13SAPS  C311 1705   5.701   1.407   7.937 -0.1614  0.8146 -0.2131
   13SAPS  H11X 1706   5.610   1.351   7.907 -0.0879 -0.0492  1.1386
   13SAPS  H11Y 1707   5.680   1.511   7.902 -1.2188  0.6259 -0.1589
   13SAPS  C312 1708   5.723   1.403   8.090  0.2302 -0.4290 -0.5741
   13SAPS  H12X 1709   5.654   1.477   8.136  0.6092 -0.3056 -0.2042
   13SAPS  H12Y 1710   5.828   1.433   8.111 -0.2286 -0.0900  1.4474
   13SAPS  C313 1711   5.705   1.262   8.152 -0.3016 -0.1204 -0.6126
   13SAPS  H13X 1712   5.788   1.196   8.118 -0.0724  1.0603 -2.5350
   13SAPS  H13Y 1713   5.613   1.213   8.112  0.3919 -0.4588 -1.8556
   13SAPS  C314 1714   5.688   1.271   8.302 -0.7208 -0.0439  0.2381
   13SAPS  H14X 1715   5.631   1.366   8.318 -1.0531 -0.1171 -0.4709
   13SAPS  H14Y 1716   5.789   1.278   8.346 -0.9851 -1.2447  1.0912
   13SAPS  C315 1717   5.616   1.146   8.358  0.7988 -0.5223 -0.3240
   13SAPS  H15X 1718   5.674   1.051   8.358 -1.3589 -1.9917  2.4106
   13SAPS  H15Y 1719   5.518   1.126   8.310  1.2054 -0.6988 -1.1025
   13SAPS  C316 1720   5.586   1.153   8.506 -0.0238  0.2251  0.3008
   13SAPS  H16X 1721   5.528   1.245   8.531  0.6180  0.3774  1.2946
   13SAPS  H16Y 1722   5.682   1.166   8.560 -0.5223  0.7655  1.0807
   13SAPS  C317 1723   5.515   1.035   8.567  0.2928 -0.0695 -0.4365
   13SAPS  H17X 1724   5.577   0.945   8.549  0.9290  0.2114  0.2816
   13SAPS  H17Y 1725   5.416   1.026   8.517  0.2339 -2.3554  0.0249
   13SAPS  C318 1726   5.489   1.046   8.718  0.2558 -0.2745  0.2244
   13SAPS  H18X 1727   5.586   1.058   8.771 -0.0553  0.7397  0.5981
   13SAPS  H18Y 1728   5.433   0.954   8.745 -0.4771 -0.0775 -0.5681
   13SAPS  H18Z 1729   5.421   1.134   8.724  1.2145  0.7201 -2.1245
   14SAPS     N 1730   6.688   5.216   6.253  0.5480  0.4574  0.2657
   14SAPS   HN1 1731   6.763   5.288   6.253 -1.2077  2.4112 -1.0183
   14SAPS   HN2 1732   6.597   5.263   6.233 -0.0285 -0.9796 -0.6338
   14SAPS   HN3 1733   6.677   5.175   6.348 -0.5559 -0.7175 -0.3356
   14SAPS   C12 1734   6.728   5.107   6.160  0.6110 -0.2457  1.1800
   14SAPS  H12A 1735   6.835   5.096   6.166  0.5412 -2.2148 -0.3247
   14SAPS   C13 1736   6.648   4.973   6.199 -0.1957 -0.3556  0.8203
   14SAPS  O13A 1737   6.550   4.971   6.275  0.2002  0.4431  0.2635
   14SAPS  O13B 1738   6.672   4.871   6.128  0.2723 -0.2929 -0.2615
   14SAPS   C11 1739   6.687   5.148   6.012 -0.1186 -0.1435  0.3840
   14SAPS  H11A 1740   6.712   5.255   5.998  2.1142 -0.5570  0.7305
   14SAPS  H11B 1741   6.577   5.139   6.008 -0.0815 -0.0819 -1.3900
   14SAPS     P 1742   6.900   5.104   5.857  0.3962 -0.4402 -0.3824
   14SAPS   O13 1743   6.921   5.021   5.738  0.3710  0.4122  0.1618
   14SAPS   O14 1744   6.920   5.253   5.843 -0.6987 -0.3153 -0.2649
   14SAPS   O12 1745   6.755   5.073   5.915  0.6650  0.1346 -0.5386
   14SAPS   O11 1746   6.982   5.053   5.980 -0.1769 -0.0561  0.0953
   14SAPS    C1 1747   7.120   5.090   6.003  0.2832 -0.6048 -0.0917
   14SAPS    HA 1748   7.181   4.999   6.017  0.5712 -0.3291  0.4702
   14SAPS    HB 1749   7.166   5.153   5.924 -0.1376  0.1001  0.2118
   14SAPS    C2 1750   7.142   5.164   6.141 -0.2789  0.6795  0.5757
   14SAPS    HS 1751   7.251   5.170   6.158 -0.1090 -0.7650  0.1522
   14SAPS   O21 1752   7.072   5.100   6.256  0.1055  0.8461  0.0605
   14SAPS   C21 1753   7.115   4.979   6.283  0.6490  0.6029  0.1890
   14SAPS   O22 1754   7.220   4.933   6.248  0.4031  0.4418  0.2422
   14SAPS   C22 1755   7.013   4.902   6.371  0.0249 -0.1654 -0.8041
   14SAPS   H2R 1756   6.911   4.931   6.339 -0.1029  1.1771  0.7389
   14SAPS   H2S 1757   7.019   4.791   6.365 -2.4085 -0.4410  0.6947
   14SAPS    C3 1758   7.097   5.310   6.121  0.5646  0.5201 -1.3882
   14SAPS    HX 1759   6.987   5.303   6.102  0.2293  1.4296  0.0255
   14SAPS    HY 1760   7.145   5.356   6.033  1.7175 -0.1041 -1.0986
   14SAPS   O31 1761   7.134   5.383   6.242 -0.3614 -0.5068  0.5616
   14SAPS   C31 1762   7.038   5.401   6.328 -0.3545  0.5138  0.2096
   14SAPS   O32 1763   6.920   5.390   6.308 -0.1860  0.1329 -0.2594
   14SAPS   C32 1764   7.102   5.432   6.460  0.1896  0.4526  0.1394
   14SAPS   H2X 1765   7.156   5.528   6.445 -0.3282  1.0809  2.0366
   14SAPS   H2Y 1766   7.176   5.357   6.496 -1.1174 -0.5525  0.8216
   14SAPS   C23 1767   7.034   4.949   6.522  0.0717  0.0244  0.4080
   14SAPS   H3R 1768   6.932   4.980   6.552 -0.7989 -1.9559 -0.3479
   14SAPS   H3S 1769   7.101   5.036   6.539 -2.1595  1.4694  2.3395
   14SAPS   C24 1770   7.067   4.835   6.624 -0.8162 -0.1160 -0.2246
   14SAPS   H4R 1771   7.005   4.746   6.598 -1.1603  0.1619 -0.3692
   14SAPS   H4S 1772   7.050   4.864   6.730  2.6058  1.2192  0.0785
   14SAPS   C25 1773   7.213   4.802   6.595  0.7032 -0.1085 -0.2992
   14SAPS   H5R 1774   7.244   4.813   6.490 -0.4256 -1.0070 -0.7422
   14SAPS   C26 1775   7.317   4.787   6.681 -0.5470 -0.0024  0.4108
   14SAPS   H6R 1776   7.420   4.776   6.644 -1.1220 -1.2542 -0.9033
   14SAPS   C27 1777   7.316   4.805   6.834  0.0485  0.5560 -0.0599
   14SAPS   H7R 1778   7.246   4.888   6.857 -0.7024  0.2156 -1.0312
   14SAPS   H7S 1779   7.413   4.844   6.869 -0.0229  0.0150  0.7826
   14SAPS   C28 1780   7.276   4.679   6.915 -0.1907 -0.9442  0.1281
   14SAPS   H8R 1781   7.240   4.594   6.856 -1.8240 -0.1249 -0.1145
   14SAPS   C29 1782   7.265   4.673   7.045  0.2853  0.0222 -0.0439
   14SAPS   H9R 1783   7.231   4.573   7.077  1.0735 -0.4258 -0.5487
   14SAPS  C210 1784   7.297   4.781   7.146  0.0834  0.0507  0.5351
   14SAPS  H10R 1785   7.365   4.851   7.092  0.6527  1.7868  3.2971
   14SAPS  H10S 1786   7.356   4.744   7.233  2.2891 -0.4203 -1.0519
   14SAPS  C211 1787   7.170   4.847   7.194 -0.3159 -0.1296 -0.0361
   14SAPS  H11R 1788   7.101   4.897   7.124  1.4279  0.9692 -1.0608
   14SAPS  C212 1789   7.117   4.845   7.320  0.4022 -0.0610  0.1216
   14SAPS  H12R 1790   7.020   4.895   7.326  1.6634  2.3699  2.1731
   14SAPS  C213 1791   7.178   4.775   7.442  0.7565 -0.5383 -0.1358
   14SAPS  H13R 1792   7.211   4.675   7.406  2.2816  0.2282 -0.9394
   14SAPS  H13S 1793   7.094   4.760   7.514  0.0495 -1.0349 -1.0358
   14SAPS  C214 1794   7.301   4.836   7.506 -0.0477 -0.0925  0.1044
   14SAPS  H14R 1795   7.388   4.835   7.439  0.7467 -0.4887  1.1355
   14SAPS  C215 1796   7.317   4.890   7.630  0.3138  1.2112  0.7518
   14SAPS  H15R 1797   7.417   4.930   7.649  1.4188 -0.0142 -1.9598
   14SAPS  C216 1798   7.216   4.894   7.739 -0.6521 -0.4029 -0.6679
   14SAPS  H16R 1799   7.148   4.806   7.735 -1.0555 -0.0977 -0.5865
   14SAPS  H16S 1800   7.169   4.994   7.726  2.2231  0.9740 -1.3778
   14SAPS  C217 1801   7.268   4.887   7.884  0.2662  0.1378 -0.1702
   14SAPS  H17R 1802   7.360   4.950   7.891 -0.9314  1.8559  0.9949
   14SAPS  H17S 1803   7.290   4.780   7.904  1.8350  0.1942 -1.4195
   14SAPS  C218 1804   7.170   4.943   7.991 -0.2383 -0.2726  0.2136
   14SAPS  H18R 1805   7.072   4.892   7.981 -0.3303 -0.0426 -0.1039
   14SAPS  H18S 1806   7.147   5.049   7.969 -3.3329 -1.0590 -0.8283
   14SAPS  C219 1807   7.220   4.910   8.128 -0.1332  0.7698 -1.5396
   14SAPS  H19R 1808   7.330   4.914   8.134  0.1274 -3.5752  2.6872
   14SAPS  H19S 1809   7.195   4.803   8.147  2.4885  0.2760 -0.5792
   14SAPS  C220 1810   7.160   4.994   8.238 -0.2148  0.1390 -1.1076
   14SAPS  H20R 1811   7.214   4.994   8.335  0.8713 -0.3547 -1.6953
   14SAPS  H20S 1812   7.058   4.958   8.260  0.0338 -0.6417 -1.2223
   14SAPS  H20T 1813   7.151   5.103   8.214  0.8235  0.2749 -0.9247
   14SAPS   C33 1814   7.003   5.450   6.579  0.7579 -0.7287  0.7154
   14SAPS   H3X 1815   6.962   5.356   6.623 -3.7027  0.0919 -1.1644
   14SAPS   H3Y 1816   6.907   5.483   6.533  0.3867 -0.8289  1.3849
   14SAPS   C34 1817   7.055   5.542   6.685 -0.2881  0.6673 -0.2583
   14SAPS   H4X 1818   7.092   5.640   6.648 -0.9540  0.3190 -1.9234
   14SAPS   H4Y 1819   7.142   5.485   6.725 -1.8969 -1.3826  0.5134
   14SAPS   C35 1820   6.945   5.562   6.801 -0.2075 -0.4944  0.2955
   14SAPS   H5X 1821   6.911   5.458   6.823  0.8567 -0.9769 -0.2512
   14SAPS   H5Y 1822   6.856   5.613   6.760 -1.1136 -1.0381  1.5507
   14SAPS   C36 1823   6.997   5.626   6.924 -0.2894  0.2619 -0.0631
   14SAPS   H6X 1824   7.045   5.722   6.894 -0.4630  0.4496  0.2514
   14SAPS   H6Y 1825   7.074   5.561   6.971  1.2322  1.8385 -0.2669
   14SAPS   C37 1826   6.880   5.657   7.022 -0.1864 -0.5976 -1.4665
   14SAPS   H7X 1827   6.792   5.589   7.029  0.3414 -1.1741 -0.0419
   14SAPS   H7Y 1828   6.839   5.750   6.977  1.1250  0.1857 -1.1015
   14SAPS   C38 1829   6.929   5.678   7.166 -0.3510  0.0049 -0.0808
   14SAPS   H8X 1830   7.010   5.754   7.172 -2.2704  2.1607 -0.0650
   14SAPS   H8Y 1831   6.973   5.582   7.202  1.0804  0.6052 -0.1495
   14SAPS   C39 1832   6.818   5.720   7.255  0.1631 -0.2910  0.3176
   14SAPS   H9X 1833   6.744   5.638   7.265  1.1155 -1.1248  0.7497
   14SAPS   H9Y 1834   6.771   5.810   7.211 -0.7202  0.5324  2.7493
   14SAPS  C310 1835   6.872   5.762   7.390 -0.2790 -0.4766  0.3716
   14SAPS  H10X 1836   6.936   5.854   7.391  0.2537 -0.7393 -2.2214
   14SAPS  H10Y 1837   6.934   5.674   7.419 -2.1158 -2.3543 -1.1130
   14SAPS  C311 1838   6.763   5.794   7.499  0.2841 -0.1919 -0.2024
   14SAPS  H11X 1839   6.699   5.704   7.502  0.8680 -0.5954  0.6811
   14SAPS  H11Y 1840   6.698   5.875   7.460 -0.9691 -0.9136  0.3274
   14SAPS  C312 1841   6.811   5.844   7.639 -0.2134 -0.4775  0.6140
   14SAPS  H12X 1842   6.890   5.917   7.611  0.6765 -2.6876 -3.4504
   14SAPS  H12Y 1843   6.844   5.762   7.706 -3.2673 -0.6818  2.0353
   14SAPS  C313 1844   6.705   5.909   7.731  0.2915 -0.4724 -0.1719
   14SAPS  H13X 1845   6.649   5.823   7.774  3.5020 -3.3799 -1.3286
   14SAPS  H13Y 1846   6.640   5.975   7.669 -3.1666 -1.2590  2.2806
   14SAPS  C314 1847   6.769   5.994   7.843 -0.1662  0.1045  0.3360
   14SAPS  H14X 1848   6.826   6.082   7.807 -0.3439  0.7440  1.5617
   14SAPS  H14Y 1849   6.838   5.925   7.895  0.9752  1.6443  0.9212
   14SAPS  C315 1850   6.657   6.062   7.932 -0.4155  0.3787  0.9133
   14SAPS  H15X 1851   6.595   5.978   7.970  1.2380 -0.8604  1.0084
   14SAPS  H15Y 1852   6.600   6.128   7.864  0.7262  0.2416 -0.2128
   14SAPS  C316 1853   6.703   6.143   8.058 -0.2187  0.1385  0.7202
   14SAPS  H16X 1854   6.619   6.204   8.096 -0.6705 -0.5228  0.8099
   14SAPS  H16Y 1855   6.777   6.214   8.015 -3.1331  3.0495  0.0905
   14SAPS  C317 1856   6.768   6.065   8.171  0.6698  0.1510 -0.4441
   14SAPS  H17X 1857   6.780   6.137   8.255 -2.0141  1.6627 -1.2529
   14SAPS  H17Y 1858   6.868   6.038   8.132  0.3919  0.7263 -1.5969
   14SAPS  C318 1859   6.693   5.944   8.231  0.7058  0.4916 -0.1832
   14SAPS  H18X 1860   6.657   5.883   8.145 -1.6566 -1.3661  1.9808
   14SAPS  H18Y 1861   6.600   5.994   8.267 -0.1468 -0.3108 -1.1949
   14SAPS  H18Z 1862   6.747   5.904   8.319 -0.2146 -0.1830  0.0895
   15SAPS     N 1863   0.569   4.184   5.853  0.2199  0.1169  0.2402
   15SAPS   HN1 1864   0.494   4.112   5.861  0.3433 -0.2677 -1.6781
   15SAPS   HN2 1865   0.636   4.166   5.931  0.1027  0.1804  0.3571
   15SAPS   HN3 1866   0.537   4.280   5.874 -1.8517 -0.5942  0.5145
   15SAPS   C12 1867   0.635   4.191   5.725 -0.3888 -0.4927  0.2218
   15SAPS  H12A 1868   0.668   4.090   5.707 -0.3366 -0.5441  0.5963
   15SAPS   C13 1869   0.546   4.240   5.610  0.6267 -0.0756  0.3979
   15SAPS  O13A 1870   0.415   4.221   5.616 -0.1358 -0.3117  0.3449
   15SAPS  O13B 1871   0.591   4.271   5.491 -1.2087  0.0679 -0.2829
   15SAPS   C11 1872   0.754   4.282   5.739 -0.6636 -0.0465 -0.5847
   15SAPS  H11A 1873   0.708   4.382   5.754 -1.1678 -0.2585 -0.6983
   15SAPS  H11B 1874   0.821   4.287   5.650  0.7457  1.2411  0.4927
   15SAPS     P 1875   0.980   4.201   5.854 -0.0882 -0.0950  0.1071
   15SAPS   O13 1876   0.960   4.060   5.838  0.4369 -0.2222  0.5767
   15SAPS   O14 1877   1.069   4.266   5.755  0.3165  0.0010 -0.0698
   15SAPS   O12 1878   0.834   4.261   5.851 -0.5123  0.4734 -0.4301
   15SAPS   O11 1879   1.035   4.239   6.002 -0.7711 -0.1379  0.9748
   15SAPS    C1 1880   1.018   4.366   6.055  0.1288 -0.5651 -0.6970
   15SAPS    HA 1881   1.092   4.437   6.013 -1.1320  1.1332 -0.1419
   15SAPS    HB 1882   0.929   4.421   6.021 -1.0514 -1.7127  0.4101
   15SAPS    C2 1883   1.035   4.367   6.211  0.0207 -0.5057 -0.8914
   15SAPS    HS 1884   1.025   4.473   6.242 -0.9577 -1.1169  1.0002
   15SAPS   O21 1885   1.169   4.315   6.241  0.6831 -0.0229  0.3979
   15SAPS   C21 1886   1.227   4.355   6.353  0.4731 -0.0326 -0.2010
   15SAPS   O22 1887   1.186   4.444   6.426  0.2319  0.2122  0.2735
   15SAPS   C22 1888   1.353   4.273   6.367 -0.6321  0.2921  0.5488
   15SAPS   H2R 1889   1.398   4.266   6.265 -1.0915  1.6396  0.2362
   15SAPS   H2S 1890   1.431   4.329   6.422  0.2119  1.0836 -1.3602
   15SAPS    C3 1891   0.918   4.283   6.277  0.3064 -0.4224  0.1407
   15SAPS    HX 1892   0.927   4.177   6.244 -2.2734 -0.7542  0.3402
   15SAPS    HY 1893   0.823   4.315   6.228  1.9099  1.2098 -2.1097
   15SAPS   O31 1894   0.928   4.295   6.418 -0.2450  0.4081 -0.8792
   15SAPS   C31 1895   0.832   4.373   6.472 -0.5543  0.0561 -0.0690
   15SAPS   O32 1896   0.751   4.442   6.408 -0.0452  0.0061  0.5083
   15SAPS   C32 1897   0.815   4.332   6.620 -0.5674 -0.0296  0.4026
   15SAPS   H2X 1898   0.905   4.277   6.654  0.9239  1.9948 -0.0576
   15SAPS   H2Y 1899   0.727   4.265   6.635  0.9465 -2.2920 -0.3600
   15SAPS   C23 1900   1.312   4.133   6.435  0.2137 -0.3026  1.0245
   15SAPS   H3R 1901   1.389   4.060   6.405 -0.6905 -0.5813 -0.7961
   15SAPS   H3S 1902   1.213   4.105   6.392  0.3907 -0.0263  0.4174
   15SAPS   C24 1903   1.296   4.136   6.582  0.4563 -0.5109 -0.4553
   15SAPS   H4R 1904   1.284   4.028   6.606  0.8715  0.1895  3.7344
   15SAPS   H4S 1905   1.202   4.185   6.615  1.1780  0.0737  0.8014
   15SAPS   C25 1906   1.418   4.200   6.652  0.1229 -0.0663  0.0546
   15SAPS   H5R 1907   1.515   4.166   6.614  0.6790  0.3876  1.0252
   15SAPS   C26 1908   1.409   4.278   6.763  0.4188 -0.6974  0.8868
   15SAPS   H6R 1909   1.506   4.311   6.803  1.2969 -0.9608 -0.9371
   15SAPS   C27 1910   1.286   4.327   6.837  0.1525  0.2359 -0.6129
   15SAPS   H7R 1911   1.320   4.328   6.943  1.9589 -0.7529 -1.1294
   15SAPS   H7S 1912   1.198   4.260   6.828 -1.5164  1.9510  1.7091
   15SAPS   C28 1913   1.251   4.454   6.780  0.0477 -1.0523  0.5114
   15SAPS   H8R 1914   1.257   4.458   6.670 -0.4530  1.1541  0.5192
   15SAPS   C29 1915   1.213   4.561   6.853 -0.2223  0.1171 -0.2414
   15SAPS   H9R 1916   1.202   4.663   6.811  1.8300  0.0477 -1.1113
   15SAPS  C210 1917   1.197   4.563   7.007 -0.1070  0.2778  0.2238
   15SAPS  H10R 1918   1.269   4.497   7.060 -2.1398 -0.4068  2.2863
   15SAPS  H10S 1919   1.108   4.500   7.028  0.1547 -0.0688  0.3189
   15SAPS  C211 1920   1.185   4.707   7.062 -0.8732  0.3672 -0.5946
   15SAPS  H11R 1921   1.192   4.784   6.984  0.3203  2.3907  1.4142
   15SAPS  C212 1922   1.151   4.734   7.189  0.4447  0.6311  0.3822
   15SAPS  H12R 1923   1.143   4.838   7.225  4.8230  0.8256  1.3403
   15SAPS  C213 1924   1.132   4.638   7.296  0.0953 -0.0145 -0.6884
   15SAPS  H13R 1925   1.182   4.540   7.278 -0.4452 -0.4673  0.2027
   15SAPS  H13S 1926   1.023   4.615   7.302  0.0460  0.4138  0.2113
   15SAPS  C214 1927   1.176   4.674   7.441 -0.2711 -0.0200  0.9355
   15SAPS  H14R 1928   1.284   4.676   7.461 -0.3570  0.7415  1.3742
   15SAPS  C215 1929   1.102   4.718   7.547 -0.0108  0.4011 -0.5605
   15SAPS  H15R 1930   1.154   4.739   7.641 -0.9081 -1.0930  0.3118
   15SAPS  C216 1931   0.956   4.737   7.552 -0.2498 -0.0741  0.5429
   15SAPS  H16R 1932   0.891   4.647   7.550 -2.3091  1.3346 -1.3715
   15SAPS  H16S 1933   0.925   4.794   7.462 -1.3030 -1.6563 -0.1653
   15SAPS  C217 1934   0.909   4.832   7.666  1.0270  0.6276 -0.5774
   15SAPS  H17R 1935   0.822   4.897   7.643 -0.2560  0.1511  2.4691
   15SAPS  H17S 1936   0.996   4.896   7.690  0.8356  0.2282  1.3801
   15SAPS  C218 1937   0.862   4.756   7.794 -0.7289 -0.4134  0.2268
   15SAPS  H18R 1938   0.936   4.690   7.844 -1.2208  0.1997  1.8271
   15SAPS  H18S 1939   0.777   4.690   7.765  0.4984 -1.1027 -2.0209
   15SAPS  C219 1940   0.807   4.856   7.889 -0.6547 -0.8131 -0.0920
   15SAPS  H19R 1941   0.726   4.911   7.837 -1.0139 -0.8668  0.4024
   15SAPS  H19S 1942   0.893   4.923   7.910 -0.7903 -1.0726  1.3688
   15SAPS  C220 1943   0.749   4.811   8.020 -0.2760 -1.0067  0.6163
   15SAPS  H20R 1944   0.815   4.729   8.056  1.9548 -0.3964 -1.8191
   15SAPS  H20S 1945   0.654   4.759   7.997 -0.4358  0.0645 -1.3367
   15SAPS  H20T 1946   0.722   4.884   8.100 -0.3000 -3.2934  2.8454
   15SAPS   C33 1947   0.792   4.454   6.712 -0.4747 -0.0696  0.0523
   15SAPS   H3X 1948   0.711   4.525   6.684  1.1660  0.9026 -2.6672
   15SAPS   H3Y 1949   0.883   4.517   6.708 -0.7955  0.3730 -0.4141
   15SAPS   C34 1950   0.759   4.403   6.856 -0.8764 -0.4486 -0.4407
   15SAPS   H4X 1951   0.828   4.319   6.877 -1.1079 -0.1582  1.7502
   15SAPS   H4Y 1952   0.654   4.365   6.859 -0.8809 -0.6196 -1.9608
   15SAPS   C35 1953   0.795   4.520   6.958  0.6669  0.3335 -0.6111
   15SAPS   H5X 1954   0.710   4.592   6.957 -2.5363 -2.9782  2.6352
   15SAPS   H5Y 1955   0.885   4.576   6.923  1.0433 -0.4340 -0.9016
   15SAPS   C36 1956   0.817   4.481   7.101 -0.1927 -0.2490 -0.5203
   15SAPS   H6X 1957   0.896   4.551   7.136 -0.5612 -1.0680  2.2482
   15SAPS   H6Y 1958   0.840   4.376   7.130 -2.5513 -0.1967  1.9891
   15SAPS   C37 1959   0.710   4.523   7.197  0.2332 -0.5855  0.2737
   15SAPS   H7X 1960   0.617   4.466   7.175  0.4229 -1.3608  1.4091
   15SAPS   H7Y 1961   0.681   4.629   7.176 -0.0739 -0.5322  0.9361
   15SAPS   C38 1962   0.733   4.485   7.344  0.4188 -0.3969  0.0293
   15SAPS   H8X 1963   0.833   4.523   7.375 -1.1639  3.9763  0.4084
   15SAPS   H8Y 1964   0.739   4.375   7.363  2.4581  0.0211  2.3533
   15SAPS   C39 1965   0.621   4.516   7.446  0.2845 -0.5313  0.5523
   15SAPS   H9X 1966   0.520   4.490   7.409  0.5798 -2.2915  0.8614
   15SAPS   H9Y 1967   0.617   4.626   7.457  1.6291 -0.6882  3.5307
   15SAPS  C310 1968   0.662   4.462   7.586 -0.2100  0.1985 -0.1236
   15SAPS  H10X 1969   0.755   4.510   7.620  0.7379 -1.3011 -0.5145
   15SAPS  H10Y 1970   0.672   4.351   7.587 -2.3890 -0.0461  1.3156
   15SAPS  C311 1971   0.549   4.486   7.683 -0.0015  0.5206  0.0392
   15SAPS  H11X 1972   0.454   4.432   7.662 -1.3390  1.7043  2.6253
   15SAPS  H11Y 1973   0.516   4.591   7.693  1.1907  1.0526 -1.3034
   15SAPS  C312 1974   0.587   4.430   7.816 -0.6427  0.1797 -0.0353
   15SAPS  H12X 1975   0.686   4.476   7.840 -1.4476  1.3375  1.2004
   15SAPS  H12Y 1976   0.613   4.322   7.811 -1.4154 -0.0450  0.5754
   15SAPS  C313 1977   0.487   4.460   7.929  1.0892 -1.2353  0.8116
   15SAPS  H13X 1978   0.402   4.395   7.899  0.9174 -0.4542 -0.4718
   15SAPS  H13Y 1979   0.440   4.560   7.914  0.1479 -1.8318 -0.4311
   15SAPS  C314 1980   0.545   4.455   8.067  0.5123 -0.4450  0.3032
   15SAPS  H14X 1981   0.614   4.538   8.094  0.2661 -0.4250  0.8935
   15SAPS  H14Y 1982   0.608   4.364   8.074  1.0763 -0.0688  0.1735
   15SAPS  C315 1983   0.437   4.449   8.172  0.1309  0.3889 -0.3288
   15SAPS  H15X 1984   0.375   4.356   8.170  0.7360 -0.0175 -1.4989
   15SAPS  H15Y 1985   0.372   4.538   8.182  0.2582  0.2140  2.8185
   15SAPS  C316 1986   0.495   4.443   8.314  0.4696 -0.3793 -0.5180
   15SAPS  H16X 1987   0.415   4.475   8.384  1.7943  1.0729  0.4013
   15SAPS  H16Y 1988   0.571   4.524   8.318  1.7963 -1.3354 -3.3736
   15SAPS  C317 1989   0.568   4.314   8.356 -0.2233 -0.2845  0.2028
   15SAPS  H17X 1990   0.638   4.283   8.276  0.6107  0.9737  0.4076
   15SAPS  H17Y 1991   0.498   4.230   8.374  0.6420 -1.5597 -1.9054
   15SAPS  C318 1992   0.653   4.340   8.478 -0.0931  0.2862 -0.4785
   15SAPS  H18X 1993   0.725   4.424   8.471  0.0695  0.2507  0.6139
   15SAPS  H18Y 1994   0.702   4.242   8.490  0.8767  0.6540 -1.3101
   15SAPS  H18Z 1995   0.585   4.365   8.563  1.7286  2.1050  0.5372
   16SAPS     N 1996   3.413   6.202   6.249 -0.4443 -1.0580  0.1198
   16SAPS   HN1 1997   3.447   6.270   6.179  0.3285 -2.5837 -1.0440
   16SAPS   HN2 1998   3.455   6.216   6.344 -0.4813  3.5822 -0.3041
   16SAPS   HN3 1999   3.435   6.117   6.193  1.3075  1.0610 -2.6826
   16SAPS   C12 2000   3.270   6.201   6.270  0.3758  0.3637 -0.4074
   16SAPS  H12A 2001   3.237   6.279   6.338 -4.7291  0.1865 -2.2139
   16SAPS   C13 2002   3.185   6.226   6.142 -1.0402  0.2899  0.3651
   16SAPS  O13A 2003   3.245   6.216   6.029  0.4758 -0.0635 -0.9780
   16SAPS  O13B 2004   3.059   6.230   6.143 -0.5671  0.4360 -0.4045
   16SAPS   C11 2005   3.233   6.067   6.353  0.8723 -0.8553  0.3397
   16SAPS  H11A 2006   3.127   6.080   6.385  1.0344  1.9998 -0.0478
   16SAPS  H11B 2007   3.306   6.070   6.436 -0.0094 -0.9839  1.1428
   16SAPS     P 2008   3.190   5.813   6.325 -0.1946 -0.0153  0.0527
   16SAPS   O13 2009   3.048   5.833   6.331  0.3846 -0.0995  0.3187
   16SAPS   O14 2010   3.246   5.709   6.240  0.5787 -0.1470 -0.0669
   16SAPS   O12 2011   3.253   5.954   6.277  0.4182  0.6399 -0.2816
   16SAPS   O11 2012   3.247   5.803   6.471 -0.1043 -0.3166  0.1972
   16SAPS    C1 2013   3.168   5.859   6.577 -0.1425  0.3757 -0.2848
   16SAPS    HA 2014   3.116   5.957   6.563  0.4234  1.2412  2.9455
   16SAPS    HB 2015   3.081   5.795   6.603 -0.7773  0.9844 -0.8621
   16SAPS    C2 2016   3.246   5.880   6.709 -0.1216 -0.0549 -0.3372
   16SAPS    HS 2017   3.320   5.958   6.683  0.4175 -0.5651 -0.3536
   16SAPS   O21 2018   3.309   5.756   6.753  0.2516  0.3631 -0.2495
   16SAPS   C21 2019   3.420   5.768   6.828  0.6677 -0.6504  0.0284
   16SAPS   O22 2020   3.487   5.867   6.849  0.2045 -0.4954  0.4664
   16SAPS   C22 2021   3.439   5.645   6.912 -0.5298  0.0289  0.0655
   16SAPS   H2R 2022   3.349   5.634   6.976 -0.7310  2.2473  0.2374
   16SAPS   H2S 2023   3.450   5.558   6.844 -0.0025  0.2360 -0.1208
   16SAPS    C3 2024   3.141   5.929   6.816  0.2219 -0.2719 -0.4398
   16SAPS    HX 2025   3.068   5.845   6.822  2.9978 -2.7796  0.8373
   16SAPS    HY 2026   3.087   6.023   6.791 -2.7936 -2.1044 -1.4027
   16SAPS   O31 2027   3.193   5.939   6.948 -0.6263  1.0419  0.5031
   16SAPS   C31 2028   3.256   6.045   6.993  0.1810 -0.6012 -0.4805
   16SAPS   O32 2029   3.257   6.156   6.941  0.6323 -0.1033  0.2166
   16SAPS   C32 2030   3.306   6.017   7.136  0.5103 -0.4190 -0.2745
   16SAPS   H2X 2031   3.289   5.908   7.146 -2.1775 -0.1116 -0.6599
   16SAPS   H2Y 2032   3.241   6.071   7.208 -0.5639 -1.8293 -0.1458
   16SAPS   C23 2033   3.572   5.649   6.989  0.3063 -0.0181  0.0059
   16SAPS   H3R 2034   3.579   5.740   7.052  1.2463  0.8660 -1.3297
   16SAPS   H3S 2035   3.654   5.642   6.915 -0.3025  1.3141 -0.8332
   16SAPS   C24 2036   3.588   5.533   7.085  1.2847 -0.7023 -0.2275
   16SAPS   H4R 2037   3.593   5.442   7.022  0.1259 -0.9698  0.0460
   16SAPS   H4S 2038   3.490   5.533   7.137  0.9350 -0.9273 -0.8762
   16SAPS   C25 2039   3.702   5.551   7.180  0.3320 -0.7354 -0.6155
   16SAPS   H5R 2040   3.790   5.497   7.141  0.5550  1.0514 -2.8404
   16SAPS   C26 2041   3.705   5.615   7.303 -0.6474 -0.2208 -0.8179
   16SAPS   H6R 2042   3.803   5.628   7.351 -0.0011  2.0115 -2.5523
   16SAPS   C27 2043   3.590   5.689   7.367 -0.2692  0.4164  0.2238
   16SAPS   H7R 2044   3.495   5.633   7.354 -0.2753  0.5430 -0.2798
   16SAPS   H7S 2045   3.586   5.789   7.321  1.3903  0.5262  0.2337
   16SAPS   C28 2046   3.610   5.720   7.512  0.3761 -0.2185 -0.5548
   16SAPS   H8R 2047   3.715   5.740   7.538  0.7584 -1.0795 -1.3858
   16SAPS   C29 2048   3.507   5.744   7.598  0.7295 -0.5584  0.1619
   16SAPS   H9R 2049   3.530   5.785   7.697 -1.4155 -0.0354  0.4753
   16SAPS  C210 2050   3.363   5.731   7.552 -0.3109  0.4128  0.0307
   16SAPS  H10R 2051   3.334   5.626   7.578  1.1421  0.1638  0.7065
   16SAPS  H10S 2052   3.360   5.752   7.443 -2.6497  0.9696  0.1366
   16SAPS  C211 2053   3.269   5.818   7.637  0.0692  0.7050  0.0245
   16SAPS  H11R 2054   3.209   5.894   7.586 -0.6415  1.4139  1.8508
   16SAPS  C212 2055   3.234   5.810   7.767 -0.6354  0.0942  0.5987
   16SAPS  H12R 2056   3.148   5.872   7.796  0.8941  2.5953  0.0629
   16SAPS  C213 2057   3.286   5.698   7.846  0.1398  0.0012  0.0380
   16SAPS  H13R 2058   3.342   5.742   7.931 -0.4243 -0.1231  0.4862
   16SAPS  H13S 2059   3.354   5.625   7.798 -0.0793 -0.6883  0.7455
   16SAPS  C214 2060   3.172   5.617   7.894 -0.0469 -0.2131  0.3109
   16SAPS  H14R 2061   3.110   5.575   7.813  0.2680  1.2038 -0.7100
   16SAPS  C215 2062   3.145   5.584   8.016  0.6015  0.6380 -0.2292
   16SAPS  H15R 2063   3.069   5.507   8.035  0.5200  0.5726 -0.8162
   16SAPS  C216 2064   3.224   5.607   8.145  0.1277 -0.1659  0.0321
   16SAPS  H16R 2065   3.287   5.699   8.147  0.9090 -0.6958  0.0380
   16SAPS  H16S 2066   3.295   5.523   8.158  0.8027  0.5035  0.7777
   16SAPS  C217 2067   3.132   5.640   8.260  0.0183  0.0601  0.4771
   16SAPS  H17R 2068   3.085   5.561   8.323  1.8224  0.0457  1.9089
   16SAPS  H17S 2069   3.055   5.712   8.226  0.1031 -0.3181 -0.5482
   16SAPS  C218 2070   3.224   5.701   8.378 -0.2438 -0.0936  0.0380
   16SAPS  H18R 2071   3.251   5.805   8.353  0.2210 -0.3222 -0.4344
   16SAPS  H18S 2072   3.312   5.633   8.379 -1.4534 -1.8160 -1.8685
   16SAPS  C219 2073   3.159   5.687   8.519 -0.1978  0.1474 -0.5576
   16SAPS  H19R 2074   3.145   5.582   8.555 -0.9917  0.7811  1.0829
   16SAPS  H19S 2075   3.055   5.724   8.506 -0.4840 -0.1669  0.6588
   16SAPS  C220 2076   3.229   5.769   8.633 -0.1995  0.5036  0.3041
   16SAPS  H20R 2077   3.174   5.758   8.729 -2.0892  0.0916 -0.7557
   16SAPS  H20S 2078   3.213   5.876   8.608 -3.6899 -0.1381 -0.8594
   16SAPS  H20T 2079   3.334   5.732   8.634 -0.4275 -0.2366 -0.8804
   16SAPS   C33 2080   3.448   6.073   7.154  0.6326 -0.2926  0.3260
   16SAPS   H3X 2081   3.464   6.165   7.094  1.9692 -0.7796 -0.1095
   16SAPS   H3Y 2082   3.519   5.994   7.120  1.9165  0.4584  1.1848
   16SAPS   C34 2083   3.480   6.106   7.303 -0.0310 -0.4685  0.3866
   16SAPS   H4X 2084   3.589   6.119   7.321 -0.4547 -1.4781  4.7510
   16SAPS   H4Y 2085   3.458   6.018   7.368  1.7641 -2.8473 -2.0262
   16SAPS   C35 2086   3.410   6.238   7.340 -0.0406  0.0596 -0.1217
   16SAPS   H5X 2087   3.300   6.228   7.331 -0.0525 -1.1450  0.9941
   16SAPS   H5Y 2088   3.441   6.320   7.272  1.8941  0.4209  1.1186
   16SAPS   C36 2089   3.435   6.285   7.485 -0.2250  0.5113 -1.4724
   16SAPS   H6X 2090   3.402   6.389   7.509 -1.2537 -0.1886  0.3369
   16SAPS   H6Y 2091   3.545   6.294   7.500  0.1164 -1.0680 -2.7416
   16SAPS   C37 2092   3.372   6.197   7.590  0.0148  0.1457 -0.0509
   16SAPS   H7X 2093   3.397   6.090   7.578  1.3098  0.6022 -1.9397
   16SAPS   H7Y 2094   3.263   6.194   7.573  0.2092  1.9321 -1.9266
   16SAPS   C38 2095   3.394   6.240   7.731 -0.1925 -0.6630 -0.1013
   16SAPS   H8X 2096   3.355   6.341   7.756  0.9837 -0.8698  3.0668
   16SAPS   H8Y 2097   3.504   6.246   7.750 -0.5532 -0.3775  2.1655
   16SAPS   C39 2098   3.332   6.133   7.824 -0.1767  0.5338 -0.5180
   16SAPS   H9X 2099   3.384   6.035   7.816 -0.7347  0.3866 -3.3348
   16SAPS   H9Y 2100   3.222   6.120   7.809  0.0259 -2.4560 -0.1422
   16SAPS  C310 2101   3.337   6.163   7.973 -0.0104 -0.3619  0.0374
   16SAPS  H10X 2102   3.260   6.233   8.013  0.0325 -0.7842  0.8802
   16SAPS  H10Y 2103   3.434   6.214   7.991 -0.9780  1.3436  0.7525
   16SAPS  C311 2104   3.330   6.036   8.055 -0.5789  0.4078 -0.6601
   16SAPS  H11X 2105   3.420   6.026   8.120 -2.5831 -1.0701  2.1028
   16SAPS  H11Y 2106   3.329   5.945   7.992  0.5581 -0.3350  0.3273
   16SAPS  C312 2107   3.215   6.033   8.157  0.0411  1.1912  0.1254
   16SAPS  H12X 2108   3.237   6.113   8.230 -3.4377  2.3197  0.1195
   16SAPS  H12Y 2109   3.221   5.934   8.208  3.1796  0.5866 -1.2193
   16SAPS  C313 2110   3.072   6.052   8.093 -0.0388 -0.0643  0.6757
   16SAPS  H13X 2111   3.023   5.971   8.034  0.8101  0.1495 -0.3515
   16SAPS  H13Y 2112   3.085   6.131   8.017  0.5122 -0.1098  0.7174
   16SAPS  C314 2113   2.975   6.109   8.190 -0.7667  0.2831  0.4572
   16SAPS  H14X 2114   2.890   6.163   8.142 -0.1025  0.0904 -0.9718
   16SAPS  H14Y 2115   3.032   6.190   8.239 -0.3570  1.8004 -2.3253
   16SAPS  C315 2116   2.919   5.998   8.287 -0.0417  0.1728 -0.4904
   16SAPS  H15X 2117   2.985   5.920   8.331 -3.3750 -1.3923  2.2025
   16SAPS  H15Y 2118   2.861   5.928   8.223  0.5185 -3.0397  2.2505
   16SAPS  C316 2119   2.832   6.057   8.392  0.1236 -0.1205  0.1801
   16SAPS  H16X 2120   2.730   6.088   8.362  0.1327  1.2022  1.3992
   16SAPS  H16Y 2121   2.870   6.156   8.424 -0.9345  0.0178  1.0719
   16SAPS  C317 2122   2.815   5.984   8.519  0.3971  0.1239  0.5219
   16SAPS  H17X 2123   2.912   5.984   8.573  1.7310  0.5090 -1.7440
   16SAPS  H17Y 2124   2.780   5.881   8.497  1.2314 -0.9820  3.7330
   16SAPS  C318 2125   2.715   6.058   8.612 -0.9019 -0.3496  0.1295
   16SAPS  H18X 2126   2.752   6.152   8.658 -1.1224 -0.1098 -0.1819
   16SAPS  H18Y 2127   2.682   5.993   8.697 -0.2300  0.4009  0.9842
   16SAPS  H18Z 2128   2.628   6.084   8.548  0.3487 -1.2551 -2.0302
   17SAPC     N 2129   1.092   2.967  10.617  0.1227  0.1335  0.2284
   17SAPC   C12 2130   1.132   2.850  10.535  0.2391  0.5606 -0.1748
   17SAPC  H12A 2131   1.215   2.805  10.588 -0.6123 -1.4094 -0.4368
   17SAPC  H12B 2132   1.182   2.884  10.446 -0.1186  1.4036 -0.0667
   17SAPC   C13 2133   0.987   3.043  10.540 -0.0576 -0.1472  0.1148
   17SAPC  H13A 2134   0.941   3.116  10.605 -0.2720 -0.8646  0.7902
   17SAPC  H13B 2135   1.029   3.095  10.455  1.3349 -2.2237 -0.5363
   17SAPC  H13C 2136   0.917   2.969  10.506  0.5983  0.2534 -2.2888
   17SAPC   C14 2137   1.025   2.914  10.749 -0.8127 -0.3639 -0.6566
   17SAPC  H14A 2138   0.932   2.867  10.718 -0.9635 -1.1340  0.8820
   17SAPC  H14B 2139   1.087   2.841  10.799 -0.7377 -1.0546 -1.7181
   17SAPC  H14C 2140   0.997   3.002  10.804  0.8399  1.3327 -2.3727
   17SAPC   C15 2141   1.217   3.052  10.653 -0.3771  0.6257  0.7593
   17SAPC  H15A 2142   1.269   3.094  10.569  0.9220  2.1452  2.2568
   17SAPC  H15B 2143   1.188   3.136  10.714  0.0497  0.1308  1.6665
   17SAPC  H15C 2144   1.299   3.003  10.703  0.5528  0.4278 -0.9000
   17SAPC   C11 2145   1.025   2.751  10.490 -0.3297  0.3830 -0.6296
   17SAPC  H11A 2146   0.962   2.729  10.579 -0.0128 -1.2679 -0.7876
   17SAPC  H11B 2147   1.069   2.654  10.459  2.3179  1.5533 -0.8195
   17SAPC     P 2148   0.981   2.832  10.244  0.0857 -0.4958 -0.4602
   17SAPC   O13 2149   0.895   2.754  10.153 -0.5121 -0.5171 -0.0059
   17SAPC   O14 2150   0.985   2.977  10.220  0.1357  0.1597 -0.3045
   17SAPC   O12 2151   0.931   2.797  10.393  0.1043  0.1191  1.0219
   17SAPC   O11 2152   1.137   2.794  10.240 -0.3841  0.0363 -0.0130
   17SAPC    C1 2153   1.182   2.665  10.195  0.5656  0.0635 -0.9320
   17SAPC    HA 2154   1.176   2.597  10.283  1.1666  1.6068  0.3501
   17SAPC    HB 2155   1.120   2.620  10.114  1.2279  0.7552 -1.8474
   17SAPC    C2 2156   1.324   2.661  10.144  0.0103  0.5039  0.4348
   17SAPC    HS 2157   1.391   2.690  10.228  1.2655  1.7051 -0.9153
   17SAPC   O21 2158   1.346   2.746  10.031 -0.3178  0.0264 -0.8084
   17SAPC   C21 2159   1.383   2.867  10.053 -0.4569 -0.0258 -0.0532
   17SAPC   O22 2160   1.432   2.911  10.164  0.4079  0.2130  0.4006
   17SAPC   C22 2161   1.394   2.945   9.923  0.0180  0.0815 -0.4900
   17SAPC   H2R 2162   1.342   3.040   9.948 -1.6049 -0.5077 -1.4662
   17SAPC   H2S 2163   1.502   2.957   9.900 -0.0398 -0.1952 -0.9086
   17SAPC    C3 2164   1.374   2.514  10.099 -0.4234 -0.2747 -0.0144
   17SAPC    HX 2165   1.375   2.436  10.177 -0.9060 -0.1370  0.1382
   17SAPC    HY 2166   1.482   2.521  10.076  0.3580 -1.6273  2.8344
   17SAPC   O31 2167   1.318   2.464   9.982 -0.5011  0.2334  0.0804
   17SAPC   C31 2168   1.199   2.392   9.988 -0.2756  0.4060  0.4468
   17SAPC   O32 2169   1.156   2.349  10.091  0.2157  0.0063  0.2703
   17SAPC   C32 2170   1.128   2.375   9.850 -0.3957 -0.2942  0.1868
   17SAPC   H2X 2171   1.075   2.278   9.867 -0.0241 -0.5249  0.0500
   17SAPC   H2Y 2172   1.214   2.357   9.783  1.0929  0.2345  1.8912
   17SAPC   C23 2173   1.324   2.881   9.800 -0.5217 -0.1588  0.3830
   17SAPC   H3R 2174   1.214   2.867   9.812 -0.5750  0.1475  0.2761
   17SAPC   H3S 2175   1.362   2.782   9.766 -0.6695  0.7193 -2.6064
   17SAPC   C24 2176   1.350   2.972   9.673  0.2641  0.6497  0.3132
   17SAPC   H4R 2177   1.460   2.985   9.668  0.3163 -0.1546 -1.3494
   17SAPC   H4S 2178   1.318   3.075   9.696 -1.8162  0.0980  0.0479
   17SAPC   C25 2179   1.282   2.927   9.541  0.1954  0.4084 -0.2033
   17SAPC   H5R 2180   1.176   2.954   9.534  0.4824  1.4775 -0.5206
   17SAPC   C26 2181   1.343   2.880   9.430 -0.0111 -0.1332  0.6335
   17SAPC   H6R 2182   1.287   2.849   9.341  0.2618 -0.0261  0.4224
   17SAPC   C27 2183   1.487   2.851   9.412  0.4936  0.6653  0.2987
   17SAPC   H7R 2184   1.504   2.777   9.332  2.9863  2.1909 -0.7134
   17SAPC   H7S 2185   1.520   2.802   9.506  1.2114  1.3493  0.4121
   17SAPC   C28 2186   1.575   2.974   9.392  0.2092  0.3226 -0.9497
   17SAPC   H8R 2187   1.569   3.054   9.468 -1.0453 -1.0585  0.4923
   17SAPC   C29 2188   1.654   2.995   9.293 -0.0511 -0.2316  0.8020
   17SAPC   H9R 2189   1.704   3.093   9.295 -0.2403 -0.1173  0.0985
   17SAPC  C210 2190   1.680   2.906   9.171 -0.2852  0.0100 -0.5241
   17SAPC  H10R 2191   1.707   2.803   9.204 -1.6722 -0.6113 -1.2302
   17SAPC  H10S 2192   1.771   2.946   9.124 -0.3647  1.7338  0.6877
   17SAPC  C211 2193   1.563   2.908   9.076  0.3608 -0.2434  0.5742
   17SAPC  H11R 2194   1.533   3.010   9.048  2.0092 -0.2476 -1.4717
   17SAPC  C212 2195   1.509   2.794   9.016  0.0800 -0.8838 -0.8265
   17SAPC  H12R 2196   1.425   2.814   8.948 -0.6775 -0.0203  0.3101
   17SAPC  C213 2197   1.558   2.651   9.025 -0.4242 -0.3132  0.0596
   17SAPC  H13R 2198   1.663   2.647   9.061 -0.1962 -0.5695 -0.6180
   17SAPC  H13S 2199   1.559   2.610   8.922  3.0859 -0.1920 -0.0861
   17SAPC  C214 2200   1.463   2.558   9.093  0.4928 -1.4262  0.1587
   17SAPC  H14R 2201   1.365   2.561   9.043  0.0176  0.4149  1.1310
   17SAPC  C215 2202   1.482   2.483   9.206 -0.5963  0.1036  0.5263
   17SAPC  H15R 2203   1.411   2.402   9.228  2.0433 -2.4982  0.0707
   17SAPC  C216 2204   1.604   2.471   9.288 -0.1761  0.6358  0.6602
   17SAPC  H16R 2205   1.593   2.540   9.375  0.4015  2.1096 -0.4020
   17SAPC  H16S 2206   1.691   2.516   9.236 -0.1237  0.1054  0.2831
   17SAPC  C217 2207   1.638   2.328   9.339 -0.0877 -0.2690  0.9258
   17SAPC  H17R 2208   1.736   2.331   9.393  0.9437 -1.0956 -0.7959
   17SAPC  H17S 2209   1.661   2.259   9.255 -1.8155  1.1266 -0.7693
   17SAPC  C218 2210   1.541   2.263   9.428  0.0857 -0.1757  0.0677
   17SAPC  H18R 2211   1.583   2.167   9.467  0.2801  0.5491  1.7226
   17SAPC  H18S 2212   1.455   2.235   9.363  0.9714 -1.6038 -0.5485
   17SAPC  C219 2213   1.472   2.344   9.536 -0.6236  0.2213 -0.1472
   17SAPC  H19R 2214   1.373   2.303   9.566  0.4068  0.0711  3.4726
   17SAPC  H19S 2215   1.453   2.448   9.501  0.0128  0.4891  0.2742
   17SAPC  C220 2216   1.569   2.365   9.654 -0.0438  0.4991 -0.4833
   17SAPC  H20R 2217   1.515   2.441   9.714  1.5494  0.3913  1.1987
   17SAPC  H20S 2218   1.655   2.432   9.632 -1.6823  2.3936 -1.4451
   17SAPC  H20T 2219   1.602   2.273   9.707 -3.2212 -0.4085  0.1085
   17SAPC   C33 2220   1.037   2.495   9.826 -0.0659  0.0507 -0.0169
   17SAPC   H3X 2221   1.094   2.590   9.835  0.8900 -0.4607 -0.5460
   17SAPC   H3Y 2222   0.956   2.502   9.903  0.6546  2.8446  0.5926
   17SAPC   C34 2223   0.980   2.497   9.682 -0.7150 -0.8400 -0.5049
   17SAPC   H4X 2224   0.895   2.568   9.687  0.8042  1.0493 -0.2339
   17SAPC   H4Y 2225   0.950   2.395   9.650 -0.5844 -0.9427 -0.3058
   17SAPC   C35 2226   1.070   2.559   9.569 -0.4219 -0.0133  0.4621
   17SAPC   H5X 2227   1.165   2.503   9.585 -1.2926 -1.3687  1.0658
   17SAPC   H5Y 2228   1.088   2.666   9.593 -1.9929  0.0427  1.5383
   17SAPC   C36 2229   1.009   2.545   9.427  0.2346  0.7445 -0.2456
   17SAPC   H6X 2230   0.912   2.596   9.411 -0.5309 -0.3870  0.6398
   17SAPC   H6Y 2231   0.980   2.439   9.405 -2.5595  1.1779  0.9937
   17SAPC   C37 2232   1.107   2.595   9.318  0.7055  0.4455  0.4096
   17SAPC   H7X 2233   1.093   2.521   9.236 -0.0884 -0.3989  1.2742
   17SAPC   H7Y 2234   1.213   2.615   9.344  0.5223  0.2287  1.3816
   17SAPC   C38 2235   1.064   2.732   9.275 -0.4075 -0.1757 -0.0281
   17SAPC   H8X 2236   1.074   2.804   9.359 -0.1419 -1.2531  0.8997
   17SAPC   H8Y 2237   0.958   2.730   9.243  0.2247 -0.5251 -2.3250
   17SAPC   C39 2238   1.123   2.777   9.144  0.0305  0.2786 -0.1381
   17SAPC   H9X 2239   1.090   2.712   9.061  2.1996 -0.3369 -0.5879
   17SAPC   H9Y 2240   1.234   2.769   9.150  0.0470  0.9715  0.7688
   17SAPC  C310 2241   1.095   2.926   9.125  0.0261 -0.2599 -0.1573
   17SAPC  H10X 2242   1.139   2.985   9.208  2.6189  0.4008 -1.8763
   17SAPC  H10Y 2243   0.985   2.944   9.130  0.3633  1.7996  1.0501
   17SAPC  C311 2244   1.139   2.997   8.997 -0.4205 -1.0129 -0.2997
   17SAPC  H11X 2245   1.249   3.013   8.986 -0.9744  3.3776 -1.1277
   17SAPC  H11Y 2246   1.094   3.098   8.991  0.6948 -0.5773 -2.5438
   17SAPC  C312 2247   1.095   2.924   8.871  0.4500  0.3136  0.1233
   17SAPC  H12X 2248   0.984   2.929   8.866  0.4856  0.6006 -0.5031
   17SAPC  H12Y 2249   1.118   2.816   8.880  2.3115  0.7662  1.3122
   17SAPC  C313 2250   1.153   2.973   8.744 -0.1687 -0.6522 -0.1299
   17SAPC  H13X 2251   1.263   2.963   8.757 -0.4017 -0.6586  2.3671
   17SAPC  H13Y 2252   1.123   3.077   8.721  1.0548  0.0951  1.4968
   17SAPC  C314 2253   1.126   2.895   8.613  0.1913 -0.2532  0.4471
   17SAPC  H14X 2254   1.144   2.787   8.631  0.9126  0.0099  1.3434
   17SAPC  H14Y 2255   1.197   2.926   8.532 -0.0992 -0.7820 -0.0167
   17SAPC  C315 2256   0.983   2.918   8.555 -1.1297 -0.3342 -1.0076
   17SAPC  H15X 2257   0.920   2.898   8.645 -0.6269 -0.2731 -0.6336
   17SAPC  H15Y 2258   0.959   2.834   8.486 -0.2024 -2.3587  0.9891
   17SAPC  C316 2259   0.952   3.058   8.494  0.1513  0.1645  0.1283
   17SAPC  H16X 2260   0.965   3.053   8.384 -1.5707 -3.3048 -0.0499
   17SAPC  H16Y 2261   1.018   3.136   8.537  1.0604 -0.6483  0.2286
   17SAPC  C317 2262   0.800   3.096   8.506  0.0204 -0.1800  0.4307
   17SAPC  H17X 2263   0.792   3.195   8.457  0.2413 -0.0674  0.6210
   17SAPC  H17Y 2264   0.771   3.104   8.613  2.6730 -0.9391  1.2694
   17SAPC  C318 2265   0.710   2.988   8.439 -0.3786  0.1008  0.2270
   17SAPC  H18X 2266   0.723   2.895   8.498 -0.2534  1.0823  1.8152
   17SAPC  H18Y 2267   0.604   3.020   8.429 -0.4996 -0.1684  0.6198
   17SAPC  H18Z 2268   0.745   2.971   8.335 -0.1936  0.2339  0.2677
   18SAPC     N 2269   0.656   2.546  10.309 -0.0290  0.8035 -0.7039
   18SAPC   C12 2270   0.695   2.526  10.160 -0.2838  0.3558  0.3084
   18SAPC  H12A 2271   0.767   2.605  10.145  0.6605 -0.4763  0.3440
   18SAPC  H12B 2272   0.598   2.538  10.114 -0.7637 -0.2019  1.1456
   18SAPC   C13 2273   0.620   2.692  10.333 -0.1144  0.1702 -0.2159
   18SAPC  H13A 2274   0.580   2.731  10.425 -1.0696  1.9970 -1.3448
   18SAPC  H13B 2275   0.713   2.746  10.327  1.2231 -2.0888 -5.0632
   18SAPC  H13C 2276   0.542   2.734  10.270 -1.8613  0.5348  2.0539
   18SAPC   C14 2277   0.543   2.449  10.334  0.3005 -0.4568  0.5149
   18SAPC  H14A 2278   0.580   2.350  10.311  2.8140  0.8968 -1.8702
   18SAPC  H14B 2279   0.506   2.458  10.436  1.8104  0.3575  1.0235
   18SAPC  H14C 2280   0.465   2.473  10.264  0.0882 -1.0759  0.5353
   18SAPC   C15 2281   0.764   2.515  10.411 -0.4494  0.4095 -0.2764
   18SAPC  H15A 2282   0.801   2.419  10.379 -0.0233  0.6706 -0.5821
   18SAPC  H15B 2283   0.841   2.591  10.410  0.7068 -0.7391 -1.4866
   18SAPC  H15C 2284   0.717   2.501  10.507 -0.8582 -1.0076 -0.6554
   18SAPC   C11 2285   0.753   2.397  10.096  0.3610  0.4593 -0.2771
   18SAPC  H11A 2286   0.855   2.381  10.137 -0.1584 -1.4949  0.3773
   18SAPC  H11B 2287   0.750   2.423   9.988 -2.7334  3.0109  0.2810
   18SAPC     P 2288   0.742   2.149  10.195 -0.5702  0.1812 -0.3278
   18SAPC   O13 2289   0.834   2.185  10.308  0.6626 -0.5055 -0.0401
   18SAPC   O14 2290   0.631   2.047  10.218 -1.0219 -0.3307  0.7097
   18SAPC   O12 2291   0.668   2.282  10.139  0.3797  0.8267 -0.7287
   18SAPC   O11 2292   0.835   2.100  10.074  0.2997 -0.1229 -0.2503
   18SAPC    C1 2293   0.793   2.116   9.934  0.0079 -0.3191 -0.1892
   18SAPC    HA 2294   0.688   2.154   9.928 -0.3451 -1.3070 -0.4808
   18SAPC    HB 2295   0.857   2.189   9.881  0.5364 -2.2179 -2.2996
   18SAPC    C2 2296   0.807   1.990   9.852 -0.0222  0.6247 -0.0130
   18SAPC    HS 2297   0.768   2.009   9.749  1.6677 -0.1956 -0.8405
   18SAPC   O21 2298   0.727   1.891   9.920 -0.3023 -0.0280  0.3793
   18SAPC   C21 2299   0.600   1.886   9.884 -0.0850  0.0317 -0.5449
   18SAPC   O22 2300   0.539   1.964   9.810 -0.5878  0.4721 -0.2003
   18SAPC   C22 2301   0.527   1.766   9.945  0.3264 -0.1058 -0.0203
   18SAPC   H2R 2302   0.512   1.678   9.879  1.3109 -0.1391 -0.2199
   18SAPC   H2S 2303   0.599   1.733  10.024  1.7224  2.0048 -0.3291
   18SAPC    C3 2304   0.950   1.939   9.835 -0.1127  0.5131 -0.3942
   18SAPC    HX 2305   0.954   1.835   9.796 -1.7643  0.2445  0.0599
   18SAPC    HY 2306   0.983   1.931   9.941  1.6264  1.1580 -0.8574
   18SAPC   O31 2307   1.022   2.037   9.759  0.1547  0.3882  0.4524
   18SAPC   C31 2308   1.125   1.976   9.690 -0.8579 -0.9769  0.1200
   18SAPC   O32 2309   1.169   1.865   9.709 -0.1602 -0.3801 -0.5989
   18SAPC   C32 2310   1.173   2.082   9.584 -0.1504 -0.0559  0.1573
   18SAPC   H2X 2311   1.270   2.124   9.619  0.9595 -0.8018 -1.8532
   18SAPC   H2Y 2312   1.098   2.164   9.585 -0.4015 -0.2425 -1.1678
   18SAPC   C23 2313   0.392   1.804  10.015 -0.4294  0.1016 -0.3458
   18SAPC   H3R 2314   0.386   1.901  10.068 -1.6926 -0.7005  1.0600
   18SAPC   H3S 2315   0.378   1.731  10.097 -1.5838  0.2957 -0.3498
   18SAPC   C24 2316   0.273   1.792   9.920  0.5958  0.5100 -0.6568
   18SAPC   H4R 2317   0.257   1.691   9.876  0.3799 -0.0539  0.6812
   18SAPC   H4S 2318   0.294   1.860   9.834  0.3164  0.0875 -1.0604
   18SAPC   C25 2319   0.141   1.811   9.987  0.1714  0.6037 -0.5068
   18SAPC   H5R 2320   0.108   1.749  10.071  3.3768  0.9603  1.1428
   18SAPC   C26 2321   0.049   1.904   9.952 -0.4385  0.1934 -0.2980
   18SAPC   H6R 2322  -0.049   1.900  10.003 -0.3323 -1.5093 -0.1713
   18SAPC   C27 2323   0.056   2.005   9.839  0.3866 -0.4247 -0.3553
   18SAPC   H7R 2324   0.121   1.973   9.755 -1.5107 -0.1161 -2.0231
   18SAPC   H7S 2325   0.093   2.105   9.870 -1.0219  0.4719 -1.3955
   18SAPC   C28 2326  -0.081   2.030   9.791 -0.9991 -0.2467 -0.6125
   18SAPC   H8R 2327  -0.146   2.067   9.872 -0.5563  0.7220 -0.6875
   18SAPC   C29 2328  -0.123   2.029   9.667  0.1469 -0.7731 -0.3745
   18SAPC   H9R 2329  -0.224   2.057   9.634  0.1913  0.3614  0.3893
   18SAPC  C210 2330  -0.040   2.001   9.548 -0.6236 -0.4027 -0.0945
   18SAPC  H10R 2331   0.055   2.059   9.550 -1.6632  1.4904 -1.6991
   18SAPC  H10S 2332  -0.095   2.025   9.454 -0.4976  0.9992  0.1747
   18SAPC  C211 2333  -0.012   1.852   9.545 -0.0803 -0.0346  0.5892
   18SAPC  H11R 2334  -0.010   1.799   9.642 -0.5791 -0.4975  0.3543
   18SAPC  C212 2335   0.012   1.776   9.437 -0.2138 -0.0464  0.3125
   18SAPC  H12R 2336   0.020   1.668   9.457 -2.3728 -0.3738 -0.2789
   18SAPC  C213 2337   0.009   1.805   9.293  0.6063  0.0354  0.1323
   18SAPC  H13R 2338  -0.062   1.887   9.267  0.6243  0.2572  0.7791
   18SAPC  H13S 2339  -0.048   1.722   9.246  1.1189 -1.2760  1.7563
   18SAPC  C214 2340   0.142   1.839   9.222 -0.2448  0.2935  0.3422
   18SAPC  H14R 2341   0.222   1.856   9.295 -0.7378  0.1368  0.9380
   18SAPC  C215 2342   0.156   1.850   9.088  0.0643  0.0271  0.0638
   18SAPC  H15R 2343   0.255   1.872   9.047 -0.1405 -1.3087 -1.2565
   18SAPC  C216 2344   0.035   1.836   8.991 -0.1398 -0.2130  0.2558
   18SAPC  H16R 2345  -0.052   1.887   9.037  0.3565  0.5938  0.3195
   18SAPC  H16S 2346   0.005   1.732   8.963 -1.9308  0.5552 -0.9022
   18SAPC  C217 2347   0.072   1.895   8.855  0.8197 -0.2241 -0.6725
   18SAPC  H17R 2348   0.179   1.871   8.836  1.1715 -1.3384  2.1932
   18SAPC  H17S 2349   0.070   2.005   8.867  0.7441 -0.4108  1.4015
   18SAPC  C218 2350  -0.030   1.844   8.754  0.8325  0.4518 -0.0824
   18SAPC  H18R 2351  -0.132   1.846   8.797 -0.9396 -0.2631 -3.8775
   18SAPC  H18S 2352  -0.005   1.738   8.730 -1.8367 -0.3048  0.1575
   18SAPC  C219 2353  -0.030   1.925   8.627  0.1802  0.3934  0.0792
   18SAPC  H19R 2354   0.077   1.951   8.609  0.2814 -0.3154 -0.3601
   18SAPC  H19S 2355  -0.096   2.010   8.653 -0.7633 -0.1176 -0.5876
   18SAPC  C220 2356  -0.080   1.850   8.497  0.1811 -0.0945 -0.0299
   18SAPC  H20R 2357  -0.165   1.789   8.534 -0.3420  0.7766  0.2513
   18SAPC  H20S 2358   0.003   1.791   8.454 -0.2429 -1.4968  1.0038
   18SAPC  H20T 2359  -0.116   1.936   8.435 -0.9980  1.5227  2.7194
   18SAPC   C33 2360   1.181   2.024   9.442 -0.6727  0.3657 -0.0598
   18SAPC   H3X 2361   1.257   1.943   9.437  0.1955  1.2066 -1.2592
   18SAPC   H3Y 2362   1.212   2.108   9.376 -1.0854 -0.4511 -1.3322
   18SAPC   C34 2363   1.052   1.972   9.372 -0.5178 -0.0298  0.6027
   18SAPC   H4X 2364   0.983   2.056   9.350  0.1989  0.3021 -0.4802
   18SAPC   H4Y 2365   0.997   1.906   9.442 -0.1964  0.0231  0.9112
   18SAPC   C35 2366   1.093   1.894   9.252  0.4581  0.2126  0.0322
   18SAPC   H5X 2367   1.022   1.828   9.198 -0.7149  0.5311  1.1323
   18SAPC   H5Y 2368   1.165   1.818   9.290  0.4317 -1.3711 -2.8125
   18SAPC   C36 2369   1.158   1.970   9.130 -0.3007 -0.1035 -0.9976
   18SAPC   H6X 2370   1.239   1.909   9.086  0.6729 -1.3251  2.2422
   18SAPC   H6Y 2371   1.199   2.069   9.158 -2.3007  1.2052 -2.3842
   18SAPC   C37 2372   1.054   2.018   9.025 -0.5040  0.2342 -0.0927
   18SAPC   H7X 2373   0.983   2.091   9.068 -0.3734  0.8386 -0.8861
   18SAPC   H7Y 2374   0.994   1.928   9.000 -0.4301  0.2318 -0.2634
   18SAPC   C38 2375   1.106   2.072   8.890 -0.5424  0.4886  0.0126
   18SAPC   H8X 2376   1.194   2.136   8.916  1.3254 -1.2978 -1.6498
   18SAPC   H8Y 2377   1.015   2.123   8.850 -1.5348 -2.2579 -1.4481
   18SAPC   C39 2378   1.147   1.961   8.788 -0.5569  0.0691 -0.3375
   18SAPC   H9X 2379   1.058   1.899   8.761 -1.1173  1.7364 -2.5582
   18SAPC   H9Y 2380   1.213   1.888   8.840 -3.4823 -2.5112  0.0437
   18SAPC  C310 2381   1.234   2.006   8.680 -0.0095  0.2031 -0.1589
   18SAPC  H10X 2382   1.330   2.056   8.706  0.4114  0.5084 -2.1244
   18SAPC  H10Y 2383   1.176   2.088   8.632  1.1938  0.6414 -0.9149
   18SAPC  C311 2384   1.257   1.900   8.577  0.0082  0.5911  0.2403
   18SAPC  H11X 2385   1.169   1.833   8.565  1.3426 -1.2688  0.4199
   18SAPC  H11Y 2386   1.339   1.834   8.614  0.7258  1.5253  0.3560
   18SAPC  C312 2387   1.289   1.966   8.437 -0.0309 -0.1912  0.0441
   18SAPC  H12X 2388   1.206   2.025   8.393  0.3966  0.8711  0.6195
   18SAPC  H12Y 2389   1.311   1.889   8.359  0.1955 -0.5334  0.4399
   18SAPC  C313 2390   1.422   2.049   8.421  0.1444 -0.2137 -0.0652
   18SAPC  H13X 2391   1.422   2.142   8.482 -0.3929  0.5005 -1.1269
   18SAPC  H13Y 2392   1.439   2.089   8.319 -0.2530  2.4732  0.8394
   18SAPC  C314 2393   1.548   1.976   8.470  0.3523 -0.3549  0.5408
   18SAPC  H14X 2394   1.550   1.883   8.409  0.2674 -1.1624  1.7138
   18SAPC  H14Y 2395   1.549   1.942   8.576  3.0803 -1.5164  0.2388
   18SAPC  C315 2396   1.670   2.066   8.440 -0.9058  0.6515 -0.5071
   18SAPC  H15X 2397   1.665   2.122   8.345  1.2859  0.4321 -0.8027
   18SAPC  H15Y 2398   1.756   1.996   8.429  0.4311  1.9711  1.0508
   18SAPC  C316 2399   1.712   2.154   8.556 -1.1455  0.4759 -0.4543
   18SAPC  H16X 2400   1.726   2.094   8.648 -1.2571 -0.0727 -0.7872
   18SAPC  H16Y 2401   1.631   2.227   8.577 -1.3121  0.0711  0.3541
   18SAPC  C317 2402   1.839   2.234   8.515 -0.2964  0.4509  0.7336
   18SAPC  H17X 2403   1.800   2.323   8.461  2.1581  2.3000  1.8274
   18SAPC  H17Y 2404   1.917   2.184   8.454 -1.2951 -0.2000 -0.0594
   18SAPC  C318 2405   1.904   2.291   8.638 -0.4590  0.1516 -0.3080
   18SAPC  H18X 2406   1.945   2.205   8.694  0.3566  0.7600  0.0589
   18SAPC  H18Y 2407   1.828   2.342   8.701 -1.6021  0.9859 -2.2568
   18SAPC  H18Z 2408   1.989   2.354   8.603 -0.2090 -1.0241 -1.9168
   19SAPC     N 2409   0.031   2.943  10.680 -0.2028 -0.5819  0.5172
   19SAPC   C12 2410  -0.100   2.891  10.731  0.4729  0.9796 -0.1285
   19SAPC  H12A 2411  -0.179   2.964  10.716 -0.7108 -0.4445 -1.0795
   19SAPC  H12B 2412  -0.099   2.871  10.837  0.1709 -0.3114 -0.3510
   19SAPC   C13 2413   0.129   2.832  10.677  0.1268  0.7958  0.4872
   19SAPC  H13A 2414   0.143   2.785  10.773  2.1879  1.7217  0.6939
   19SAPC  H13B 2415   0.095   2.754  10.610 -2.7375  2.9714 -0.8201
   19SAPC  H13C 2416   0.228   2.861  10.645 -0.0120  1.9785  1.0566
   19SAPC   C14 2417   0.023   2.997  10.541 -0.8792 -0.1081  0.9119
   19SAPC  H14A 2418   0.123   3.024  10.513 -0.5570 -0.0346  2.0708
   19SAPC  H14B 2419   0.001   2.914  10.475 -0.0114 -0.3108  0.8703
   19SAPC  H14C 2420  -0.051   3.073  10.520  0.5126  0.3981 -3.1571
   19SAPC   C15 2421   0.075   3.055  10.774 -0.1352  0.1311 -0.0177
   19SAPC  H15A 2422   0.070   3.021  10.876 -0.5378  1.8393  0.5670
   19SAPC  H15B 2423   0.178   3.085  10.758  0.1970 -1.1480 -0.3576
   19SAPC  H15C 2424   0.007   3.135  10.748  0.3106  0.5182 -0.0184
   19SAPC   C11 2425  -0.166   2.765  10.664  0.6194 -0.7759 -0.0195
   19SAPC  H11A 2426  -0.267   2.756  10.709  0.7580  2.2570  1.1184
   19SAPC  H11B 2427  -0.101   2.678  10.687 -1.5193 -2.3959  0.1938
   19SAPC     P 2428  -0.125   2.709  10.404  0.1300 -0.1866  0.1021
   19SAPC   O13 2429  -0.008   2.631  10.456 -0.3211 -0.3083 -0.4787
   19SAPC   O14 2430  -0.234   2.625  10.345  0.9241  0.1885  0.4406
   19SAPC   O12 2431  -0.182   2.798  10.524 -0.1515 -0.3086 -0.0774
   19SAPC   O11 2432  -0.068   2.809  10.301 -0.0341 -0.5310  0.2505
   19SAPC    C1 2433  -0.124   2.843  10.180 -0.1579 -0.1247  0.5572
   19SAPC    HA 2434  -0.138   2.758  10.110 -2.6845  0.0550  0.7352
   19SAPC    HB 2435  -0.219   2.898  10.202  1.2950  2.0645  1.7416
   19SAPC    C2 2436  -0.041   2.946  10.103 -0.6235 -0.6355 -0.9845
   19SAPC    HS 2437  -0.056   3.047  10.147  2.5682  0.6600 -2.5652
   19SAPC   O21 2438  -0.087   2.925   9.970  0.1128  0.0315  0.2217
   19SAPC   C21 2439  -0.060   3.031   9.890 -0.0809  0.6590 -0.3198
   19SAPC   O22 2440  -0.037   3.140   9.934 -0.0564  0.0676  0.1785
   19SAPC   C22 2441  -0.055   2.997   9.750  0.5023 -0.3722  0.8288
   19SAPC   H2R 2442   0.047   2.960   9.726  0.1580  0.1319 -1.5799
   19SAPC   H2S 2443  -0.133   2.924   9.722  1.4623 -1.7040  1.5127
   19SAPC    C3 2444   0.114   2.915  10.118 -0.5568 -0.5479 -0.6323
   19SAPC    HX 2445   0.150   2.812  10.096  3.3224  0.9711 -2.4321
   19SAPC    HY 2446   0.137   2.914  10.226 -0.3761  0.9235 -0.6390
   19SAPC   O31 2447   0.192   3.011  10.040  0.0327  0.6621  0.3001
   19SAPC   C31 2448   0.220   3.131  10.096  0.6200 -0.0166 -0.1076
   19SAPC   O32 2449   0.178   3.172  10.200  0.2209  0.2474 -0.6019
   19SAPC   C32 2450   0.328   3.191  10.002  0.1108 -0.6832  0.4518
   19SAPC   H2X 2451   0.293   3.204   9.897 -0.2493 -0.2306  0.6256
   19SAPC   H2Y 2452   0.411   3.117   9.991  0.6768 -0.1216  0.8175
   19SAPC   C23 2453  -0.059   3.124   9.655 -0.6273  0.1170  0.3742
   19SAPC   H3R 2454   0.012   3.205   9.683 -0.9266  0.8091 -0.8280
   19SAPC   H3S 2455  -0.155   3.177   9.673 -0.1668  1.5163 -1.0452
   19SAPC   C24 2456  -0.046   3.100   9.505 -0.2361  0.5383 -0.3947
   19SAPC   H4R 2457  -0.097   3.003   9.484 -0.3212  0.7263 -1.0705
   19SAPC   H4S 2458   0.059   3.078   9.477 -0.0998  1.5171 -0.6676
   19SAPC   C25 2459  -0.095   3.218   9.424  0.8843 -0.5345  0.4120
   19SAPC   H5R 2460  -0.056   3.313   9.464  0.9421 -0.3901  0.0146
   19SAPC   C26 2461  -0.180   3.211   9.321 -0.0516 -0.2286 -0.3814
   19SAPC   H6R 2462  -0.210   3.304   9.269  1.5667 -0.8405 -2.5947
   19SAPC   C27 2463  -0.233   3.085   9.244  0.5794 -0.0275 -0.6345
   19SAPC   H7R 2464  -0.340   3.096   9.217  0.5016  0.4064 -0.1735
   19SAPC   H7S 2465  -0.226   2.991   9.302 -1.1682 -1.4525 -2.5616
   19SAPC   C28 2466  -0.150   3.070   9.124  0.0369  0.5425  0.0758
   19SAPC   H8R 2467  -0.051   3.027   9.147  0.2452  1.0587  0.1870
   19SAPC   C29 2468  -0.171   3.102   8.994 -0.0331  0.5064  0.9243
   19SAPC   H9R 2469  -0.097   3.068   8.921 -1.1330  0.2005 -0.0807
   19SAPC  C210 2470  -0.297   3.164   8.939  0.5122 -0.5066 -0.0891
   19SAPC  H10R 2471  -0.275   3.256   8.880 -1.2814  0.3885  0.5576
   19SAPC  H10S 2472  -0.349   3.201   9.030  1.1721 -1.4515  0.6892
   19SAPC  C211 2473  -0.384   3.061   8.866  0.1112  0.1402  0.3903
   19SAPC  H11R 2474  -0.371   2.959   8.903 -0.4501 -1.0774 -2.4996
   19SAPC  C212 2475  -0.472   3.078   8.758 -0.3955  0.1426 -0.3315
   19SAPC  H12R 2476  -0.525   2.986   8.727  0.7237 -0.0488 -1.8347
   19SAPC  C213 2477  -0.510   3.191   8.669 -0.8865 -0.4096  0.2849
   19SAPC  H13R 2478  -0.518   3.279   8.736  0.7645 -0.9559  1.2490
   19SAPC  H13S 2479  -0.613   3.180   8.629 -1.2570  1.5930  0.5584
   19SAPC  C214 2480  -0.410   3.220   8.556  0.2078  0.2140  0.2533
   19SAPC  H14R 2481  -0.305   3.196   8.578  0.5168 -1.9338 -2.9245
   19SAPC  C215 2482  -0.437   3.281   8.439  0.4533  0.5296  0.0431
   19SAPC  H15R 2483  -0.356   3.308   8.369 -0.0865 -1.4034 -1.4273
   19SAPC  C216 2484  -0.575   3.314   8.383 -0.2445  0.0740 -0.4661
   19SAPC  H16R 2485  -0.573   3.391   8.302 -3.5576  0.6424 -0.1354
   19SAPC  H16S 2486  -0.638   3.347   8.467 -2.1103  0.6981 -2.0316
   19SAPC  C217 2487  -0.652   3.198   8.325  0.1095 -0.6720  0.3120
   19SAPC  H17R 2488  -0.759   3.229   8.328  0.0020 -1.0454  3.4527
   19SAPC  H17S 2489  -0.657   3.108   8.390 -1.4303 -1.5384 -0.9429
   19SAPC  C218 2490  -0.621   3.166   8.182  0.1310 -0.1100 -0.4222
   19SAPC  H18R 2491  -0.515   3.189   8.160 -0.0270 -0.2843 -1.4060
   19SAPC  H18S 2492  -0.674   3.239   8.118  1.9940  2.5657  0.8785
   19SAPC  C219 2493  -0.655   3.025   8.151  1.0123  0.3692 -0.2258
   19SAPC  H19R 2494  -0.755   3.003   8.194  0.5805 -0.7527 -1.7204
   19SAPC  H19S 2495  -0.587   2.960   8.210 -2.1703 -0.3870  2.9235
   19SAPC  C220 2496  -0.635   2.982   8.003 -0.3805  0.1945 -0.1241
   19SAPC  H20R 2497  -0.536   3.023   7.974 -1.6055  3.5284  0.0091
   19SAPC  H20S 2498  -0.718   3.026   7.944  0.3692  0.8487 -0.7061
   19SAPC  H20T 2499  -0.651   2.873   7.991  2.2408 -0.3780  0.9147
   19SAPC   C33 2500   0.382   3.321  10.062  0.4542  0.2121  0.3634
   19SAPC   H3X 2501   0.479   3.347  10.014 -0.5094  2.0155 -0.7238
   19SAPC   H3Y 2502   0.394   3.309  10.171  1.4192  0.6904  0.3194
   19SAPC   C34 2503   0.285   3.432  10.031 -0.1592 -0.0590  0.8323
   19SAPC   H4X 2504   0.294   3.513  10.108 -0.6216 -0.7697  1.6480
   19SAPC   H4Y 2505   0.178   3.401  10.035 -0.5043  0.8529 -0.5658
   19SAPC   C35 2506   0.302   3.497   9.892 -0.3905  0.0787 -0.3346
   19SAPC   H5X 2507   0.315   3.415   9.818  0.7438  1.0100 -1.2101
   19SAPC   H5Y 2508   0.394   3.560   9.893 -0.7361  0.5952  0.6033
   19SAPC   C36 2509   0.189   3.595   9.848 -0.3333 -0.4167  0.1719
   19SAPC   H6X 2510   0.193   3.680   9.920 -2.1188  0.7502 -1.0155
   19SAPC   H6Y 2511   0.089   3.550   9.867 -0.1296 -0.4185  1.3559
   19SAPC   C37 2512   0.192   3.645   9.697  0.4005 -0.4123  0.4005
   19SAPC   H7X 2513   0.301   3.664   9.685  0.2623  1.2289  1.4642
   19SAPC   H7Y 2514   0.136   3.741   9.694 -1.9030 -1.6585 -2.6675
   19SAPC   C38 2515   0.117   3.559   9.589 -0.3265  0.3515  0.2394
   19SAPC   H8X 2516   0.007   3.559   9.606 -1.1358 -1.1856 -3.7749
   19SAPC   H8Y 2517   0.151   3.454   9.580  0.3714  0.7504 -3.4517
   19SAPC   C39 2518   0.129   3.606   9.446 -0.3982  0.1043  0.8017
   19SAPC   H9X 2519   0.231   3.614   9.403 -1.0785  1.0250 -0.7443
   19SAPC   H9Y 2520   0.090   3.709   9.436 -1.1740 -0.1580  1.0172
   19SAPC  C310 2521   0.064   3.517   9.341  0.0027  0.5178 -0.0809
   19SAPC  H10X 2522  -0.044   3.521   9.367 -0.5023  1.7243 -2.0884
   19SAPC  H10Y 2523   0.108   3.418   9.364  1.9350  1.4575  0.4470
   19SAPC  C311 2524   0.085   3.554   9.196  0.9444  0.0487  0.5181
   19SAPC  H11X 2525   0.193   3.537   9.174  1.1649  1.6681  0.1992
   19SAPC  H11Y 2526   0.053   3.658   9.172 -2.8634 -1.2429 -0.6969
   19SAPC  C312 2527  -0.005   3.470   9.098 -0.7819 -0.5022 -0.5877
   19SAPC  H12X 2528  -0.111   3.475   9.132 -0.5340 -0.1737  0.1655
   19SAPC  H12Y 2529   0.026   3.365   9.118  0.3177  0.0245  0.5994
   19SAPC  C313 2530   0.013   3.520   8.953  0.6060  0.1007  0.0119
   19SAPC  H13X 2531   0.120   3.508   8.926  0.0986 -0.8960 -1.7179
   19SAPC  H13Y 2532  -0.005   3.629   8.949 -0.4927  0.0214  1.8707
   19SAPC  C314 2533  -0.089   3.456   8.855 -1.0863 -0.1440  0.0479
   19SAPC  H14X 2534  -0.194   3.480   8.882 -0.9330 -1.1016  1.5970
   19SAPC  H14Y 2535  -0.083   3.346   8.871  1.1668  0.1208  1.3369
   19SAPC  C315 2536  -0.065   3.496   8.710  0.7920  0.7238 -0.9421
   19SAPC  H15X 2537  -0.160   3.479   8.656 -0.1580  1.5264  0.3997
   19SAPC  H15Y 2538   0.025   3.451   8.663  0.4866 -1.4307  0.3726
   19SAPC  C316 2539  -0.032   3.648   8.701 -0.5150  0.1290 -0.3604
   19SAPC  H16X 2540   0.074   3.658   8.733 -0.4007  0.4233 -0.8274
   19SAPC  H16Y 2541  -0.093   3.716   8.764 -0.3761 -0.7454  0.7577
   19SAPC  C317 2542  -0.011   3.690   8.553  0.2401 -0.5307 -0.1115
   19SAPC  H17X 2543   0.031   3.793   8.547  0.0901 -0.2964  1.9929
   19SAPC  H17Y 2544  -0.106   3.697   8.497  0.3696  0.3475 -0.2370
   19SAPC  C318 2545   0.086   3.606   8.469  0.1193  0.0793 -0.5206
   19SAPC  H18X 2546   0.072   3.644   8.365  0.2480 -0.1958 -0.6389
   19SAPC  H18Y 2547   0.066   3.497   8.464  1.0843 -0.1729  0.6450
   19SAPC  H18Z 2548   0.195   3.622   8.483 -0.0840  0.4564  0.7285
   20SAPC     N 2549   5.635   6.613  11.139 -0.8876 -0.0965  0.6286
   20SAPC   C12 2550   5.565   6.752  11.137 -0.5745 -0.8994  0.2042
   20SAPC  H12A 2551   5.634   6.829  11.169 -1.9231  0.9216 -1.0151
   20SAPC  H12B 2552   5.491   6.752  11.215  0.2853 -1.2829  1.0414
   20SAPC   C13 2553   5.692   6.599  11.273  0.2889 -0.0731 -0.0353
   20SAPC  H13A 2554   5.761   6.516  11.274 -1.1532 -1.4078  3.4434
   20SAPC  H13B 2555   5.749   6.685  11.305 -0.9373  0.3957  0.9538
   20SAPC  H13C 2556   5.623   6.566  11.349  0.5754 -2.6234 -0.7696
   20SAPC   C14 2557   5.541   6.496  11.116  0.7031 -0.8394 -0.0569
   20SAPC  H14A 2558   5.481   6.472  11.202 -1.1427 -0.3966 -1.1471
   20SAPC  H14B 2559   5.472   6.534  11.042 -0.5490  2.4118  2.5161
   20SAPC  H14C 2560   5.599   6.412  11.080  1.0736  0.7668 -3.7124
   20SAPC   C15 2561   5.740   6.605  11.039 -0.5435  0.1529 -0.6408
   20SAPC  H15A 2562   5.800   6.694  11.025  0.0019 -0.2723 -1.1279
   20SAPC  H15B 2563   5.805   6.519  11.053 -1.5382 -0.3039  1.4480
   20SAPC  H15C 2564   5.704   6.592  10.938 -0.0944 -1.3846 -0.6390
   20SAPC   C11 2565   5.495   6.804  11.007 -0.3663 -0.2619 -1.0501
   20SAPC  H11A 2566   5.465   6.908  11.030  0.0892 -0.5119  0.8561
   20SAPC  H11B 2567   5.401   6.746  10.994 -1.6331  1.6965 -0.9452
   20SAPC     P 2568   5.633   6.908  10.829 -0.1444  0.1004  0.1507
   20SAPC   O13 2569   5.636   7.019  10.926 -0.6134  0.3117  0.0921
   20SAPC   O14 2570   5.760   6.862  10.772 -0.1350  0.0482 -0.0919
   20SAPC   O12 2571   5.573   6.785  10.892  0.0345  0.3997  0.0957
   20SAPC   O11 2572   5.540   6.956  10.708 -0.1995  0.0209 -0.2728
   20SAPC    C1 2573   5.417   6.894  10.683  1.0508  0.1785 -0.1177
   20SAPC    HA 2574   5.376   6.827  10.761 -2.2875  1.3182 -0.7308
   20SAPC    HB 2575   5.339   6.973  10.676  1.8037  0.8245 -1.7453
   20SAPC    C2 2576   5.422   6.812  10.556  0.7948  0.2312  0.7047
   20SAPC    HS 2577   5.512   6.749  10.567  1.5993  0.2768 -3.8506
   20SAPC   O21 2578   5.434   6.914  10.454 -0.5216  0.5794  0.4465
   20SAPC   C21 2579   5.522   6.881  10.363 -0.1605 -0.3482  0.8371
   20SAPC   O22 2580   5.584   6.775  10.361 -0.2021 -0.8811 -0.3757
   20SAPC   C22 2581   5.558   7.001  10.278  0.3770  1.0064 -0.0366
   20SAPC   H2R 2582   5.650   7.041  10.324  2.9593 -4.0139 -0.1303
   20SAPC   H2S 2583   5.582   6.971  10.173 -0.2379  0.3794 -0.0135
   20SAPC    C3 2584   5.291   6.724  10.537  0.0930 -1.0149  0.4707
   20SAPC    HX 2585   5.206   6.794  10.555  2.7179  2.0294  1.9460
   20SAPC    HY 2586   5.298   6.647  10.617 -0.8229 -0.6241  0.9495
   20SAPC   O31 2587   5.267   6.675  10.406  0.9354 -0.4322  0.3002
   20SAPC   C31 2588   5.358   6.590  10.362 -0.1318  0.3529  0.4977
   20SAPC   O32 2589   5.427   6.519  10.430  0.1585 -0.3201  0.2984
   20SAPC   C32 2590   5.366   6.602  10.205 -0.3063  0.6671  0.0488
   20SAPC   H2X 2591   5.435   6.516  10.189 -0.9875 -0.6364  3.2897
   20SAPC   H2Y 2592   5.423   6.693  10.175 -0.4240  0.2271 -1.6251
   20SAPC   C23 2593   5.451   7.106  10.262 -0.4591 -0.3431  0.3292
   20SAPC   H3R 2594   5.428   7.148  10.363 -0.1559 -0.1457  0.3159
   20SAPC   H3S 2595   5.365   7.056  10.214 -1.4856  1.1829  0.4967
   20SAPC   C24 2596   5.500   7.218  10.163  0.3841  0.3181 -0.3726
   20SAPC   H4R 2597   5.559   7.170  10.082 -0.4975 -4.1381  1.3720
   20SAPC   H4S 2598   5.571   7.272  10.229  2.0114 -2.0441 -0.0777
   20SAPC   C25 2599   5.389   7.299  10.102  0.0653 -0.8390  0.4441
   20SAPC   H5R 2600   5.316   7.340  10.174 -2.8772 -2.0501 -1.6260
   20SAPC   C26 2601   5.366   7.319   9.969 -0.3714 -0.7102 -0.5726
   20SAPC   H6R 2602   5.294   7.397   9.941  1.5269  2.2448  2.0433
   20SAPC   C27 2603   5.450   7.270   9.857  0.1306  0.6619  0.7768
   20SAPC   H7R 2604   5.556   7.240   9.868  0.5864  1.8330 -0.1300
   20SAPC   H7S 2605   5.455   7.355   9.784 -1.9640 -0.7193 -1.0981
   20SAPC   C28 2606   5.387   7.153   9.792 -0.0719  0.1586 -0.6298
   20SAPC   H8R 2607   5.428   7.055   9.820 -0.6361 -0.1072 -0.7259
   20SAPC   C29 2608   5.290   7.141   9.696  0.2560 -0.0854 -0.3760
   20SAPC   H9R 2609   5.251   7.040   9.681  2.1831 -0.7971 -0.9622
   20SAPC  C210 2610   5.213   7.261   9.649 -0.4467 -0.1824  1.1122
   20SAPC  H10R 2611   5.277   7.352   9.641 -0.0873 -0.4533  0.8989
   20SAPC  H10S 2612   5.131   7.280   9.721 -0.0128 -0.8283  1.7791
   20SAPC  C211 2613   5.137   7.240   9.519  0.5278 -0.0315 -0.6136
   20SAPC  H11R 2614   5.028   7.225   9.525  0.8336 -1.8781  1.1572
   20SAPC  C212 2615   5.195   7.222   9.401  0.2695  0.2299 -0.1658
   20SAPC  H12R 2616   5.143   7.219   9.304 -0.9197  1.8689  0.3712
   20SAPC  C213 2617   5.346   7.227   9.376 -0.1193  0.3306  0.3114
   20SAPC  H13R 2618   5.404   7.282   9.453  1.7018 -2.6399  1.2245
   20SAPC  H13S 2619   5.360   7.295   9.289 -0.0224  1.4863  1.2001
   20SAPC  C214 2620   5.395   7.087   9.342 -0.2142  1.0576 -0.1901
   20SAPC  H14R 2621   5.381   7.012   9.421  1.5472  0.1598 -0.6872
   20SAPC  C215 2622   5.464   7.052   9.232  0.5796 -0.0637  0.3177
   20SAPC  H15R 2623   5.501   6.948   9.225 -2.7398 -1.3040 -1.1580
   20SAPC  C216 2624   5.512   7.140   9.124 -0.8317  0.2731  0.0627
   20SAPC  H16R 2625   5.622   7.129   9.128 -0.8440 -0.7121 -1.6570
   20SAPC  H16S 2626   5.488   7.249   9.129 -1.5748  0.2947 -2.4496
   20SAPC  C217 2627   5.468   7.096   8.984  0.2154  0.3272 -0.5315
   20SAPC  H17R 2628   5.495   7.174   8.910  0.8429 -1.0386 -1.7852
   20SAPC  H17S 2629   5.357   7.088   8.977  0.0090 -0.4307  2.1539
   20SAPC  C218 2630   5.521   6.960   8.942  0.4709  0.3783  0.3235
   20SAPC  H18R 2631   5.452   6.885   8.986  0.3434  0.8609  0.9610
   20SAPC  H18S 2632   5.625   6.944   8.978  1.6304  1.6215 -2.2058
   20SAPC  C219 2633   5.516   6.947   8.794  0.7828 -0.4566  1.1664
   20SAPC  H19R 2634   5.582   7.025   8.750 -0.0442 -1.1922 -1.5699
   20SAPC  H19S 2635   5.423   6.990   8.750  3.0306  1.7868 -1.8114
   20SAPC  C220 2636   5.547   6.811   8.734  0.3206  0.2229  0.4537
   20SAPC  H20R 2637   5.544   6.810   8.623 -3.8232 -0.0778  0.4115
   20SAPC  H20S 2638   5.492   6.726   8.780  1.9039 -1.0215  0.1250
   20SAPC  H20T 2639   5.650   6.778   8.760  1.1960 -0.3391 -3.1329
   20SAPC   C33 2640   5.226   6.585  10.142 -0.1964  0.1181  0.0542
   20SAPC   H3X 2641   5.166   6.673  10.173 -0.4331 -0.6165  1.8263
   20SAPC   H3Y 2642   5.186   6.488  10.179  0.3676  0.4286  1.5715
   20SAPC   C34 2643   5.232   6.575   9.991 -0.0313 -0.4090 -0.3529
   20SAPC   H4X 2644   5.314   6.506   9.962  0.6928  0.2188  0.1532
   20SAPC   H4Y 2645   5.263   6.673   9.948  0.1183 -0.2260  0.1554
   20SAPC   C35 2646   5.098   6.534   9.918 -0.0157 -1.1212  0.0866
   20SAPC   H5X 2647   5.024   6.614   9.943 -0.7640 -1.0072 -2.2192
   20SAPC   H5Y 2648   5.059   6.435   9.948  0.4397 -1.0451  0.9738
   20SAPC   C36 2649   5.114   6.528   9.763  0.3649 -0.2803 -0.4180
   20SAPC   H6X 2650   5.025   6.491   9.708  0.4273 -0.3081 -0.5009
   20SAPC   H6Y 2651   5.195   6.458   9.732  1.4984  0.9674 -0.3662
   20SAPC   C37 2652   5.150   6.664   9.692  0.0344 -0.3510 -0.2452
   20SAPC   H7X 2653   5.258   6.691   9.692  0.0448 -0.3931 -0.2000
   20SAPC   H7Y 2654   5.097   6.750   9.738  0.3448 -0.1477 -0.2658
   20SAPC   C38 2655   5.115   6.652   9.547 -0.0429 -0.0982 -0.0738
   20SAPC   H8X 2656   5.009   6.679   9.531 -0.3954 -1.8927 -1.1168
   20SAPC   H8Y 2657   5.129   6.550   9.504 -0.5907  0.4127 -1.5091
   20SAPC   C39 2658   5.186   6.751   9.452 -0.1293  0.1412  0.2597
   20SAPC   H9X 2659   5.293   6.722   9.448  0.1164  0.9107  0.8852
   20SAPC   H9Y 2660   5.179   6.853   9.495 -1.6994  0.5486 -0.8791
   20SAPC  C310 2661   5.123   6.758   9.317 -0.0667 -0.6684  0.4924
   20SAPC  H10X 2662   5.170   6.849   9.273  0.0210 -0.8984  0.1025
   20SAPC  H10Y 2663   5.015   6.783   9.321  0.4294  1.4472  2.3504
   20SAPC  C311 2664   5.160   6.653   9.210  0.6287  0.4288  0.5019
   20SAPC  H11X 2665   5.131   6.691   9.110  1.8341  1.1609  0.4161
   20SAPC  H11Y 2666   5.105   6.558   9.224  1.0621  0.2667  1.2204
   20SAPC  C312 2667   5.310   6.618   9.196  0.5353 -0.2853 -0.1765
   20SAPC  H12X 2668   5.334   6.567   9.292  1.3261 -1.4391 -0.9575
   20SAPC  H12Y 2669   5.367   6.713   9.187  1.6562 -0.8146  1.0320
   20SAPC  C313 2670   5.349   6.529   9.077 -0.5287  0.3976  0.2238
   20SAPC  H13X 2671   5.289   6.580   9.000 -2.2581 -0.2675  1.0902
   20SAPC  H13Y 2672   5.298   6.431   9.091  1.0006 -0.4436  0.1755
   20SAPC  C314 2673   5.502   6.528   9.035 -0.0056 -0.2593  0.1604
   20SAPC  H14X 2674   5.566   6.501   9.122 -2.4404 -1.7036  1.5874
   20SAPC  H14Y 2675   5.529   6.629   8.997  1.6256 -1.3535 -1.7568
   20SAPC  C315 2676   5.521   6.442   8.906 -0.2128 -0.3748 -0.8499
   20SAPC  H15X 2677   5.610   6.479   8.851  0.7194 -0.8049  0.3287
   20SAPC  H15Y 2678   5.436   6.453   8.835 -0.7029  2.2651  0.0487
   20SAPC  C316 2679   5.537   6.290   8.942 -0.7491 -0.0589  0.0287
   20SAPC  H16X 2680   5.435   6.257   8.970 -0.5342 -0.7734 -0.0164
   20SAPC  H16Y 2681   5.610   6.266   9.022  2.3423 -1.0424 -2.8512
   20SAPC  C317 2682   5.573   6.217   8.814  0.0877 -0.3120  0.3012
   20SAPC  H17X 2683   5.672   6.252   8.779 -0.0797  0.4376  0.5481
   20SAPC  H17Y 2684   5.495   6.228   8.737  0.6859 -0.0076 -0.2664
   20SAPC  C318 2685   5.582   6.068   8.832  0.1957  0.6987  0.1350
   20SAPC  H18X 2686   5.496   6.020   8.884  1.2206  0.5053  1.7328
   20SAPC  H18Y 2687   5.670   6.034   8.891 -0.6770 -2.2676 -0.0842
   20SAPC  H18Z 2688   5.602   6.016   8.736 -0.9518 -0.5501  0.5370
   21SAPC     N 2689   6.529   5.944  10.797  0.3817  0.4934  0.4978
   21SAPC   C12 2690   6.651   5.878  10.754 -0.2862  0.1439 -0.9703
   21SAPC  H12A 2691   6.713   5.848  10.838 -1.1008  1.1896  0.0288
   21SAPC  H12B 2692   6.711   5.949  10.699 -0.8825  0.7643 -0.8313
   21SAPC   C13 2693   6.431   5.951  10.681  0.6399  0.1519 -1.1222
   21SAPC  H13A 2694   6.483   6.000  10.600  1.9116 -0.7168 -0.8583
   21SAPC  H13B 2695   6.393   5.855  10.649 -1.2968  1.2512 -2.3508
   21SAPC  H13C 2696   6.347   6.016  10.704  0.5033 -0.9199  1.7532
   21SAPC   C14 2697   6.471   5.868  10.912 -0.2370  0.2775  0.4426
   21SAPC  H14A 2698   6.538   5.868  10.997  2.4037 -2.3856 -1.4606
   21SAPC  H14B 2699   6.387   5.925  10.950 -0.2190 -0.4415  1.6117
   21SAPC  H14C 2700   6.431   5.775  10.873  0.4291  0.5428 -0.8969
   21SAPC   C15 2701   6.555   6.089  10.844  0.3694  0.3010 -0.8616
   21SAPC  H15A 2702   6.633   6.088  10.919 -0.8596 -1.5060  0.4850
   21SAPC  H15B 2703   6.606   6.149  10.771 -0.1650  1.3626 -0.3779
   21SAPC  H15C 2704   6.467   6.140  10.880  0.3569 -0.1138 -0.2813
   21SAPC   C11 2705   6.639   5.753  10.667 -0.0753  0.5475  1.4550
   21SAPC  H11A 2706   6.742   5.717  10.647 -1.1008 -2.1681  0.6039
   21SAPC  H11B 2707   6.594   5.777  10.568  0.0069 -1.3474  0.9157
   21SAPC     P 2708   6.428   5.593  10.689 -0.0896 -0.1896 -0.0270
   21SAPC   O13 2709   6.441   5.448  10.668  0.2120 -0.4732  0.2669
   21SAPC   O14 2710   6.338   5.636  10.799 -0.3222  0.3245 -0.2394
   21SAPC   O12 2711   6.573   5.643  10.730 -0.0151  0.3803 -0.1686
   21SAPC   O11 2712   6.389   5.687  10.560 -0.0792  0.1068 -0.3688
   21SAPC    C1 2713   6.273   5.650  10.489  0.6633  0.2203  0.3767
   21SAPC    HA 2714   6.230   5.552  10.518  2.7441 -0.5222  1.0941
   21SAPC    HB 2715   6.194   5.726  10.508  0.8538 -0.1482  3.0409
   21SAPC    C2 2716   6.310   5.654  10.339  0.4391 -0.3132 -0.7370
   21SAPC    HS 2717   6.222   5.692  10.282 -1.3475 -1.1579  1.3018
   21SAPC   O21 2718   6.349   5.518  10.292 -0.2698 -1.1064 -0.2409
   21SAPC   C21 2719   6.246   5.437  10.278 -0.2171  0.4177 -0.4892
   21SAPC   O22 2720   6.128   5.478  10.288  0.3068  0.3975 -0.1882
   21SAPC   C22 2721   6.284   5.295  10.255 -0.7179 -1.1300 -0.1847
   21SAPC   H2R 2722   6.395   5.286  10.253 -0.7957 -2.0054 -1.3250
   21SAPC   H2S 2723   6.239   5.248  10.345 -0.0787 -1.6747 -0.1444
   21SAPC    C3 2724   6.423   5.750  10.301  0.4148 -0.6166 -0.6219
   21SAPC    HX 2725   6.512   5.725  10.362 -0.8478 -2.0682  0.7192
   21SAPC    HY 2726   6.406   5.856  10.328 -1.9967 -0.9479 -0.5540
   21SAPC   O31 2727   6.465   5.734  10.162 -0.1544 -0.1572  0.5512
   21SAPC   C31 2728   6.406   5.818  10.074 -0.2680  0.1745 -0.6011
   21SAPC   O32 2729   6.320   5.897  10.107 -0.2136 -1.0273  0.0797
   21SAPC   C32 2730   6.476   5.807   9.935 -0.2224 -0.2461  0.8224
   21SAPC   H2X 2731   6.544   5.719   9.927  2.3358  1.7485 -1.0027
   21SAPC   H2Y 2732   6.529   5.905   9.937  1.6868 -1.2359  2.0771
   21SAPC   C23 2733   6.234   5.233  10.122 -0.4338  0.0482  0.2811
   21SAPC   H3R 2734   6.298   5.142  10.117 -1.0195 -0.3034 -1.7238
   21SAPC   H3S 2735   6.248   5.309  10.042  0.2831  0.6913  0.9870
   21SAPC   C24 2736   6.089   5.182  10.123  0.1890  0.2583 -0.2225
   21SAPC   H4R 2737   6.065   5.156  10.018  1.9158 -0.6793 -0.4251
   21SAPC   H4S 2738   6.020   5.261  10.160  0.0415  0.2004 -0.3743
   21SAPC   C25 2739   6.078   5.059  10.208  0.0839  0.8072  0.0801
   21SAPC   H5R 2740   6.076   5.067  10.318  0.5986 -2.2668  0.4103
   21SAPC   C26 2741   6.096   4.933  10.167  0.7411 -0.2979 -0.6678
   21SAPC   H6R 2742   6.089   4.851  10.240  1.4144  2.0824  2.2530
   21SAPC   C27 2743   6.111   4.899  10.025 -0.4788 -0.5090  0.5835
   21SAPC   H7R 2744   6.173   4.807  10.017  0.9454  0.5399 -1.2638
   21SAPC   H7S 2745   6.178   4.968   9.969 -2.8960 -0.8198 -2.9697
   21SAPC   C28 2746   5.983   4.884   9.953 -0.5582 -0.5863 -0.4317
   21SAPC   H8R 2747   5.897   4.891  10.021 -0.7077 -2.6038 -0.3358
   21SAPC   C29 2748   5.953   4.856   9.825  0.1277 -0.0421  0.1633
   21SAPC   H9R 2749   5.846   4.863   9.799  0.5790 -0.5718 -2.1140
   21SAPC  C210 2750   6.050   4.840   9.715 -0.4224  0.3758  0.2769
   21SAPC  H10R 2751   6.040   4.737   9.676  1.5743  1.1805 -2.7513
   21SAPC  H10S 2752   6.153   4.836   9.757  0.9801 -1.7682 -2.9932
   21SAPC  C211 2753   6.047   4.952   9.609 -0.9062  0.4073 -0.3210
   21SAPC  H11R 2754   6.004   5.049   9.641 -1.1866 -0.2120  1.2788
   21SAPC  C212 2755   6.122   4.940   9.500 -1.2888 -0.7591 -0.4274
   21SAPC  H12R 2756   6.128   5.032   9.439 -1.1415 -0.5045 -0.0315
   21SAPC  C213 2757   6.208   4.819   9.465 -0.3676 -0.0026 -0.1510
   21SAPC  H13R 2758   6.224   4.811   9.355 -0.9856  2.9633 -0.5437
   21SAPC  H13S 2759   6.167   4.722   9.498 -1.3160  0.7585  0.9699
   21SAPC  C214 2760   6.350   4.823   9.528 -0.5502 -0.2773  0.6138
   21SAPC  H14R 2761   6.349   4.836   9.638  4.1202 -1.8446  1.0910
   21SAPC  C215 2762   6.474   4.820   9.473 -0.1356  0.1873  0.4277
   21SAPC  H15R 2763   6.565   4.836   9.533  1.6111 -3.9228 -0.7361
   21SAPC  C216 2764   6.504   4.794   9.326 -0.1942  0.6551 -0.3816
   21SAPC  H16R 2765   6.446   4.702   9.302  1.3219 -0.8919  1.5440
   21SAPC  H16S 2766   6.608   4.758   9.310 -0.0043  1.3733 -0.8121
   21SAPC  C217 2767   6.470   4.909   9.228 -0.2005  0.0625  0.3173
   21SAPC  H17R 2768   6.521   4.996   9.275 -0.5004 -0.3376  1.4345
   21SAPC  H17S 2769   6.362   4.933   9.221  0.1053  1.2270 -0.8517
   21SAPC  C218 2770   6.535   4.913   9.086 -0.6394  0.2410 -0.5198
   21SAPC  H18R 2771   6.484   4.848   9.013 -0.2759 -0.4469 -0.1737
   21SAPC  H18S 2772   6.643   4.885   9.094 -1.0301 -0.6946  2.8740
   21SAPC  C219 2773   6.528   5.050   9.023  0.7057 -0.3570 -0.4550
   21SAPC  H19R 2774   6.549   5.126   9.101  1.6317 -1.8085  0.7589
   21SAPC  H19S 2775   6.421   5.071   9.000 -0.1773 -0.1545  3.2000
   21SAPC  C220 2776   6.618   5.073   8.896 -0.4798  0.4463  0.1291
   21SAPC  H20R 2777   6.606   5.181   8.874  2.2947  0.7936 -0.0742
   21SAPC  H20S 2778   6.559   5.017   8.821  0.2758  1.7004 -1.4677
   21SAPC  H20T 2779   6.725   5.046   8.912 -0.7929 -0.3592  0.9085
   21SAPC   C33 2780   6.365   5.803   9.828 -0.3576 -0.0873  0.0960
   21SAPC   H3X 2781   6.309   5.897   9.841 -0.4964 -0.2816  0.9412
   21SAPC   H3Y 2782   6.297   5.717   9.845 -0.4752 -0.5165 -2.1533
   21SAPC   C34 2783   6.421   5.793   9.688  1.2508 -0.0044  0.3578
   21SAPC   H4X 2784   6.485   5.703   9.681  0.7971 -0.2954 -0.1174
   21SAPC   H4Y 2785   6.477   5.888   9.673 -1.1825  1.5468  0.4139
   21SAPC   C35 2786   6.315   5.793   9.578 -0.0845 -0.2456 -0.5746
   21SAPC   H5X 2787   6.255   5.885   9.591  0.6716  0.1142  0.5599
   21SAPC   H5Y 2788   6.241   5.711   9.595 -1.6067  1.1124 -0.4513
   21SAPC   C36 2789   6.363   5.777   9.436  0.0507 -0.5833 -0.4766
   21SAPC   H6X 2790   6.387   5.669   9.441  0.2312 -0.4892  0.9126
   21SAPC   H6Y 2791   6.439   5.857   9.420  0.0601  0.3177  3.1129
   21SAPC   C37 2792   6.240   5.793   9.344 -0.3841  0.0231  0.3508
   21SAPC   H7X 2793   6.173   5.878   9.370 -1.7498 -0.6874 -0.7388
   21SAPC   H7Y 2794   6.169   5.708   9.344  0.0207 -0.3395 -1.2066
   21SAPC   C38 2795   6.287   5.811   9.192  0.3983  0.1385 -0.6187
   21SAPC   H8X 2796   6.356   5.729   9.163  0.7213 -0.5527  1.8663
   21SAPC   H8Y 2797   6.329   5.914   9.188 -0.1986  0.5130  1.5131
   21SAPC   C39 2798   6.166   5.790   9.101 -0.3897  0.6227  0.3309
   21SAPC   H9X 2799   6.089   5.856   9.148 -2.7009 -0.6239 -1.5071
   21SAPC   H9Y 2800   6.119   5.689   9.105  0.6760  0.1212  0.7270
   21SAPC  C310 2801   6.195   5.839   8.960 -0.2228 -0.4336  0.4530
   21SAPC  H10X 2802   6.273   5.773   8.918  1.3371  2.0138 -0.7452
   21SAPC  H10Y 2803   6.242   5.940   8.963 -1.0252  0.2166 -3.2943
   21SAPC  C311 2804   6.077   5.845   8.863  0.5250 -0.4030 -0.7039
   21SAPC  H11X 2805   6.013   5.930   8.893  2.4818  2.0105 -2.8326
   21SAPC  H11Y 2806   6.027   5.749   8.888  2.9582 -1.5866 -0.0111
   21SAPC  C312 2807   6.109   5.870   8.714 -0.7030  0.5977 -0.5832
   21SAPC  H12X 2808   6.164   5.779   8.681 -0.9253  0.6484 -1.1012
   21SAPC  H12Y 2809   6.167   5.964   8.701  0.7023 -0.0096  0.8985
   21SAPC  C313 2810   5.991   5.855   8.615 -0.1480 -0.3705  1.1541
   21SAPC  H13X 2811   5.912   5.779   8.634 -0.5361 -0.7380 -1.5799
   21SAPC  H13Y 2812   6.031   5.843   8.513 -1.9859  0.1553  0.3306
   21SAPC  C314 2813   5.902   5.981   8.595 -0.2125  0.1667  0.1639
   21SAPC  H14X 2814   5.963   6.060   8.547  0.0358  0.9183  1.6645
   21SAPC  H14Y 2815   5.871   6.023   8.693 -0.3270  3.1094 -1.0476
   21SAPC  C315 2816   5.781   5.962   8.509 -0.2609 -0.0437 -0.2949
   21SAPC  H15X 2817   5.714   6.047   8.532  1.3590  1.1549  0.1846
   21SAPC  H15Y 2818   5.735   5.864   8.534  2.2999 -0.8465  1.7816
   21SAPC  C316 2819   5.806   5.966   8.363  0.2111 -0.0028 -0.4729
   21SAPC  H16X 2820   5.907   5.923   8.352  0.5977  0.5225  0.8461
   21SAPC  H16Y 2821   5.821   6.073   8.338  2.1370 -0.5319 -1.7438
   21SAPC  C317 2822   5.701   5.901   8.278 -0.6131 -0.0553  0.3067
   21SAPC  H17X 2823   5.606   5.952   8.303 -0.9590 -0.2633 -0.5652
   21SAPC  H17Y 2824   5.688   5.796   8.313  0.4892 -1.5731 -3.3464
   21SAPC  C318 2825   5.728   5.923   8.125  0.0884  0.7303  0.0760
   21SAPC  H18X 2826   5.744   6.032   8.111 -0.9178  0.8414 -0.3042
   21SAPC  H18Y 2827   5.642   5.890   8.062  0.1056 -0.1872  0.5057
   21SAPC  H18Z 2828   5.820   5.870   8.091  0.0011  0.0168  0.9166
   22SAPC     N 2829   5.498   2.028  11.135  0.2998 -0.7025 -0.1850
   22SAPC   C12 2830   5.402   2.041  11.014  0.1755 -0.1377  0.2495
   22SAPC  H12A 2831   5.386   2.145  10.991 -2.9967 -0.2364  1.4988
   22SAPC  H12B 2832   5.302   2.012  11.044 -0.5307  0.5830 -1.3056
   22SAPC   C13 2833   5.435   2.105  11.250 -0.6750  0.2474  0.6231
   22SAPC  H13A 2834   5.423   2.212  11.237  0.8786  0.4783  0.8726
   22SAPC  H13B 2835   5.335   2.074  11.274 -2.2257  2.4129 -2.3136
   22SAPC  H13C 2836   5.489   2.101  11.344 -0.1359  3.2698  0.5577
   22SAPC   C14 2837   5.502   1.887  11.182  0.5865 -0.6066  0.0145
   22SAPC  H14A 2838   5.401   1.854  11.201 -0.5001  1.8759 -1.0623
   22SAPC  H14B 2839   5.561   1.833  11.109  1.0449  2.5414 -2.1443
   22SAPC  H14C 2840   5.549   1.893  11.279  1.1422 -0.4182 -0.2644
   22SAPC   C15 2841   5.638   2.085  11.107  0.4344 -0.5273  0.1360
   22SAPC  H15A 2842   5.700   2.022  11.045  1.1740  2.7960 -2.9171
   22SAPC  H15B 2843   5.625   2.179  11.054  0.8368 -0.9656 -0.7564
   22SAPC  H15C 2844   5.694   2.115  11.194 -1.6957 -2.7948  2.4404
   22SAPC   C11 2845   5.443   1.955  10.887 -0.0414 -0.6075  0.0097
   22SAPC  H11A 2846   5.363   1.969  10.811 -1.0247  1.4994  1.3607
   22SAPC  H11B 2847   5.433   1.854  10.933 -1.4941 -0.1362  0.7966
   22SAPC     P 2848   5.604   2.082  10.713 -0.3993 -0.3084  0.2589
   22SAPC   O13 2849   5.596   2.223  10.752 -0.8553 -0.1902 -0.2233
   22SAPC   O14 2850   5.731   2.034  10.661 -0.0840 -0.0581  0.5760
   22SAPC   O12 2851   5.577   1.989  10.837  0.0689  0.2509  0.2722
   22SAPC   O11 2852   5.498   2.048  10.608 -0.2887 -0.7650  0.2937
   22SAPC    C1 2853   5.482   1.910  10.557 -0.3302  0.3735 -0.2259
   22SAPC    HA 2854   5.506   1.830  10.630  0.5849  1.5326  0.7856
   22SAPC    HB 2855   5.373   1.887  10.550 -0.4566  0.4450  1.1610
   22SAPC    C2 2856   5.555   1.877  10.423 -0.4445  0.0388  0.3070
   22SAPC    HS 2857   5.664   1.891  10.441 -0.2059  2.1948 -2.1654
   22SAPC   O21 2858   5.499   1.966  10.323 -0.4721  0.1102 -0.0149
   22SAPC   C21 2859   5.587   2.031  10.246 -0.1748  0.7002  0.4731
   22SAPC   O22 2860   5.710   2.021  10.245  0.1174 -0.3355  0.4176
   22SAPC   C22 2861   5.516   2.126  10.150 -0.0614 -0.4315  0.3418
   22SAPC   H2R 2862   5.418   2.081  10.121 -0.1498  0.1022 -0.2020
   22SAPC   H2S 2863   5.487   2.216  10.208 -0.3234 -0.2087 -0.1306
   22SAPC    C3 2864   5.538   1.725  10.383 -0.7940 -0.1015  0.2147
   22SAPC    HX 2865   5.431   1.696  10.388 -1.0835  0.8550 -0.1586
   22SAPC    HY 2866   5.576   1.658  10.463  0.5913 -0.5896 -0.8255
   22SAPC   O31 2867   5.604   1.695  10.255  0.1767 -0.1423  0.5007
   22SAPC   C31 2868   5.732   1.696  10.258 -0.2009 -0.3950 -0.4016
   22SAPC   O32 2869   5.808   1.711  10.355 -0.0382  0.1775 -0.0421
   22SAPC   C32 2870   5.778   1.663  10.115 -0.0038  0.0205 -0.1445
   22SAPC   H2X 2871   5.786   1.761  10.062 -1.0095 -0.3105 -0.9375
   22SAPC   H2Y 2872   5.706   1.591  10.072 -0.0903  0.0288 -0.0134
   22SAPC   C23 2873   5.601   2.184  10.027 -0.1938  0.3991 -0.3788
   22SAPC   H3R 2874   5.700   2.212  10.067 -0.0193 -0.6520 -0.0222
   22SAPC   H3S 2875   5.548   2.280  10.011  1.1300  0.9135 -1.9144
   22SAPC   C24 2876   5.587   2.102   9.904 -0.1822  0.4100  0.2459
   22SAPC   H4R 2877   5.598   2.173   9.819  1.3135  0.5405  0.5294
   22SAPC   H4S 2878   5.482   2.068   9.888  0.1734 -0.2249 -0.8865
   22SAPC   C25 2879   5.697   1.998   9.897 -0.2011  0.1951 -0.2137
   22SAPC   H5R 2880   5.764   2.029   9.978  1.0077  0.3105 -1.2365
   22SAPC   C26 2881   5.712   1.900   9.805  0.4532  0.3572 -0.6432
   22SAPC   H6R 2882   5.798   1.832   9.804  0.9820  0.9777  0.6242
   22SAPC   C27 2883   5.619   1.878   9.683 -0.1327  0.4230  0.0768
   22SAPC   H7R 2884   5.528   1.942   9.686 -0.0515  0.5441 -0.0566
   22SAPC   H7S 2885   5.588   1.772   9.684 -0.8067  0.6212  0.6820
   22SAPC   C28 2886   5.697   1.913   9.556 -0.0774 -0.6144 -0.2806
   22SAPC   H8R 2887   5.737   2.014   9.544 -1.0126 -0.0750  1.0118
   22SAPC   C29 2888   5.729   1.828   9.457  0.0922 -0.6110  0.3454
   22SAPC   H9R 2889   5.776   1.866   9.365 -3.3824  1.0362 -0.9342
   22SAPC  C210 2890   5.695   1.678   9.445  0.8238 -0.4536 -0.1113
   22SAPC  H10R 2891   5.631   1.658   9.356  0.0286 -1.6383  0.6838
   22SAPC  H10S 2892   5.630   1.642   9.528 -0.6051 -0.0907 -1.0154
   22SAPC  C211 2893   5.823   1.601   9.441 -0.5256  0.4583 -0.6308
   22SAPC  H11R 2894   5.870   1.577   9.537 -1.7861 -0.3371 -0.1930
   22SAPC  C212 2895   5.884   1.552   9.333 -0.0591 -0.5114 -0.1210
   22SAPC  H12R 2896   5.973   1.487   9.342 -0.3488 -1.4240 -2.7829
   22SAPC  C213 2897   5.834   1.567   9.191 -0.3920 -0.3432  0.0868
   22SAPC  H13R 2898   5.779   1.663   9.176  1.2857  0.8997  1.3856
   22SAPC  H13S 2899   5.762   1.487   9.166 -1.4236 -1.3359  5.1585
   22SAPC  C214 2900   5.940   1.572   9.086 -0.6190  0.1081 -0.1001
   22SAPC  H14R 2901   6.037   1.588   9.136 -1.2000  1.3332  0.6814
   22SAPC  C215 2902   5.926   1.543   8.955 -0.7777 -0.0070 -0.4571
   22SAPC  H15R 2903   6.010   1.542   8.885 -1.8025 -1.7817 -1.7177
   22SAPC  C216 2904   5.797   1.510   8.891 -0.3202  0.3073  0.0988
   22SAPC  H16R 2905   5.715   1.521   8.965 -0.3787  2.0701 -0.1675
   22SAPC  H16S 2906   5.797   1.405   8.855 -1.2366 -0.1736  1.4085
   22SAPC  C217 2907   5.759   1.598   8.771  0.4850 -0.1210 -0.0138
   22SAPC  H17R 2908   5.827   1.580   8.685 -1.0459 -2.0584 -0.9072
   22SAPC  H17S 2909   5.758   1.706   8.798 -2.1072 -0.0142 -0.2684
   22SAPC  C218 2910   5.624   1.556   8.713 -0.2006 -0.7020 -0.0709
   22SAPC  H18R 2911   5.558   1.589   8.795  2.9853  0.2655  2.3012
   22SAPC  H18S 2912   5.633   1.446   8.696 -0.1855 -0.6448 -0.4533
   22SAPC  C219 2913   5.582   1.641   8.588  0.2542 -0.3178  0.1134
   22SAPC  H19R 2914   5.622   1.601   8.492  0.9285  0.5519  0.0195
   22SAPC  H19S 2915   5.600   1.749   8.605  0.8429 -0.1284 -1.4903
   22SAPC  C220 2916   5.430   1.630   8.581  0.6775  0.5711 -0.4255
   22SAPC  H20R 2917   5.379   1.699   8.510  0.6859 -0.4558 -1.4592
   22SAPC  H20S 2918   5.397   1.642   8.686  1.7109 -0.1923  0.0075
   22SAPC  H20T 2919   5.403   1.525   8.553 -0.5211  0.2417  1.7749
   22SAPC   C33 2920   5.913   1.590  10.098 -0.0145 -0.3127 -0.4043
   22SAPC   H3X 2921   5.916   1.484  10.131 -0.7977 -0.3271 -0.3771
   22SAPC   H3Y 2922   5.993   1.642  10.154  0.4857 -1.8089  0.3316
   22SAPC   C34 2923   5.956   1.590   9.949 -0.0929 -0.0597 -0.0991
   22SAPC   H4X 2924   5.967   1.692   9.905  0.2790  0.7063  1.6929
   22SAPC   H4Y 2925   5.880   1.539   9.885 -0.2793 -0.0392  0.1035
   22SAPC   C35 2926   6.081   1.509   9.933  0.2389  0.0105 -0.1076
   22SAPC   H5X 2927   6.074   1.404   9.969  3.2167  0.1930  1.2842
   22SAPC   H5Y 2928   6.163   1.557   9.992  0.0264 -0.6125  0.7166
   22SAPC   C36 2929   6.115   1.489   9.785  0.2948  0.2889 -0.1030
   22SAPC   H6X 2930   6.028   1.448   9.729 -1.3171  2.0358  1.0081
   22SAPC   H6Y 2931   6.193   1.410   9.774 -0.6808 -0.4843 -2.0834
   22SAPC   C37 2932   6.162   1.613   9.720 -0.2482  0.4373  0.0367
   22SAPC   H7X 2933   6.215   1.685   9.786  0.1834  1.0329 -0.9414
   22SAPC   H7Y 2934   6.072   1.661   9.676  0.1209  0.0906 -1.1200
   22SAPC   C38 2935   6.266   1.588   9.610 -0.7272 -0.1992  0.4282
   22SAPC   H8X 2936   6.227   1.528   9.525  0.8214  0.3619 -0.7117
   22SAPC   H8Y 2937   6.356   1.542   9.658  1.1055  2.3337 -0.4165
   22SAPC   C39 2938   6.307   1.724   9.538  0.9060 -0.5929 -0.3620
   22SAPC   H9X 2939   6.343   1.798   9.614  0.2873  1.0012 -1.5682
   22SAPC   H9Y 2940   6.220   1.771   9.487  0.5526 -0.3017  0.4811
   22SAPC  C310 2941   6.408   1.684   9.429 -0.0343  0.3421 -0.2400
   22SAPC  H10X 2942   6.354   1.615   9.361 -1.2141  0.2277  0.7783
   22SAPC  H10Y 2943   6.484   1.626   9.485 -1.7254 -0.3981  1.3930
   22SAPC  C311 2944   6.463   1.796   9.345  0.1787 -0.4953 -0.2458
   22SAPC  H11X 2945   6.538   1.859   9.398 -1.0466  0.3450  0.5452
   22SAPC  H11Y 2946   6.377   1.862   9.321  0.7086  0.3145  0.0299
   22SAPC  C312 2947   6.514   1.759   9.205 -0.2629  0.1592 -0.7386
   22SAPC  H12X 2948   6.593   1.682   9.218 -1.4357 -1.0440 -0.5422
   22SAPC  H12Y 2949   6.554   1.854   9.165 -1.0667  2.5580  3.5454
   22SAPC  C313 2950   6.412   1.712   9.108  1.4548  0.5002 -0.0784
   22SAPC  H13X 2951   6.324   1.778   9.119 -0.4222 -1.9947  0.9507
   22SAPC  H13Y 2952   6.374   1.610   9.131 -2.5914  1.8142 -0.1179
   22SAPC  C314 2953   6.464   1.717   8.962 -0.2970 -0.2898  0.4156
   22SAPC  H14X 2954   6.541   1.638   8.959 -1.7963 -1.7894 -1.8606
   22SAPC  H14Y 2955   6.503   1.820   8.946  0.3216 -0.7547 -1.2831
   22SAPC  C315 2956   6.361   1.680   8.844  1.0021  0.3164 -0.2614
   22SAPC  H15X 2957   6.265   1.731   8.867  0.8683 -0.8204  1.9194
   22SAPC  H15Y 2958   6.335   1.572   8.845 -0.2808  0.6001  1.3717
   22SAPC  C316 2959   6.408   1.713   8.703  0.3194 -0.3816 -0.1143
   22SAPC  H16X 2960   6.503   1.656   8.693 -0.0587 -1.0097 -0.1996
   22SAPC  H16Y 2961   6.419   1.822   8.691 -0.7117 -0.2819 -0.2368
   22SAPC  C317 2962   6.324   1.654   8.589 -0.0041 -0.6060 -0.1056
   22SAPC  H17X 2963   6.308   1.544   8.594  0.4275 -0.7184 -1.1246
   22SAPC  H17Y 2964   6.377   1.676   8.494  0.0343  0.7290  0.1917
   22SAPC  C318 2965   6.185   1.720   8.587  0.2531  0.2278  0.3774
   22SAPC  H18X 2966   6.137   1.694   8.684  1.7729  0.0633  1.1188
   22SAPC  H18Y 2967   6.129   1.681   8.499  1.4631  1.2218 -0.8894
   22SAPC  H18Z 2968   6.185   1.831   8.583 -0.4828  0.2202 -0.0498
   23SAPC     N 2969   1.535   5.051  10.943 -0.2800 -0.2032  0.3014
   23SAPC   C12 2970   1.429   4.943  10.957 -0.1931 -0.2313 -0.0498
   23SAPC  H12A 2971   1.360   4.968  11.036  0.7716 -0.0675  0.7579
   23SAPC  H12B 2972   1.465   4.849  10.995 -2.7464 -0.8941  0.9413
   23SAPC   C13 2973   1.645   5.000  10.852  0.7164  0.1002 -0.6405
   23SAPC  H13A 2974   1.673   4.900  10.883  3.5501  1.8045  3.2152
   23SAPC  H13B 2975   1.606   4.991  10.752  1.6893  0.0519 -1.0289
   23SAPC  H13C 2976   1.726   5.069  10.870 -1.0413  2.2197 -0.5132
   23SAPC   C14 2977   1.471   5.178  10.898  0.4022  0.3363 -0.7432
   23SAPC  H14A 2978   1.403   5.151  10.819  1.8518  0.1085 -1.9547
   23SAPC  H14B 2979   1.416   5.226  10.978 -0.2442 -0.9413 -0.3866
   23SAPC  H14C 2980   1.546   5.245  10.861  0.1259  0.1571 -1.6454
   23SAPC   C15 2981   1.582   5.065  11.085  0.6472 -0.1030  0.5012
   23SAPC  H15A 2982   1.505   5.052  11.159  1.2318 -0.2879  1.0865
   23SAPC  H15B 2983   1.648   4.983  11.109  0.7593  0.1522  1.0690
   23SAPC  H15C 2984   1.644   5.151  11.108  1.4900 -1.2342  2.7281
   23SAPC   C11 2985   1.352   4.900  10.829  0.4080  0.4960 -0.3632
   23SAPC  H11A 2986   1.310   4.799  10.850  0.5236  0.3531 -0.8144
   23SAPC  H11B 2987   1.426   4.887  10.748 -1.4905 -0.5014 -2.0332
   23SAPC     P 2988   1.158   4.959  10.676 -0.2124 -0.0275 -0.2369
   23SAPC   O13 2989   1.179   4.813  10.651 -0.0923 -0.0022  0.5394
   23SAPC   O14 2990   1.024   5.006  10.703 -0.5312  0.0899 -0.4261
   23SAPC   O12 2991   1.251   4.993  10.803  0.3131  0.3466  0.4169
   23SAPC   O11 2992   1.225   5.037  10.550 -0.5471 -0.0042 -0.2159
   23SAPC    C1 2993   1.224   5.178  10.556  0.1769  0.0533  0.1263
   23SAPC    HA 2994   1.118   5.207  10.536 -0.0663 -0.1755  1.0410
   23SAPC    HB 2995   1.248   5.220  10.656  3.0631 -0.3881 -0.3153
   23SAPC    C2 2996   1.310   5.244  10.446 -0.0984 -0.5046 -0.0303
   23SAPC    HS 2997   1.280   5.350  10.432 -1.6414 -0.6975  1.4730
   23SAPC   O21 2998   1.307   5.169  10.329  0.3525  0.1988  0.3796
   23SAPC   C21 2999   1.196   5.200  10.253  0.5478 -0.2316  0.0054
   23SAPC   O22 3000   1.107   5.276  10.287  0.5755 -0.0169  0.0617
   23SAPC   C22 3001   1.199   5.117  10.120  0.1109 -0.0842 -0.2885
   23SAPC   H2R 3002   1.253   5.021  10.138 -0.2798  0.1044  2.2130
   23SAPC   H2S 3003   1.090   5.101  10.109 -0.1780  0.5790  1.3486
   23SAPC    C3 3004   1.457   5.237  10.496  0.5547  0.3156 -0.2072
   23SAPC    HX 3005   1.495   5.135  10.515  1.6627  0.6203 -0.6940
   23SAPC    HY 3006   1.457   5.291  10.593 -0.3704 -1.4077  0.7945
   23SAPC   O31 3007   1.548   5.282  10.399  0.3275 -0.3177 -0.3023
   23SAPC   C31 3008   1.532   5.410  10.375  0.2705 -0.5443 -0.1838
   23SAPC   O32 3009   1.471   5.495  10.440  0.1970  0.4026 -0.2815
   23SAPC   C32 3010   1.612   5.440  10.246  0.3075  0.2770  0.1988
   23SAPC   H2X 3011   1.573   5.362  10.178 -2.1353  1.0057  0.6533
   23SAPC   H2Y 3012   1.721   5.434  10.269  0.4276 -0.7654 -0.6195
   23SAPC   C23 3013   1.266   5.195  10.011 -0.3531  0.2850  0.1671
   23SAPC   H3R 3014   1.361   5.236  10.051 -0.0776  0.3836 -0.5723
   23SAPC   H3S 3015   1.193   5.264   9.964 -0.7812 -1.1394 -1.3825
   23SAPC   C24 3016   1.309   5.108   9.893  0.7878 -0.2501  0.0114
   23SAPC   H4R 3017   1.390   5.038   9.923  2.5908  1.5059 -0.5789
   23SAPC   H4S 3018   1.353   5.168   9.810 -0.4389 -0.3505 -0.7480
   23SAPC   C25 3019   1.189   5.034   9.829 -0.3665 -0.2005  0.2890
   23SAPC   H5R 3020   1.147   4.956   9.895 -1.6087 -1.3037 -1.7137
   23SAPC   C26 3021   1.120   5.061   9.719 -0.4462  0.2683  0.0953
   23SAPC   H6R 3022   1.042   4.986   9.695 -0.1587 -0.9144  2.4667
   23SAPC   C27 3023   1.143   5.168   9.614  0.5000 -0.1325 -0.3586
   23SAPC   H7R 3024   1.187   5.263   9.651 -0.0980 -0.5307  1.5274
   23SAPC   H7S 3025   1.046   5.198   9.570  0.4520  0.1236 -0.0828
   23SAPC   C28 3026   1.233   5.115   9.504  0.0006  0.2553  0.3909
   23SAPC   H8R 3027   1.337   5.149   9.514  1.0773 -2.7774  0.3906
   23SAPC   C29 3028   1.196   5.030   9.403  0.3668 -1.1898  0.1854
   23SAPC   H9R 3029   1.269   5.004   9.325 -0.6266 -1.3993 -0.6974
   23SAPC  C210 3030   1.063   4.962   9.378 -0.0449  0.0326 -0.5807
   23SAPC  H10R 3031   0.998   4.984   9.465  1.0909 -1.7127  0.8127
   23SAPC  H10S 3032   1.078   4.852   9.373 -0.2721 -0.2387  2.5639
   23SAPC  C211 3033   1.001   5.021   9.250  0.8913  1.0995  0.6493
   23SAPC  H11R 3034   0.936   5.108   9.266  0.5040  0.8660  0.3756
   23SAPC  C212 3035   1.002   4.968   9.121  0.6395  0.4815 -0.7483
   23SAPC  H12R 3036   0.941   5.017   9.043  1.2287 -0.6732 -1.9500
   23SAPC  C213 3037   1.055   4.828   9.086 -0.2584  0.1301  0.0782
   23SAPC  H13R 3038   0.966   4.778   9.041  0.3655 -1.8736  0.9639
   23SAPC  H13S 3039   1.074   4.770   9.178 -0.2641  1.0601  0.6777
   23SAPC  C214 3040   1.170   4.832   8.989 -0.2790 -0.2168 -0.0972
   23SAPC  H14R 3041   1.272   4.833   9.028 -0.3720 -3.4833  0.5434
   23SAPC  C215 3042   1.152   4.834   8.854  0.0003  0.1945 -0.6383
   23SAPC  H15R 3043   1.235   4.829   8.783 -0.7722 -1.8817 -1.4728
   23SAPC  C216 3044   1.025   4.841   8.762 -0.3841 -0.9392  0.1528
   23SAPC  H16R 3045   1.017   4.944   8.722 -1.0462 -0.5650  1.2075
   23SAPC  H16S 3046   0.931   4.819   8.819 -0.0054 -0.0533  1.1545
   23SAPC  C217 3047   1.037   4.740   8.644  0.1794 -0.5688 -0.5894
   23SAPC  H17R 3048   0.945   4.756   8.584  1.1505  2.4591 -1.4989
   23SAPC  H17S 3049   1.051   4.636   8.680  0.4697 -1.1349 -2.2817
   23SAPC  C218 3050   1.156   4.773   8.550  0.2445  0.1139 -0.1420
   23SAPC  H18R 3051   1.192   4.687   8.491  2.8728  1.1093 -0.1293
   23SAPC  H18S 3052   1.250   4.788   8.608 -0.0088  2.0963 -0.1871
   23SAPC  C219 3053   1.124   4.888   8.463  0.1066 -0.0478  1.0134
   23SAPC  H19R 3054   1.114   4.979   8.525  0.4962  1.2455 -0.7332
   23SAPC  H19S 3055   1.025   4.870   8.416 -0.7338  0.6016  2.4617
   23SAPC  C220 3056   1.232   4.915   8.355 -0.0342 -0.1463 -0.5758
   23SAPC  H20R 3057   1.331   4.913   8.404 -1.2355  2.1728  2.2481
   23SAPC  H20S 3058   1.217   5.007   8.294  0.4570 -0.1988 -0.7804
   23SAPC  H20T 3059   1.246   4.837   8.276  1.6409 -1.2839  0.7739
   23SAPC   C33 3060   1.579   5.584  10.196 -0.5784 -0.6627 -0.3697
   23SAPC   H3X 3061   1.648   5.596  10.110  0.1003 -1.7317 -0.0102
   23SAPC   H3Y 3062   1.604   5.667  10.266  1.2834 -1.3679 -0.1296
   23SAPC   C34 3063   1.440   5.593  10.134  1.0653  0.6029 -0.3550
   23SAPC   H4X 3064   1.408   5.699  10.144  0.9322  0.4385  1.2996
   23SAPC   H4Y 3065   1.367   5.536  10.196  1.7965 -2.5280 -2.1858
   23SAPC   C35 3066   1.427   5.545   9.990 -0.2593  0.1087  0.0659
   23SAPC   H5X 3067   1.323   5.530   9.954  0.6096 -0.9503 -2.1513
   23SAPC   H5Y 3068   1.477   5.446   9.986  0.2581  0.3610  0.2434
   23SAPC   C36 3069   1.482   5.641   9.890 -0.1510 -0.4676 -0.5357
   23SAPC   H6X 3070   1.583   5.673   9.922 -0.0892 -0.6908 -0.5084
   23SAPC   H6Y 3071   1.412   5.728   9.898 -0.9845 -1.0837 -0.9189
   23SAPC   C37 3072   1.495   5.590   9.749  0.0917 -0.6501  0.0387
   23SAPC   H7X 3073   1.496   5.669   9.671 -1.1856 -1.2242 -0.6046
   23SAPC   H7Y 3074   1.408   5.526   9.721  1.2157 -3.2053  1.9677
   23SAPC   C38 3075   1.608   5.494   9.742 -0.6747  0.3074  1.4153
   23SAPC   H8X 3076   1.599   5.401   9.802  0.8268 -0.6475  0.2483
   23SAPC   H8Y 3077   1.697   5.547   9.783 -0.7605  0.6451  1.1646
   23SAPC   C39 3078   1.637   5.457   9.597 -0.0453 -0.2231 -0.7833
   23SAPC   H9X 3079   1.740   5.415   9.590  0.5648  0.8258  1.0195
   23SAPC   H9Y 3080   1.649   5.555   9.546 -0.4917  1.5618  2.2777
   23SAPC  C310 3081   1.530   5.373   9.532 -0.0145 -0.6900 -0.3923
   23SAPC  H10X 3082   1.425   5.402   9.552  0.5070 -0.3224  2.0964
   23SAPC  H10Y 3083   1.544   5.271   9.574  2.6940  0.7520  2.6956
   23SAPC  C311 3084   1.558   5.364   9.380  0.2487 -0.1709 -0.4169
   23SAPC  H11X 3085   1.653   5.311   9.359  0.2765 -0.2045 -0.2064
   23SAPC  H11Y 3086   1.574   5.469   9.346 -0.2116 -0.5117 -1.7392
   23SAPC  C312 3087   1.452   5.291   9.300 -0.6111 -0.3589  0.2585
   23SAPC  H12X 3088   1.348   5.327   9.317 -2.1777 -3.0503 -2.6267
   23SAPC  H12Y 3089   1.447   5.191   9.346 -2.0023  0.2126  1.4332
   23SAPC  C313 3090   1.479   5.291   9.155  0.9849  0.1586 -0.1722
   23SAPC  H13X 3091   1.585   5.265   9.134  0.8648 -1.0094  0.6167
   23SAPC  H13Y 3092   1.465   5.397   9.123  0.9098 -0.2095 -1.4016
   23SAPC  C314 3093   1.402   5.186   9.071 -0.2036  0.0727  0.0405
   23SAPC  H14X 3094   1.292   5.202   9.069 -0.4183 -1.1089 -3.2589
   23SAPC  H14Y 3095   1.419   5.084   9.110 -1.1342 -0.6381 -1.3602
   23SAPC  C315 3096   1.456   5.187   8.928 -0.4682 -0.3137  0.3765
   23SAPC  H15X 3097   1.565   5.166   8.923 -0.4900 -0.1753 -1.1879
   23SAPC  H15Y 3098   1.454   5.292   8.891 -0.8296 -0.5325 -0.2340
   23SAPC  C316 3099   1.380   5.080   8.839 -0.5353  0.3972  0.3749
   23SAPC  H16X 3100   1.271   5.101   8.837 -1.2811 -2.9907 -0.2869
   23SAPC  H16Y 3101   1.390   4.987   8.899 -1.6778  1.0153  1.5859
   23SAPC  C317 3102   1.425   5.069   8.693 -0.6012 -0.1407 -0.0623
   23SAPC  H17X 3103   1.353   5.001   8.642 -1.6959 -0.5648  1.9331
   23SAPC  H17Y 3104   1.514   5.002   8.688 -2.1756 -2.2948 -1.0334
   23SAPC  C318 3105   1.446   5.203   8.623 -0.7990 -0.1458  0.1230
   23SAPC  H18X 3106   1.360   5.272   8.621 -1.4293 -0.8979  0.6031
   23SAPC  H18Y 3107   1.492   5.187   8.523  0.9094  0.2997  0.7850
   23SAPC  H18Z 3108   1.519   5.262   8.683 -1.0784 -1.8643  2.2835
   24SAPC     N 3109   4.956   5.732  11.084  0.6866  0.3208  0.2363
   24SAPC   C12 3110   4.964   5.794  10.944  0.3488 -0.0957  0.0430
   24SAPC  H12A 3111   4.975   5.712  10.876 -0.9878  0.5651 -1.0177
   24SAPC  H12B 3112   5.052   5.857  10.941 -1.8025  3.1641 -0.7177
   24SAPC   C13 3113   4.937   5.851  11.179 -0.5098 -0.3619  0.5199
   24SAPC  H13A 3114   4.844   5.899  11.153  0.4719  0.3804 -1.9258
   24SAPC  H13B 3115   4.941   5.821  11.282  0.1595 -0.2371  0.5366
   24SAPC  H13C 3116   5.019   5.917  11.151  0.2183 -1.8916 -1.1074
   24SAPC   C14 3117   4.841   5.639  11.096  0.4045 -0.1482 -0.4598
   24SAPC  H14A 3118   4.804   5.617  11.195 -0.2685 -1.8438 -1.0574
   24SAPC  H14B 3119   4.759   5.697  11.058 -3.2615 -3.1520  2.1396
   24SAPC  H14C 3120   4.854   5.548  11.039 -1.4125  0.4352 -1.9257
   24SAPC   C15 3121   5.078   5.658  11.116  0.1879 -0.0260  0.2889
   24SAPC  H15A 3122   5.082   5.571  11.052 -1.4338  1.1187 -1.4757
   24SAPC  H15B 3123   5.162   5.725  11.099 -0.8718  0.9584 -1.3178
   24SAPC  H15C 3124   5.077   5.628  11.220 -0.8877  0.5003  0.4406
   24SAPC   C11 3125   4.843   5.884  10.897  0.4511  0.2052 -0.1188
   24SAPC  H11A 3126   4.850   5.901  10.787 -0.8855  0.7368 -0.1400
   24SAPC  H11B 3127   4.844   5.979  10.955 -4.1200 -1.0214  2.4160
   24SAPC     P 3128   4.593   5.871  10.850  0.0118  0.0848 -0.3608
   24SAPC   O13 3129   4.483   5.781  10.875  0.0518  0.2872  0.3958
   24SAPC   O14 3130   4.560   6.013  10.884 -0.8707 -0.2464 -0.4615
   24SAPC   O12 3131   4.720   5.822  10.924 -0.3398  0.4822 -0.3004
   24SAPC   O11 3132   4.629   5.864  10.698  0.2849  0.7436 -0.3199
   24SAPC    C1 3133   4.649   5.732  10.636 -0.1051  0.2782  0.3528
   24SAPC    HA 3134   4.745   5.682  10.658 -0.5181 -0.7979 -0.2219
   24SAPC    HB 3135   4.567   5.663  10.667 -1.3437  1.5039 -0.0502
   24SAPC    C2 3136   4.642   5.738  10.489 -0.2619  0.2360  0.1598
   24SAPC    HS 3137   4.746   5.754  10.456  0.8013  0.0696  3.1083
   24SAPC   O21 3138   4.556   5.849  10.441  1.0776  0.4097 -0.0963
   24SAPC   C21 3139   4.599   5.909  10.333  0.4744 -0.4931  1.4011
   24SAPC   O22 3140   4.685   5.864  10.259 -0.0968 -0.9186  0.4232
   24SAPC   C22 3141   4.535   6.046  10.325  0.5234 -0.3307 -0.1000
   24SAPC   H2R 3142   4.424   6.043  10.323  0.3507  0.3528  2.8630
   24SAPC   H2S 3143   4.558   6.103  10.418 -0.9165  0.9759 -0.5113
   24SAPC    C3 3144   4.586   5.598  10.434 -0.5971 -0.3221  0.6285
   24SAPC    HX 3145   4.483   5.594  10.477 -0.2524  1.4855  1.7459
   24SAPC    HY 3146   4.651   5.512  10.462  0.2545 -0.6539 -2.1422
   24SAPC   O31 3147   4.559   5.594  10.290 -0.8556  0.0366 -0.3804
   24SAPC   C31 3148   4.662   5.567  10.213 -0.0421 -0.0064  0.5867
   24SAPC   O32 3149   4.770   5.520  10.248  0.5231  0.2533  0.0579
   24SAPC   C32 3150   4.633   5.597  10.066  0.2077  0.1468 -0.0470
   24SAPC   H2X 3151   4.649   5.701  10.032 -0.4551  0.1132 -0.4724
   24SAPC   H2Y 3152   4.530   5.563  10.043  0.6398 -2.5435  1.4682
   24SAPC   C23 3153   4.591   6.135  10.208 -0.3052  0.2830  0.0541
   24SAPC   H3R 3154   4.700   6.117  10.199 -0.0426  1.8190 -0.0147
   24SAPC   H3S 3155   4.582   6.243  10.233  0.7615  0.7536 -1.5052
   24SAPC   C24 3156   4.518   6.124  10.071 -0.2111  0.1916  0.2188
   24SAPC   H4R 3157   4.554   6.206  10.006 -2.1721  2.3806  1.7253
   24SAPC   H4S 3158   4.413   6.153  10.097  0.1321  0.3612  1.5057
   24SAPC   C25 3159   4.535   5.990  10.007  0.2397 -0.5729  0.7610
   24SAPC   H5R 3160   4.614   5.928  10.050  0.1173 -0.4142  1.2158
   24SAPC   C26 3161   4.455   5.937   9.914 -0.0103  0.1435  0.1539
   24SAPC   H6R 3162   4.475   5.836   9.875 -2.1880  0.4345 -1.9905
   24SAPC   C27 3163   4.338   5.996   9.833  0.3249  0.5565  1.0102
   24SAPC   H7R 3164   4.318   6.097   9.875  2.9495  1.0490  1.2075
   24SAPC   H7S 3165   4.247   5.934   9.850  0.1665  0.4443 -0.1731
   24SAPC   C28 3166   4.375   5.992   9.685  0.1929  0.0695  0.5340
   24SAPC   H8R 3167   4.458   5.921   9.667 -0.5533 -0.5368 -0.6544
   24SAPC   C29 3168   4.331   6.067   9.585  0.3122 -0.4968 -0.0833
   24SAPC   H9R 3169   4.373   6.058   9.484  0.5224  0.2407 -0.0645
   24SAPC  C210 3170   4.228   6.173   9.602  0.2559  0.0375  0.5582
   24SAPC  H10R 3171   4.282   6.269   9.614 -1.8597  1.5705 -1.3452
   24SAPC  H10S 3172   4.177   6.171   9.701 -1.5324  0.9841 -0.2950
   24SAPC  C211 3173   4.136   6.187   9.480 -0.0068 -0.4771  0.9148
   24SAPC  H11R 3174   4.033   6.167   9.513  1.3387 -2.3950  4.4233
   24SAPC  C212 3175   4.163   6.218   9.353 -0.1085  0.2324 -0.4543
   24SAPC  H12R 3176   4.080   6.213   9.281  0.1782  1.2177 -0.8732
   24SAPC  C213 3177   4.297   6.244   9.295 -0.1628 -0.5355 -0.6717
   24SAPC  H13R 3178   4.335   6.150   9.249 -0.7127 -2.6031  2.7727
   24SAPC  H13S 3179   4.368   6.272   9.376 -2.3911  3.8856  0.0071
   24SAPC  C214 3180   4.286   6.359   9.198 -0.2062  0.0637  0.4977
   24SAPC  H14R 3181   4.228   6.445   9.234  0.8910  1.0764 -0.0837
   24SAPC  C215 3182   4.337   6.358   9.073  0.0448 -0.6549  0.1426
   24SAPC  H15R 3183   4.339   6.450   9.013  0.0336 -0.8751 -0.1933
   24SAPC  C216 3184   4.414   6.240   9.005  0.0532  0.7407 -0.0475
   24SAPC  H16R 3185   4.332   6.170   8.979 -2.4357  3.5006 -0.1558
   24SAPC  H16S 3186   4.494   6.195   9.067 -0.1441  0.2842 -0.1247
   24SAPC  C217 3187   4.482   6.294   8.879 -0.4006 -0.0251 -0.4221
   24SAPC  H17R 3188   4.539   6.387   8.899  1.4952 -1.5696  1.8224
   24SAPC  H17S 3189   4.399   6.328   8.812  1.3488 -0.0273 -2.7188
   24SAPC  C218 3190   4.566   6.191   8.801  0.5828 -0.7799  0.0137
   24SAPC  H18R 3191   4.617   6.132   8.880  0.2426  0.1702  0.9710
   24SAPC  H18S 3192   4.638   6.246   8.738  0.7574 -2.2865 -1.1611
   24SAPC  C219 3193   4.494   6.105   8.701 -0.0993  0.2423 -0.0574
   24SAPC  H19R 3194   4.440   6.163   8.622 -0.2637  1.2780  0.7986
   24SAPC  H19S 3195   4.420   6.053   8.765  1.5485  1.1080  2.7198
   24SAPC  C220 3196   4.581   6.007   8.622 -0.2235 -0.0920 -0.4638
   24SAPC  H20R 3197   4.517   5.927   8.579  1.5178 -0.1179 -3.2759
   24SAPC  H20S 3198   4.659   5.952   8.680 -0.0756  0.1817 -0.4010
   24SAPC  H20T 3199   4.626   6.055   8.533 -1.2008 -0.8337 -1.3878
   24SAPC   C33 3200   4.718   5.506   9.971  0.0364  0.8058 -0.4297
   24SAPC   H3X 3201   4.691   5.399   9.983 -5.0561  1.9914  1.1041
   24SAPC   H3Y 3202   4.826   5.511   9.998 -0.4132 -0.8377  2.0409
   24SAPC   C34 3203   4.707   5.550   9.821 -0.2091  0.0186 -0.6229
   24SAPC   H4X 3204   4.773   5.474   9.775 -1.2948 -2.1470  1.1712
   24SAPC   H4Y 3205   4.752   5.651   9.807  0.0038 -0.1140 -0.9047
   24SAPC   C35 3206   4.567   5.557   9.766  0.1258  0.3070  0.1939
   24SAPC   H5X 3207   4.508   5.619   9.837  2.8313  1.5644  1.4717
   24SAPC   H5Y 3208   4.519   5.457   9.759  1.3454 -0.2127 -1.1761
   24SAPC   C36 3209   4.552   5.640   9.635  0.0660 -0.1762 -0.2268
   24SAPC   H6X 3210   4.579   5.746   9.649  2.8198 -0.7838 -0.3510
   24SAPC   H6Y 3211   4.448   5.634   9.598 -0.3041  0.1294  0.7273
   24SAPC   C37 3212   4.642   5.595   9.517 -0.4037  0.0522  0.4211
   24SAPC   H7X 3213   4.750   5.619   9.526 -0.4345 -0.1660  1.4774
   24SAPC   H7Y 3214   4.610   5.667   9.439 -1.9967  1.2158  2.0588
   24SAPC   C38 3215   4.607   5.459   9.452  0.2624  0.6800 -0.1183
   24SAPC   H8X 3216   4.502   5.454   9.417  0.8215  0.4462 -1.8355
   24SAPC   H8Y 3217   4.625   5.375   9.523  0.0013  0.7566  0.0402
   24SAPC   C39 3218   4.696   5.438   9.330 -0.8907 -0.1889 -0.4249
   24SAPC   H9X 3219   4.799   5.465   9.361 -0.4477 -1.4400 -0.7636
   24SAPC   H9Y 3220   4.664   5.507   9.249  1.7034  0.1293 -1.2598
   24SAPC  C310 3221   4.696   5.300   9.263  0.1594  0.4443 -0.2627
   24SAPC  H10X 3222   4.594   5.268   9.233  0.5704 -0.5661 -0.6406
   24SAPC  H10Y 3223   4.717   5.221   9.339  0.9551  0.7947 -0.1045
   24SAPC  C311 3224   4.786   5.273   9.145  0.3875  0.1112  0.0172
   24SAPC  H11X 3225   4.883   5.303   9.188 -0.4200 -0.0029  2.0189
   24SAPC  H11Y 3226   4.765   5.349   9.067 -1.4715  0.8645  1.1929
   24SAPC  C312 3227   4.798   5.130   9.084 -0.1877  0.7525  0.7457
   24SAPC  H12X 3228   4.826   5.066   9.170  0.2353  0.4296  0.3676
   24SAPC  H12Y 3229   4.876   5.118   9.006  0.1505  0.4117  1.1337
   24SAPC  C313 3230   4.679   5.080   9.002 -0.6904  0.2127 -0.4449
   24SAPC  H13X 3231   4.590   5.106   9.063 -2.0009 -2.7530 -0.9007
   24SAPC  H13Y 3232   4.692   4.969   9.008 -0.3618  0.2750  0.1799
   24SAPC  C314 3233   4.673   5.132   8.857 -0.4873 -0.0428 -0.4769
   24SAPC  H14X 3234   4.774   5.140   8.812  0.1140  2.3208  1.0810
   24SAPC  H14Y 3235   4.631   5.235   8.860 -1.0043 -0.2496 -0.5067
   24SAPC  C315 3236   4.571   5.054   8.775 -1.1918  0.0548 -0.0302
   24SAPC  H15X 3237   4.466   5.092   8.777 -1.5330 -0.8491 -0.2622
   24SAPC  H15Y 3238   4.562   4.949   8.809 -2.3370  0.4838  1.0861
   24SAPC  C316 3239   4.623   5.054   8.630  0.8677  0.0333  0.3365
   24SAPC  H16X 3240   4.730   5.025   8.619  1.1239  0.4623  1.5463
   24SAPC  H16Y 3241   4.603   5.154   8.585 -0.3348  0.0552  0.8777
   24SAPC  C317 3242   4.541   4.945   8.540  0.0743 -0.0706 -0.3368
   24SAPC  H17X 3243   4.433   4.951   8.564 -0.0459 -0.9122 -0.6089
   24SAPC  H17Y 3244   4.585   4.844   8.556 -0.1212 -0.4376 -1.9501
   24SAPC  C318 3245   4.559   4.971   8.392  0.2289  0.2583  0.4725
   24SAPC  H18X 3246   4.639   5.047   8.381 -0.3291  1.1979  2.4845
   24SAPC  H18Y 3247   4.468   5.025   8.355 -0.3860 -0.8724  0.2894
   24SAPC  H18Z 3248   4.567   4.886   8.321  0.8325 -1.8891  2.9908
   25SAPC     N 3249   0.068   4.047   5.745 -0.6106  0.6125  0.0920
   25SAPC   C12 3250   0.172   3.935   5.739 -0.0266  0.9929  0.3330
   25SAPC  H12A 3251   0.274   3.970   5.739 -0.3066  1.8407 -0.0141
   25SAPC  H12B 3252   0.164   3.888   5.642 -1.3521 -0.5340  1.1288
   25SAPC   C13 3253   0.095   4.142   5.632 -0.4587  0.2552 -0.2187
   25SAPC  H13A 3254   0.021   4.220   5.629 -1.7091 -0.9120 -0.5882
   25SAPC  H13B 3255   0.191   4.185   5.654 -0.0928 -1.4280  1.8360
   25SAPC  H13C 3256   0.090   4.076   5.547 -1.0385  1.1790 -0.9118
   25SAPC   C14 3257  -0.067   4.003   5.712  0.1754 -0.6027 -0.0445
   25SAPC  H14A 3258  -0.115   3.949   5.793 -0.1300  0.3982  0.4607
   25SAPC  H14B 3259  -0.134   4.087   5.713  0.4320 -0.3937 -0.5795
   25SAPC  H14C 3260  -0.070   3.938   5.626  1.9478  0.1579 -0.7369
   25SAPC   C15 3261   0.086   4.129   5.868  0.0460 -0.5019 -0.2536
   25SAPC  H15A 3262   0.175   4.190   5.869 -1.2988  1.5568  0.1233
   25SAPC  H15B 3263   0.001   4.197   5.874 -0.6260 -1.3007 -0.4831
   25SAPC  H15C 3264   0.083   4.065   5.954 -2.3265  1.2804  1.1404
   25SAPC   C11 3265   0.147   3.819   5.847  0.3861  0.0815  0.0237
   25SAPC  H11A 3266   0.193   3.723   5.814 -0.7526  0.1008 -1.7670
   25SAPC  H11B 3267   0.039   3.793   5.849  0.0737  1.3140  2.3952
   25SAPC     P 3268   0.344   3.872   5.986  0.1912  0.0642 -0.2333
   25SAPC   O13 3269   0.394   3.736   5.956 -0.5578  0.4646  0.5608
   25SAPC   O14 3270   0.396   3.986   5.906  0.0325  0.2283 -0.6673
   25SAPC   O12 3271   0.186   3.864   5.968 -0.2837 -0.1095 -0.2182
   25SAPC   O11 3272   0.358   3.907   6.136 -0.0366 -0.2337 -0.1114
   25SAPC    C1 3273   0.329   4.041   6.184  0.2715  0.5769  0.2972
   25SAPC    HA 3274   0.363   4.118   6.112 -0.4375  0.0114 -0.6548
   25SAPC    HB 3275   0.219   4.055   6.190  0.1237  0.0285 -0.8961
   25SAPC    C2 3276   0.382   4.086   6.329  0.2185 -0.0927 -0.4334
   25SAPC    HS 3277   0.475   4.144   6.307  1.0457 -0.4748  1.8143
   25SAPC   O21 3278   0.416   3.965   6.402  0.5854 -0.2119  0.5113
   25SAPC   C21 3279   0.532   3.975   6.470  0.3696  0.2067  0.0309
   25SAPC   O22 3280   0.619   4.060   6.466  0.6894 -0.2446  0.1556
   25SAPC   C22 3281   0.535   3.859   6.570 -0.5870  0.3350  0.4070
   25SAPC   H2R 3282   0.458   3.786   6.537  1.0601 -1.2728 -0.0561
   25SAPC   H2S 3283   0.634   3.808   6.567 -0.1274  1.1122  1.6035
   25SAPC    C3 3284   0.280   4.165   6.404  0.0512  0.4800 -0.3049
   25SAPC    HX 3285   0.187   4.105   6.390 -0.0372  0.4091  0.5422
   25SAPC    HY 3286   0.257   4.266   6.364  0.2504  1.1697  1.2475
   25SAPC   O31 3287   0.318   4.171   6.544 -0.0707  0.3809 -0.3735
   25SAPC   C31 3288   0.335   4.297   6.594 -0.0236  0.4022 -0.6001
   25SAPC   O32 3289   0.316   4.393   6.533  0.4655  0.1146  0.1849
   25SAPC   C32 3290   0.417   4.299   6.728  0.7248 -0.4123  0.3657
   25SAPC   H2X 3291   0.436   4.407   6.746  0.8382 -0.1541 -1.1570
   25SAPC   H2Y 3292   0.518   4.256   6.714  0.3265 -1.0929 -0.4595
   25SAPC   C23 3293   0.516   3.907   6.713 -0.0567 -1.4079 -0.9899
   25SAPC   H3R 3294   0.418   3.958   6.713  0.7112  0.2575 -3.3477
   25SAPC   H3S 3295   0.597   3.982   6.731 -0.3805 -1.3875  0.4578
   25SAPC   C24 3296   0.519   3.790   6.812 -0.0194 -0.0362  0.2170
   25SAPC   H4R 3297   0.618   3.739   6.812 -0.4363 -0.8649 -0.3706
   25SAPC   H4S 3298   0.448   3.718   6.766  2.0898 -0.5580 -2.4550
   25SAPC   C25 3299   0.483   3.835   6.954  1.0892  0.2824  0.5064
   25SAPC   H5R 3300   0.521   3.935   6.979 -1.9427  1.2031  1.9087
   25SAPC   C26 3301   0.410   3.777   7.050  0.6082  0.8832  0.1931
   25SAPC   H6R 3302   0.409   3.833   7.144 -0.1687  2.3741 -0.6626
   25SAPC   C27 3303   0.353   3.639   7.037  0.3094 -0.5213  0.3341
   25SAPC   H7R 3304   0.401   3.571   7.109 -1.1675  0.0186  1.8961
   25SAPC   H7S 3305   0.380   3.590   6.941 -2.1307  0.3974 -0.9180
   25SAPC   C28 3306   0.197   3.644   7.045  0.0785 -0.1025  0.4948
   25SAPC   H8R 3307   0.146   3.661   6.949  1.6161 -2.3740 -0.8256
   25SAPC   C29 3308   0.130   3.624   7.160  0.0387 -0.0338 -0.1826
   25SAPC   H9R 3309   0.020   3.625   7.160 -0.0551 -1.5821 -2.5022
   25SAPC  C210 3310   0.195   3.592   7.293  0.1781 -0.1662  0.0911
   25SAPC  H10R 3311   0.304   3.569   7.283  0.3555  0.3106  0.8812
   25SAPC  H10S 3312   0.159   3.493   7.329  1.9227 -0.8202  0.1233
   25SAPC  C211 3313   0.177   3.709   7.392  1.0472 -0.5877  0.0645
   25SAPC  H11R 3314   0.190   3.807   7.345  0.9119 -0.1478  0.9334
   25SAPC  C212 3315   0.154   3.700   7.523 -0.8951  0.5415  0.0509
   25SAPC  H12R 3316   0.169   3.794   7.579  1.6197 -0.0542  0.5150
   25SAPC  C213 3317   0.131   3.577   7.602 -0.8019 -0.3525 -0.4994
   25SAPC  H13R 3318   0.152   3.488   7.539 -0.1482 -0.4460 -0.1484
   25SAPC  H13S 3319   0.021   3.590   7.617 -0.3789  1.7001  1.4258
   25SAPC  C214 3320   0.214   3.580   7.732  0.7494  0.0412  0.9655
   25SAPC  H14R 3321   0.306   3.519   7.730  1.9452  1.7693 -1.0963
   25SAPC  C215 3322   0.189   3.660   7.839 -0.7349  0.7095  0.4306
   25SAPC  H15R 3323   0.270   3.657   7.914  0.5185  2.2947 -0.7950
   25SAPC  C216 3324   0.085   3.765   7.859 -0.0628  0.1810 -0.1122
   25SAPC  H16R 3325   0.003   3.765   7.784  2.3981 -0.3664 -3.0027
   25SAPC  H16S 3326   0.128   3.868   7.865 -1.4129  0.7253  0.6569
   25SAPC  C217 3327   0.024   3.748   7.999  0.0098  0.9589  0.1361
   25SAPC  H17R 3328   0.096   3.782   8.077 -1.2141 -1.1349  2.3022
   25SAPC  H17S 3329   0.026   3.641   8.025 -1.6347  1.3078  1.9651
   25SAPC  C218 3330  -0.116   3.792   8.027  0.5708  0.4793 -0.3289
   25SAPC  H18R 3331  -0.173   3.781   7.932  0.9206 -0.0231 -0.4868
   25SAPC  H18S 3332  -0.110   3.901   8.045  0.5342  0.1857  1.7180
   25SAPC  C219 3333  -0.182   3.724   8.148  0.7999  0.4082 -0.8545
   25SAPC  H19R 3334  -0.125   3.750   8.240 -1.3714 -2.8925  1.6584
   25SAPC  H19S 3335  -0.186   3.613   8.147 -1.5583  0.4661 -1.1658
   25SAPC  C220 3336  -0.318   3.789   8.165 -0.8765  0.2567  0.2244
   25SAPC  H20R 3337  -0.397   3.727   8.118  1.6256 -0.5003 -3.3703
   25SAPC  H20S 3338  -0.315   3.894   8.129  0.7313 -0.3305 -1.4977
   25SAPC  H20T 3339  -0.331   3.793   8.276  0.9500  0.2651  0.4544
   25SAPC   C33 3340   0.343   4.242   6.851  0.7458  0.0279  0.0107
   25SAPC   H3X 3341   0.317   4.135   6.836  2.3429 -0.4466  0.4268
   25SAPC   H3Y 3342   0.247   4.293   6.874  0.8149  0.8617 -1.4015
   25SAPC   C34 3343   0.427   4.249   6.972  0.0447 -0.9198 -0.2053
   25SAPC   H4X 3344   0.436   4.354   7.007  2.6906 -0.8200 -0.9661
   25SAPC   H4Y 3345   0.529   4.212   6.951  0.6223  0.6722 -0.2948
   25SAPC   C35 3346   0.355   4.173   7.086 -0.2501  0.7680 -0.1790
   25SAPC   H5X 3347   0.319   4.071   7.061 -1.4227  1.4614 -1.4677
   25SAPC   H5Y 3348   0.259   4.225   7.105 -1.1518 -0.7528 -0.4293
   25SAPC   C36 3349   0.430   4.186   7.214 -0.2488 -1.1616 -1.1987
   25SAPC   H6X 3350   0.438   4.291   7.250  1.4058 -1.8996  0.8268
   25SAPC   H6Y 3351   0.534   4.147   7.209 -0.0751 -0.5539 -3.4334
   25SAPC   C37 3352   0.359   4.107   7.328  0.2716  0.3688 -0.1915
   25SAPC   H7X 3353   0.373   4.000   7.303 -0.3349  0.5777 -1.5411
   25SAPC   H7Y 3354   0.248   4.112   7.326  0.2369 -0.4716 -0.9011
   25SAPC   C38 3355   0.410   4.140   7.468  0.0732 -0.4319  0.5018
   25SAPC   H8X 3356   0.397   4.250   7.475 -1.0495 -0.6023  1.5231
   25SAPC   H8Y 3357   0.521   4.141   7.475  0.1056 -0.8549  0.1226
   25SAPC   C39 3358   0.340   4.068   7.585 -0.5255 -0.5898 -0.1608
   25SAPC   H9X 3359   0.393   3.974   7.612  1.8008  0.4757 -0.7426
   25SAPC   H9Y 3360   0.232   4.044   7.574 -0.9568  1.1114  0.1154
   25SAPC  C310 3361   0.362   4.154   7.721 -0.2729 -0.1101  0.0391
   25SAPC  H10X 3362   0.336   4.261   7.709  1.7965  0.2544 -1.7931
   25SAPC  H10Y 3363   0.472   4.150   7.732 -0.1969 -1.1118 -0.9621
   25SAPC  C311 3364   0.289   4.082   7.835 -0.5418  0.2226 -1.1004
   25SAPC  H11X 3365   0.320   3.976   7.841  0.3393  0.5586  2.0536
   25SAPC  H11Y 3366   0.184   4.078   7.800 -1.4031 -1.2006  1.3575
   25SAPC  C312 3367   0.295   4.157   7.971  0.2763  0.2231  0.3569
   25SAPC  H12X 3368   0.255   4.260   7.968  0.3880  0.2703  0.4515
   25SAPC  H12Y 3369   0.401   4.154   8.006  0.7387  1.3740 -0.8944
   25SAPC  C313 3370   0.212   4.073   8.071  0.3550  0.0399 -0.2143
   25SAPC  H13X 3371   0.247   3.967   8.073  0.4577  0.0860  0.6668
   25SAPC  H13Y 3372   0.105   4.067   8.043  0.4667  0.2553 -0.7071
   25SAPC  C314 3373   0.233   4.133   8.212 -0.3569  0.4045 -0.3383
   25SAPC  H14X 3374   0.178   4.230   8.210  2.6060  2.1938 -0.3100
   25SAPC  H14Y 3375   0.339   4.157   8.232 -0.3212 -0.2283  0.2580
   25SAPC  C315 3376   0.170   4.046   8.324  0.2479 -0.4117 -0.0773
   25SAPC  H15X 3377   0.213   3.945   8.341 -0.8420 -0.4723  2.8768
   25SAPC  H15Y 3378   0.061   4.029   8.317  0.2023 -0.3831  0.5275
   25SAPC  C316 3379   0.194   4.107   8.469  0.0277 -0.2037 -0.2559
   25SAPC  H16X 3380   0.300   4.099   8.499  0.4821 -1.6983 -2.0763
   25SAPC  H16Y 3381   0.137   4.041   8.538  0.1039  0.5280  0.5226
   25SAPC  C317 3382   0.157   4.254   8.486 -0.2092 -0.6255  0.5164
   25SAPC  H17X 3383   0.050   4.271   8.462  0.0824 -0.2842 -0.6177
   25SAPC  H17Y 3384   0.214   4.316   8.414 -0.0406  0.7323  1.7688
   25SAPC  C318 3385   0.185   4.304   8.628  0.2784  0.0939 -0.6254
   25SAPC  H18X 3386   0.292   4.278   8.644  0.6382  2.3019  1.0971
   25SAPC  H18Y 3387   0.128   4.239   8.698  1.4803  1.2191  1.4894
   25SAPC  H18Z 3388   0.185   4.413   8.645 -2.6470  0.1493 -0.5234
   26SAPC     N 3389   4.949   5.567   5.920  0.3304 -0.7952 -0.8332
   26SAPC   C12 3390   5.044   5.663   5.984 -0.5911  0.6714  0.2541
   26SAPC  H12A 3391   5.056   5.744   5.913  0.0174 -0.8688 -1.4846
   26SAPC  H12B 3392   5.142   5.618   5.988 -0.5479  0.5718 -1.2010
   26SAPC   C13 3393   4.831   5.639   5.864  0.3356  0.6451 -0.5591
   26SAPC  H13A 3394   4.762   5.566   5.824 -0.2992  0.3580  0.9709
   26SAPC  H13B 3395   4.790   5.694   5.948 -1.7292 -1.1811 -0.2800
   26SAPC  H13C 3396   4.851   5.714   5.788 -0.6830 -0.3416 -1.8516
   26SAPC   C14 3397   5.011   5.488   5.815 -0.1696  1.0066  0.3898
   26SAPC  H14A 3398   4.953   5.411   5.767 -1.5913  2.1319  0.2281
   26SAPC  H14B 3399   5.032   5.557   5.734 -3.0155  0.8719 -0.5673
   26SAPC  H14C 3400   5.100   5.432   5.839 -0.2191  0.5296 -0.4819
   26SAPC   C15 3401   4.895   5.474   6.025  0.4305  0.9487 -0.3477
   26SAPC  H15A 3402   4.978   5.426   6.075  1.3076  1.8109 -0.9496
   26SAPC  H15B 3403   4.843   5.530   6.102 -2.1983 -1.0799 -0.4764
   26SAPC  H15C 3404   4.828   5.405   5.975  1.8020  1.9589 -3.8065
   26SAPC   C11 3405   5.003   5.726   6.116 -0.2146 -0.1290 -0.2950
   26SAPC  H11A 3406   5.081   5.799   6.145  0.4667 -0.2913 -1.6440
   26SAPC  H11B 3407   5.012   5.645   6.192 -1.0611  0.9314  0.9707
   26SAPC     P 3408   4.777   5.758   6.239 -0.3632  0.1298  0.1286
   26SAPC   O13 3409   4.704   5.882   6.264  0.3285  0.0420 -0.7694
   26SAPC   O14 3410   4.686   5.646   6.205  0.6365  0.5597  0.2454
   26SAPC   O12 3411   4.881   5.788   6.118  0.3611 -0.4289  0.2432
   26SAPC   O11 3412   4.865   5.715   6.362  0.4660 -0.2955 -0.0421
   26SAPC    C1 3413   4.819   5.606   6.445  0.4492 -0.2163 -0.5109
   26SAPC    HA 3414   4.712   5.602   6.474  0.6053 -0.1313  0.1073
   26SAPC    HB 3415   4.824   5.508   6.393 -0.6666 -0.9870  0.7549
   26SAPC    C2 3416   4.905   5.586   6.574  0.0307 -0.0469  0.2990
   26SAPC    HS 3417   4.920   5.477   6.586 -1.3095 -0.1568  1.2086
   26SAPC   O21 3418   4.842   5.628   6.693  0.4466 -0.0045 -0.0917
   26SAPC   C21 3419   4.746   5.546   6.752  0.0350  0.0789  0.2361
   26SAPC   O22 3420   4.713   5.434   6.715 -0.0147 -0.3017 -0.5250
   26SAPC   C22 3421   4.671   5.615   6.865 -0.2997 -0.0691  0.1723
   26SAPC   H2R 3422   4.629   5.713   6.833 -1.4258 -1.0156 -1.3924
   26SAPC   H2S 3423   4.592   5.549   6.907  0.8443 -0.4637  1.8193
   26SAPC    C3 3424   5.044   5.647   6.565  0.4258  0.7198  0.2787
   26SAPC    HX 3425   5.038   5.756   6.546  1.5930  0.8196  0.4502
   26SAPC    HY 3426   5.090   5.600   6.476  0.1339 -0.0948  0.5457
   26SAPC   O31 3427   5.126   5.613   6.673 -0.4313  0.1916  0.6488
   26SAPC   C31 3428   5.133   5.697   6.773 -0.6244 -0.0917  0.4129
   26SAPC   O32 3429   5.064   5.796   6.791 -0.4390  0.2119 -0.0016
   26SAPC   C32 3430   5.231   5.650   6.884  0.3629  0.3843  0.0103
   26SAPC   H2X 3431   5.203   5.711   6.972 -0.5473 -1.2325  0.9016
   26SAPC   H2Y 3432   5.336   5.671   6.855  2.0009 -2.2548  3.2566
   26SAPC   C23 3433   4.765   5.665   6.981  0.1719 -0.2051 -0.4524
   26SAPC   H3R 3434   4.689   5.697   7.054 -1.2790 -0.8477 -1.6248
   26SAPC   H3S 3435   4.840   5.742   6.954 -1.6495  0.8714 -2.7990
   26SAPC   C24 3436   4.829   5.550   7.065 -0.4409  0.0349  0.4269
   26SAPC   H4R 3437   4.902   5.596   7.136 -0.2497  1.1093 -0.4416
   26SAPC   H4S 3438   4.891   5.503   6.985  0.5781  0.4550  0.9475
   26SAPC   C25 3439   4.728   5.438   7.106 -0.6059  0.5299  0.0405
   26SAPC   H5R 3440   4.719   5.370   7.020 -1.1160  0.8989 -0.2028
   26SAPC   C26 3441   4.675   5.411   7.226  0.1495 -0.7598 -0.6831
   26SAPC   H6R 3442   4.593   5.337   7.227 -0.3587 -0.2831 -2.7297
   26SAPC   C27 3443   4.692   5.492   7.355 -0.7683 -0.2343 -0.4212
   26SAPC   H7R 3444   4.595   5.528   7.393  0.0377  0.9812  0.5849
   26SAPC   H7S 3445   4.742   5.590   7.343 -0.7708 -0.0030  1.1974
   26SAPC   C28 3446   4.755   5.404   7.464 -0.3518  0.5601  0.5126
   26SAPC   H8R 3447   4.850   5.358   7.434 -2.9195 -4.2697 -1.5014
   26SAPC   C29 3448   4.711   5.365   7.590 -1.0961  0.6896  0.6622
   26SAPC   H9R 3449   4.766   5.283   7.638 -0.3090  1.0496  0.3961
   26SAPC  C210 3450   4.573   5.404   7.641 -0.1930 -0.4085 -0.5641
   26SAPC  H10R 3451   4.508   5.457   7.568  1.4610  2.5433 -0.0596
   26SAPC  H10S 3452   4.584   5.484   7.718 -2.6034  0.0031 -0.5782
   26SAPC  C211 3453   4.496   5.297   7.716  0.2190 -0.6879  0.0576
   26SAPC  H11R 3454   4.414   5.249   7.661  0.7304 -0.8639 -0.5682
   26SAPC  C212 3455   4.534   5.259   7.842  0.8105 -0.4034 -0.2430
   26SAPC  H12R 3456   4.476   5.175   7.882 -0.4689  0.2019 -0.7623
   26SAPC  C213 3457   4.651   5.300   7.926  0.3369  0.7113  0.1070
   26SAPC  H13R 3458   4.647   5.407   7.956  0.2187  0.3939  1.2749
   26SAPC  H13S 3459   4.744   5.284   7.866 -0.7965 -1.1996 -1.2381
   26SAPC  C214 3460   4.667   5.226   8.052  0.4895  0.0548 -0.6712
   26SAPC  H14R 3461   4.755   5.161   8.043  1.8564  1.7998 -0.5367
   26SAPC  C215 3462   4.578   5.239   8.150  0.3755  0.0285  0.3266
   26SAPC  H15R 3463   4.590   5.194   8.250  0.3746 -0.9848 -0.1190
   26SAPC  C216 3464   4.461   5.332   8.145 -0.0574 -0.7630  0.4301
   26SAPC  H16R 3465   4.387   5.293   8.071  1.3067 -2.7922  0.0328
   26SAPC  H16S 3466   4.486   5.435   8.112 -2.6059 -0.0680  0.4324
   26SAPC  C217 3467   4.393   5.363   8.277  0.3078 -0.4493 -0.6358
   26SAPC  H17R 3468   4.350   5.273   8.327  2.0129 -0.2115  1.4181
   26SAPC  H17S 3469   4.309   5.431   8.253  0.7217  0.6710  0.9456
   26SAPC  C218 3470   4.484   5.435   8.381  0.7748  0.2904 -0.3276
   26SAPC  H18R 3471   4.512   5.538   8.350  2.6640 -0.3504 -0.8829
   26SAPC  H18S 3472   4.578   5.377   8.395  0.3052 -0.6995 -1.0648
   26SAPC  C219 3473   4.411   5.435   8.520 -0.0537  0.4678 -0.2302
   26SAPC  H19R 3474   4.396   5.327   8.537  1.4390  0.7025  3.4230
   26SAPC  H19S 3475   4.315   5.487   8.499  0.3741  1.5127  0.3369
   26SAPC  C220 3476   4.481   5.514   8.631  0.5918 -0.7491  0.1786
   26SAPC  H20R 3477   4.497   5.617   8.595  0.5619 -0.8059 -0.0022
   26SAPC  H20S 3478   4.580   5.471   8.657 -0.2471 -1.5272  2.3363
   26SAPC  H20T 3479   4.419   5.522   8.723  2.3791  1.8258  1.2516
   26SAPC   C33 3480   5.213   5.498   6.914  0.3039 -0.4912 -0.0180
   26SAPC   H3X 3481   5.239   5.441   6.823  0.1314 -0.0185 -0.3650
   26SAPC   H3Y 3482   5.112   5.476   6.956  0.1288 -1.1647 -0.7685
   26SAPC   C34 3483   5.306   5.450   7.035 -0.1141 -1.0831 -0.3591
   26SAPC   H4X 3484   5.397   5.513   7.031 -0.9480  0.1478 -0.4274
   26SAPC   H4Y 3485   5.325   5.344   7.007 -0.5075 -1.3745  0.4376
   26SAPC   C35 3486   5.240   5.457   7.174 -0.8441 -0.2254 -0.0551
   26SAPC   H5X 3487   5.281   5.377   7.238 -1.1567 -0.0226  0.3985
   26SAPC   H5Y 3488   5.131   5.433   7.167 -1.2143  1.4730 -0.5155
   26SAPC   C36 3489   5.250   5.594   7.238  0.5193 -0.3634 -0.9821
   26SAPC   H6X 3490   5.195   5.673   7.184 -1.8718 -0.1490  1.5655
   26SAPC   H6Y 3491   5.358   5.620   7.234  0.6625 -0.3371  1.4157
   26SAPC   C37 3492   5.199   5.599   7.383 -0.0964  0.0824 -1.0255
   26SAPC   H7X 3493   5.097   5.555   7.374 -0.0248 -1.0787  2.2352
   26SAPC   H7Y 3494   5.199   5.706   7.413 -0.5923  0.1634 -1.3025
   26SAPC   C38 3495   5.293   5.534   7.494 -0.0873 -0.6066  0.3818
   26SAPC   H8X 3496   5.398   5.568   7.481 -1.0114  2.2241 -0.3780
   26SAPC   H8Y 3497   5.289   5.427   7.465  2.8048 -0.0307 -2.7931
   26SAPC   C39 3498   5.254   5.564   7.631  0.2872 -0.3460 -0.4396
   26SAPC   H9X 3499   5.150   5.550   7.666 -0.2348  0.0471 -1.8121
   26SAPC   H9Y 3500   5.265   5.673   7.645 -1.5105 -0.2518  0.4504
   26SAPC  C310 3501   5.340   5.497   7.742  0.0023 -0.2268  0.7707
   26SAPC  H10X 3502   5.324   5.547   7.840  1.5727  0.9987  0.4511
   26SAPC  H10Y 3503   5.447   5.513   7.719 -0.3135 -0.4284 -0.9636
   26SAPC  C311 3504   5.303   5.350   7.762  0.5306 -0.4828 -0.3754
   26SAPC  H11X 3505   5.336   5.292   7.673  1.3919 -0.1579 -0.2786
   26SAPC  H11Y 3506   5.193   5.349   7.748  0.7687 -0.6724 -2.7609
   26SAPC  C312 3507   5.336   5.286   7.891 -0.8335  0.0733  0.3279
   26SAPC  H12X 3508   5.447   5.285   7.890 -0.8034 -2.2042  0.0586
   26SAPC  H12Y 3509   5.306   5.179   7.882  0.9369 -0.8683  3.9198
   26SAPC  C313 3510   5.291   5.350   8.022  0.1587 -0.4048  0.5740
   26SAPC  H13X 3511   5.199   5.409   8.002 -1.0011 -2.7499 -1.6192
   26SAPC  H13Y 3512   5.372   5.412   8.066  1.1696 -1.5850  0.4179
   26SAPC  C314 3513   5.250   5.240   8.116 -0.6384 -0.0212 -0.7540
   26SAPC  H14X 3514   5.328   5.163   8.137  0.7330  1.7499  1.1009
   26SAPC  H14Y 3515   5.158   5.199   8.069  1.4212 -2.1166 -3.2610
   26SAPC  C315 3516   5.208   5.295   8.258  0.0308 -0.5700 -0.3001
   26SAPC  H15X 3517   5.129   5.371   8.242  1.6018  0.6878 -2.5997
   26SAPC  H15Y 3518   5.287   5.357   8.307 -0.3798  1.8928 -2.5336
   26SAPC  C316 3519   5.169   5.182   8.356  0.0244  0.0020  0.3424
   26SAPC  H16X 3520   5.250   5.124   8.404 -0.3457 -2.1782 -1.5186
   26SAPC  H16Y 3521   5.093   5.124   8.300  0.3690  1.7873 -2.1488
   26SAPC  C317 3522   5.090   5.244   8.475 -0.8453 -0.1633  0.3544
   26SAPC  H17X 3523   5.013   5.315   8.437  0.2768 -0.3683 -2.5378
   26SAPC  H17Y 3524   5.164   5.311   8.523 -1.7495  0.0247  1.5432
   26SAPC  C318 3525   5.049   5.148   8.579 -0.4294  0.1790 -0.2944
   26SAPC  H18X 3526   4.943   5.115   8.569  0.0708 -2.1806  1.3855
   26SAPC  H18Y 3527   5.056   5.196   8.679  1.3091  1.6871 -1.0717
   26SAPC  H18Z 3528   5.094   5.047   8.585 -1.8708 -0.4124  2.1317
   27SAPC     N 3529   3.614   5.665   6.369 -0.1397 -0.7764 -0.3078
   27SAPC   C12 3530   3.597   5.539   6.455  0.4502  0.5195  0.2670
   27SAPC  H12A 3531   3.645   5.462   6.397  0.2648  0.6210 -0.0237
   27SAPC  H12B 3532   3.494   5.509   6.450  1.1990 -2.1376 -0.8939
   27SAPC   C13 3533   3.552   5.780   6.436 -0.4395 -0.2722  0.5815
   27SAPC  H13A 3534   3.446   5.769   6.453 -0.9581  3.3325  0.3713
   27SAPC  H13B 3535   3.601   5.811   6.527 -0.7944 -2.2727  1.5118
   27SAPC  H13C 3536   3.561   5.861   6.365  0.9140  0.7477  1.8481
   27SAPC   C14 3537   3.756   5.697   6.356  0.5218 -0.0365 -0.1554
   27SAPC  H14A 3538   3.805   5.695   6.453 -1.6043  1.0092  1.0243
   27SAPC  H14B 3539   3.798   5.618   6.296  0.1634 -1.6579  1.6176
   27SAPC  H14C 3540   3.774   5.796   6.317 -0.2886  1.1426  2.2675
   27SAPC   C15 3541   3.551   5.656   6.235  0.5358 -0.0972 -0.3051
   27SAPC  H15A 3542   3.444   5.639   6.239  0.4968 -0.0203 -0.9411
   27SAPC  H15B 3543   3.563   5.751   6.186 -0.3675 -0.5611 -1.5129
   27SAPC  H15C 3544   3.598   5.584   6.168  0.8599 -1.6623  1.5112
   27SAPC   C11 3545   3.654   5.537   6.600  0.7766  0.2686 -0.6768
   27SAPC  H11A 3546   3.614   5.454   6.661 -2.2608  2.2731  0.2498
   27SAPC  H11B 3547   3.618   5.623   6.661 -0.0268 -0.7483  0.3059
   27SAPC     P 3548   3.888   5.424   6.546  0.0098  0.0391  0.0648
   27SAPC   O13 3549   3.831   5.374   6.419  0.4901 -0.1743  0.3487
   27SAPC   O14 3550   4.035   5.455   6.543 -0.0270  0.1824  0.2149
   27SAPC   O12 3551   3.798   5.547   6.604  0.3286 -0.6692  0.3403
   27SAPC   O11 3552   3.865   5.314   6.654 -0.4399  0.4530 -0.7634
   27SAPC    C1 3553   3.889   5.338   6.795 -0.3149 -0.4780  0.2288
   27SAPC    HA 3554   3.997   5.360   6.809  0.4146 -2.4222 -1.7109
   27SAPC    HB 3555   3.833   5.424   6.837  2.0521  1.6890 -0.7445
   27SAPC    C2 3556   3.854   5.211   6.868  0.0282 -0.3273 -0.1735
   27SAPC    HS 3557   3.762   5.177   6.816 -1.4130 -0.0007  2.0008
   27SAPC   O21 3558   3.824   5.260   7.000  0.1952  0.1672 -0.1299
   27SAPC   C21 3559   3.779   5.161   7.074 -0.7196 -0.0788  0.0408
   27SAPC   O22 3560   3.740   5.054   7.030 -0.0191  0.2322 -0.1720
   27SAPC   C22 3561   3.789   5.195   7.218 -0.2617 -0.3489 -0.4568
   27SAPC   H2R 3562   3.894   5.180   7.250  0.9849  2.1716 -2.9116
   27SAPC   H2S 3563   3.762   5.303   7.222  2.8993  0.5634 -0.6964
   27SAPC    C3 3564   3.966   5.103   6.854 -0.0315 -0.4207 -0.0324
   27SAPC    HX 3565   4.019   5.127   6.760  0.2290 -2.5921 -0.4883
   27SAPC    HY 3566   3.912   5.006   6.856 -1.1169  0.1610 -0.2825
   27SAPC   O31 3567   4.054   5.117   6.972  0.1918  0.3991 -0.2221
   27SAPC   C31 3568   4.176   5.055   6.973  0.2306 -0.8771  0.1278
   27SAPC   O32 3569   4.209   4.980   6.883  0.0865 -0.4669 -0.4027
   27SAPC   C32 3570   4.243   5.063   7.110 -0.3178  0.0913  0.2106
   27SAPC   H2X 3571   4.316   5.147   7.103 -1.3074  0.8809 -0.9903
   27SAPC   H2Y 3572   4.299   4.969   7.128 -1.6485 -0.8039 -0.2550
   27SAPC   C23 3573   3.702   5.111   7.310  0.1378 -0.0288 -1.0505
   27SAPC   H3R 3574   3.716   5.002   7.293 -0.3709 -0.0564 -1.3372
   27SAPC   H3S 3575   3.595   5.131   7.287  0.1030  1.9530  0.5639
   27SAPC   C24 3576   3.716   5.151   7.464  0.6740 -0.3447  0.8840
   27SAPC   H4R 3577   3.825   5.141   7.481  0.8951  0.6434  0.1514
   27SAPC   H4S 3578   3.676   5.073   7.532  0.6642 -0.2969  0.9324
   27SAPC   C25 3579   3.663   5.289   7.500  0.0859  0.8439 -0.4394
   27SAPC   H5R 3580   3.603   5.339   7.423 -1.3182  0.1588  0.1834
   27SAPC   C26 3581   3.663   5.347   7.620  0.7207 -0.2093 -0.1222
   27SAPC   H6R 3582   3.606   5.441   7.624 -1.1816 -1.3617  1.5869
   27SAPC   C27 3583   3.710   5.294   7.748 -0.2436  0.1779 -0.4513
   27SAPC   H7R 3584   3.806   5.333   7.789 -0.6789 -0.6685  1.4644
   27SAPC   H7S 3585   3.737   5.186   7.743  0.5669  0.4136 -1.7584
   27SAPC   C28 3586   3.607   5.317   7.857  0.1722 -0.1348 -0.7078
   27SAPC   H8R 3587   3.528   5.243   7.841  0.3932 -0.6620  0.5609
   27SAPC   C29 3588   3.610   5.397   7.963 -0.2044  0.0523  0.3200
   27SAPC   H9R 3589   3.531   5.392   8.039 -0.7895  2.3069 -0.0576
   27SAPC  C210 3590   3.725   5.489   8.009 -0.5478  0.4705  0.3608
   27SAPC  H10R 3591   3.824   5.454   7.972 -0.7479  0.5369 -0.2592
   27SAPC  H10S 3592   3.728   5.488   8.120 -1.7641 -1.1452  0.4107
   27SAPC  C211 3593   3.698   5.625   7.940  0.6516  0.0172  0.3194
   27SAPC  H11R 3594   3.714   5.618   7.831 -1.0976  0.3832 -0.0001
   27SAPC  C212 3595   3.647   5.729   8.004 -0.3015 -0.6348  0.5024
   27SAPC  H12R 3596   3.641   5.824   7.949  0.7716 -1.2816 -0.7691
   27SAPC  C213 3597   3.605   5.742   8.143  0.5883  0.1305 -0.3424
   27SAPC  H13R 3598   3.534   5.658   8.160  0.2462  0.1625 -1.5044
   27SAPC  H13S 3599   3.539   5.831   8.154  1.5938  0.9580 -0.7697
   27SAPC  C214 3600   3.728   5.753   8.231  0.0144  0.3721  0.8412
   27SAPC  H14R 3601   3.817   5.777   8.170 -2.5220  2.4705 -2.4344
   27SAPC  C215 3602   3.741   5.755   8.366  0.7079  0.2744 -0.8829
   27SAPC  H15R 3603   3.836   5.769   8.420  0.6653 -1.6543 -0.1972
   27SAPC  C216 3604   3.624   5.734   8.468 -0.4976  0.3842  0.5524
   27SAPC  H16R 3605   3.627   5.628   8.502  0.6901  0.0419 -0.5101
   27SAPC  H16S 3606   3.529   5.758   8.417  0.1574 -1.6580 -1.8565
   27SAPC  C217 3607   3.644   5.844   8.583 -0.3063  0.1531  0.2240
   27SAPC  H17R 3608   3.554   5.848   8.649  1.0366 -0.4865  2.1883
   27SAPC  H17S 3609   3.660   5.947   8.544  0.2337 -0.8222 -2.3252
   27SAPC  C218 3610   3.758   5.810   8.690 -0.1177  0.2606 -0.1090
   27SAPC  H18R 3611   3.857   5.815   8.639  0.0193 -0.7580  0.0452
   27SAPC  H18S 3612   3.746   5.703   8.719  0.0984 -0.3408 -2.0859
   27SAPC  C219 3613   3.773   5.902   8.819 -0.4498  0.0175  0.2421
   27SAPC  H19R 3614   3.685   5.869   8.878  0.7211 -0.6886  1.6644
   27SAPC  H19S 3615   3.752   6.007   8.789 -0.8545  0.0449  0.6087
   27SAPC  C220 3616   3.907   5.868   8.881 -0.6392  0.3018 -0.5124
   27SAPC  H20R 3617   3.992   5.899   8.816  1.3017  1.0844  2.2262
   27SAPC  H20S 3618   3.914   5.759   8.898 -0.3937  0.2592 -0.8699
   27SAPC  H20T 3619   3.928   5.927   8.973  5.1069 -1.5161 -0.2284
   27SAPC   C33 3620   4.160   5.087   7.236  0.1948  0.5293  0.3383
   27SAPC   H3X 3621   4.080   5.010   7.233  0.9030 -0.2415  0.9081
   27SAPC   H3Y 3622   4.113   5.187   7.225 -0.2110  0.1793 -1.4077
   27SAPC   C34 3623   4.224   5.076   7.372  0.1767 -0.1269  1.1650
   27SAPC   H4X 3624   4.284   5.170   7.371  0.0631 -0.0561 -0.5419
   27SAPC   H4Y 3625   4.291   4.988   7.383  0.4303  0.1380  1.8549
   27SAPC   C35 3626   4.115   5.085   7.480 -0.3086  0.8550  0.4763
   27SAPC   H5X 3627   4.047   4.997   7.475  0.4695  0.2469  0.4891
   27SAPC   H5Y 3628   4.049   5.171   7.455 -2.1174 -0.5138  0.3380
   27SAPC   C36 3629   4.170   5.098   7.617 -0.4767  0.2351 -0.8384
   27SAPC   H6X 3630   4.223   5.193   7.641 -0.7742 -0.3096  2.5584
   27SAPC   H6Y 3631   4.243   5.014   7.626 -0.5536  0.2626  0.0992
   27SAPC   C37 3632   4.072   5.079   7.731 -0.1877  0.2117  0.2254
   27SAPC   H7X 3633   4.077   4.971   7.759  0.4035 -0.2115 -1.4091
   27SAPC   H7Y 3634   3.966   5.107   7.714 -0.5366 -0.7621  0.7290
   27SAPC   C38 3635   4.114   5.167   7.853  0.4696 -0.3966  0.4843
   27SAPC   H8X 3636   4.114   5.271   7.816  1.7358 -0.2507  0.8798
   27SAPC   H8Y 3637   4.220   5.152   7.881  1.3446 -0.0835 -2.4037
   27SAPC   C39 3638   4.016   5.147   7.967 -0.1455  0.6148  0.2213
   27SAPC   H9X 3639   4.001   5.041   7.993  1.0172  0.0157 -1.3883
   27SAPC   H9Y 3640   3.914   5.177   7.938 -0.7450 -1.5556 -0.0742
   27SAPC  C310 3641   4.055   5.236   8.094 -0.3994  0.9504 -0.3435
   27SAPC  H10X 3642   4.069   5.337   8.049 -0.9794  1.5763  0.8291
   27SAPC  H10Y 3643   4.155   5.206   8.130 -1.0288 -0.7185  0.0896
   27SAPC  C311 3644   3.952   5.247   8.207 -0.0753 -1.0024  0.5886
   27SAPC  H11X 3645   3.953   5.156   8.271 -1.4266 -1.8394 -0.5352
   27SAPC  H11Y 3646   3.852   5.250   8.160  0.2817  1.4223 -0.1927
   27SAPC  C312 3647   3.990   5.370   8.296 -0.1360  0.0925  0.3347
   27SAPC  H12X 3648   4.015   5.456   8.230  0.8288  0.6263  1.3546
   27SAPC  H12Y 3649   4.081   5.342   8.353 -1.5191  1.6265  3.5676
   27SAPC  C313 3650   3.881   5.413   8.391 -0.8193  0.2748  0.2617
   27SAPC  H13X 3651   3.792   5.418   8.324 -0.0278  3.4585 -0.7131
   27SAPC  H13Y 3652   3.899   5.505   8.449 -4.3546  0.6491  0.9803
   27SAPC  C314 3653   3.855   5.308   8.504  0.0441  1.0859  0.4636
   27SAPC  H14X 3654   3.942   5.311   8.574  0.1710 -1.5981  0.5352
   27SAPC  H14Y 3655   3.868   5.204   8.468  1.5034  1.8474 -1.3700
   27SAPC  C315 3656   3.725   5.321   8.589 -0.4098 -0.5818  0.2295
   27SAPC  H15X 3657   3.725   5.418   8.643  2.1852 -0.7782  0.6854
   27SAPC  H15Y 3658   3.723   5.246   8.671  0.2099 -1.9755 -0.9742
   27SAPC  C316 3659   3.587   5.314   8.508  0.5869  0.6568 -0.2037
   27SAPC  H16X 3660   3.568   5.404   8.446 -1.0591  1.4577  1.3606
   27SAPC  H16Y 3661   3.504   5.302   8.581  0.3161  0.4120 -0.5508
   27SAPC  C317 3662   3.567   5.194   8.418 -0.0867  0.2834  0.5081
   27SAPC  H17X 3663   3.566   5.099   8.474  0.8124 -0.2990 -0.4205
   27SAPC  H17Y 3664   3.666   5.184   8.368 -0.1524 -0.2407  0.4845
   27SAPC  C318 3665   3.455   5.215   8.315 -0.8102  0.4265 -0.3618
   27SAPC  H18X 3666   3.472   5.309   8.259 -0.9090  1.0043  0.5626
   27SAPC  H18Y 3667   3.356   5.228   8.363 -0.8575 -0.3069 -0.2449
   27SAPC  H18Z 3668   3.449   5.127   8.248 -4.0010  0.6249 -0.4797
   28SAPC     N 3669   0.786   2.517   5.945  0.7234 -0.0629 -0.1930
   28SAPC   C12 3670   0.746   2.525   6.091 -0.2610  0.1394  0.3220
   28SAPC  H12A 3671   0.728   2.627   6.121  1.1395 -0.0057  1.8158
   28SAPC  H12B 3672   0.838   2.500   6.141  0.5355  0.3246 -1.0149
   28SAPC   C13 3673   0.906   2.596   5.927  0.5466 -0.2323 -0.1653
   28SAPC  H13A 3674   0.984   2.530   5.959  1.3101  0.0203 -1.4156
   28SAPC  H13B 3675   0.920   2.607   5.820  0.0596 -0.5141 -0.2611
   28SAPC  H13C 3676   0.907   2.689   5.981 -0.2911  0.5827 -1.4801
   28SAPC   C14 3677   0.816   2.378   5.898 -0.3502  0.2783  0.0739
   28SAPC  H14A 3678   0.895   2.331   5.954 -0.1637 -0.1455 -0.5471
   28SAPC  H14B 3679   0.725   2.320   5.905  0.7590 -1.4992  0.4253
   28SAPC  H14C 3680   0.845   2.370   5.795  1.0884  0.3804  0.4468
   28SAPC   C15 3681   0.682   2.581   5.866 -0.7633  0.3856 -0.0973
   28SAPC  H15A 3682   0.704   2.590   5.761 -0.9728  0.9340 -0.0982
   28SAPC  H15B 3683   0.588   2.528   5.878 -0.4585 -0.4320 -1.1965
   28SAPC  H15C 3684   0.666   2.683   5.899  1.0084  0.9766 -0.9216
   28SAPC   C11 3685   0.618   2.448   6.139 -0.3909 -0.2810  0.7963
   28SAPC  H11A 3686   0.618   2.458   6.250  0.7355 -1.3205  0.9112
   28SAPC  H11B 3687   0.641   2.342   6.116  3.3304  0.3634  0.9505
   28SAPC     P 3688   0.385   2.384   6.021  0.2517  0.1922  0.0629
   28SAPC   O13 3689   0.252   2.434   6.053 -0.1726 -0.5230 -0.1251
   28SAPC   O14 3690   0.424   2.356   5.878  0.9040  0.3336 -0.4302
   28SAPC   O12 3691   0.489   2.496   6.075 -0.2760 -0.1370 -0.4177
   28SAPC   O11 3692   0.412   2.248   6.100  0.1922 -0.0173 -0.2118
   28SAPC    C1 3693   0.357   2.213   6.227  0.9533 -0.0728  0.2038
   28SAPC    HA 3694   0.352   2.303   6.293 -0.1542  1.3608 -1.7436
   28SAPC    HB 3695   0.255   2.176   6.207  1.0035 -0.1805  0.1501
   28SAPC    C2 3696   0.439   2.104   6.307  0.3072 -0.0922 -0.3115
   28SAPC    HS 3697   0.401   2.087   6.410 -0.8014 -0.5175 -0.7792
   28SAPC   O21 3698   0.571   2.155   6.315 -0.1435  0.1259 -0.5465
   28SAPC   C21 3699   0.595   2.244   6.408  1.1262 -0.2345  0.6166
   28SAPC   O22 3700   0.509   2.299   6.480 -0.8343  0.3031 -0.1885
   28SAPC   C22 3701   0.745   2.269   6.403  0.0811  0.1366 -0.7725
   28SAPC   H2R 3702   0.805   2.178   6.422  0.4876  0.6684  0.5862
   28SAPC   H2S 3703   0.772   2.280   6.296  0.4811 -3.6821 -1.1960
   28SAPC    C3 3704   0.441   1.961   6.241 -0.5099  0.4230 -0.7335
   28SAPC    HX 3705   0.476   1.978   6.136  1.0663 -1.7720 -0.6519
   28SAPC    HY 3706   0.337   1.924   6.246 -1.4375  2.9432 -0.2489
   28SAPC   O31 3707   0.545   1.886   6.307  0.1935  0.8090 -0.4786
   28SAPC   C31 3708   0.499   1.784   6.392 -0.7140  0.4802 -0.3361
   28SAPC   O32 3709   0.381   1.761   6.421  0.1468 -0.3371  0.3582
   28SAPC   C32 3710   0.618   1.714   6.458 -0.6641 -0.4997 -0.1288
   28SAPC   H2X 3711   0.668   1.648   6.384  1.2592 -0.5149  1.1267
   28SAPC   H2Y 3712   0.578   1.645   6.536  2.4355 -0.8617  1.2657
   28SAPC   C23 3713   0.774   2.390   6.493 -0.0988 -0.1601  0.1044
   28SAPC   H3R 3714   0.715   2.481   6.468 -0.7165 -0.6508 -0.2662
   28SAPC   H3S 3715   0.880   2.411   6.469 -0.1828 -1.7411 -2.0238
   28SAPC   C24 3716   0.773   2.371   6.644 -0.3934 -0.0827 -0.0589
   28SAPC   H4R 3717   0.808   2.471   6.678  0.8069 -1.0813  1.8282
   28SAPC   H4S 3718   0.670   2.347   6.679 -0.2500  2.1168  2.2059
   28SAPC   C25 3719   0.869   2.271   6.709  0.4963 -0.1594 -0.1472
   28SAPC   H5R 3720   0.926   2.222   6.629 -0.6237  2.2992 -2.6218
   28SAPC   C26 3721   0.882   2.233   6.840  0.0681  0.4652 -0.2385
   28SAPC   H6R 3722   0.965   2.162   6.857 -0.6624 -0.1488  0.8802
   28SAPC   C27 3723   0.809   2.287   6.959 -0.0486 -0.2066 -0.0685
   28SAPC   H7R 3724   0.806   2.199   7.027  0.2877 -0.5342 -0.4757
   28SAPC   H7S 3725   0.703   2.309   6.935 -0.0689 -1.2565 -0.9759
   28SAPC   C28 3726   0.883   2.404   7.024 -0.5946 -0.0528  0.0603
   28SAPC   H8R 3727   0.907   2.489   6.958 -1.5046 -0.6878 -1.1191
   28SAPC   C29 3728   0.913   2.406   7.155  0.0381  0.8655  0.1077
   28SAPC   H9R 3729   0.963   2.495   7.198  2.3498  0.0466 -0.7278
   28SAPC  C210 3730   0.895   2.304   7.263 -0.9686 -0.4279  0.7713
   28SAPC  H10R 3731   0.990   2.300   7.321 -0.8110 -2.3211  0.4532
   28SAPC  H10S 3732   0.885   2.199   7.229  1.3658 -0.5122  0.1708
   28SAPC  C211 3733   0.778   2.339   7.340  0.6935  0.5506 -0.0340
   28SAPC  H11R 3734   0.687   2.363   7.283  0.8961 -2.5576 -1.8927
   28SAPC  C212 3735   0.777   2.351   7.473 -0.2943 -0.0704  0.5120
   28SAPC  H12R 3736   0.681   2.377   7.521  0.0154  1.3395  0.3998
   28SAPC  C213 3737   0.889   2.348   7.569 -0.2434 -1.1447  0.0247
   28SAPC  H13R 3738   0.989   2.337   7.523  0.0717 -1.8356  0.8563
   28SAPC  H13S 3739   0.888   2.256   7.631 -0.2849 -0.5122  0.9913
   28SAPC  C214 3740   0.892   2.464   7.666  0.7260 -0.0523  0.0167
   28SAPC  H14R 3741   0.883   2.563   7.620  1.6650  0.4729  0.8943
   28SAPC  C215 3742   0.910   2.470   7.802 -0.1600 -0.6584  0.2575
   28SAPC  H15R 3743   0.891   2.561   7.860  0.4874 -1.8446  2.4614
   28SAPC  C216 3744   0.927   2.346   7.886  0.2852 -0.1267  0.3419
   28SAPC  H16R 3745   0.893   2.259   7.827 -0.8391  1.0307 -0.7894
   28SAPC  H16S 3746   0.862   2.360   7.975 -1.8884  1.9896 -1.4653
   28SAPC  C217 3747   1.077   2.320   7.911  0.2479  0.4464  0.9233
   28SAPC  H17R 3748   1.134   2.388   7.978  3.3108 -1.2248  0.1948
   28SAPC  H17S 3749   1.117   2.342   7.809  2.0452 -0.9708  1.2797
   28SAPC  C218 3750   1.121   2.176   7.935 -0.5638  0.1426  0.3307
   28SAPC  H18R 3751   1.228   2.183   7.963 -0.5997  2.9745  0.0471
   28SAPC  H18S 3752   1.119   2.107   7.847  1.1268  0.3281  0.1276
   28SAPC  C219 3753   1.043   2.109   8.051  0.4980  0.6407  0.2195
   28SAPC  H19R 3754   0.937   2.106   8.018  0.8461 -2.6127 -0.8858
   28SAPC  H19S 3755   1.054   2.182   8.134  0.2937 -1.0584  1.7899
   28SAPC  C220 3756   1.077   1.963   8.085 -0.3794 -0.1283 -0.0318
   28SAPC  H20R 3757   1.052   1.906   7.992  0.6580  0.7858 -0.8933
   28SAPC  H20S 3758   1.022   1.924   8.173  1.8328  1.8144  2.3535
   28SAPC  H20T 3759   1.187   1.958   8.100 -0.3267  1.5061  0.2785
   28SAPC   C33 3760   0.721   1.817   6.516  0.2413  0.3663  0.7382
   28SAPC   H3X 3761   0.771   1.884   6.443  3.2996 -1.8823  0.5652
   28SAPC   H3Y 3762   0.799   1.755   6.566 -1.0574 -1.6534  0.3541
   28SAPC   C34 3763   0.679   1.904   6.630 -1.2226 -0.2932  0.4284
   28SAPC   H4X 3764   0.571   1.932   6.633 -1.0329  0.4311  0.7379
   28SAPC   H4Y 3765   0.730   2.001   6.614  1.1216 -1.2176  1.8119
   28SAPC   C35 3766   0.708   1.839   6.761  0.5674 -0.4297 -0.6016
   28SAPC   H5X 3767   0.818   1.841   6.779  0.3210  1.8805  1.0265
   28SAPC   H5Y 3768   0.654   1.742   6.763  0.4547 -0.4994 -3.4684
   28SAPC   C36 3769   0.653   1.923   6.877  0.0529 -0.0990 -0.0678
   28SAPC   H6X 3770   0.542   1.913   6.884 -0.1053  0.2031 -1.7078
   28SAPC   H6Y 3771   0.664   2.033   6.864  0.0016 -0.1420 -0.4646
   28SAPC   C37 3772   0.713   1.888   7.015  0.4566  0.0448  0.3346
   28SAPC   H7X 3773   0.815   1.932   7.019  1.9280 -3.1588  0.8750
   28SAPC   H7Y 3774   0.720   1.777   7.013 -1.4691 -0.1112 -0.8856
   28SAPC   C38 3775   0.642   1.946   7.142  0.4445 -0.6853 -0.3700
   28SAPC   H8X 3776   0.538   1.909   7.152  0.6089 -0.5400  2.3970
   28SAPC   H8Y 3777   0.642   2.057   7.130  0.8552 -0.6801 -0.3483
   28SAPC   C39 3778   0.716   1.898   7.264  0.2272  0.0873  0.2574
   28SAPC   H9X 3779   0.826   1.915   7.262  0.2778 -0.2438 -0.8806
   28SAPC   H9Y 3780   0.696   1.788   7.264 -0.6302  0.2156  1.6918
   28SAPC  C310 3781   0.667   1.956   7.399  0.1322 -0.0537 -0.1537
   28SAPC  H10X 3782   0.557   1.940   7.411  0.1658 -1.2082 -1.0549
   28SAPC  H10Y 3783   0.687   2.065   7.399  1.0598 -0.2119  0.7562
   28SAPC  C311 3784   0.738   1.894   7.521 -0.8512  0.0716 -0.1819
   28SAPC  H11X 3785   0.840   1.936   7.527 -0.5989 -0.6098  0.3839
   28SAPC  H11Y 3786   0.761   1.786   7.509  1.7279  0.3093  1.7581
   28SAPC  C312 3787   0.659   1.914   7.651 -0.1545  0.1828 -1.0446
   28SAPC  H12X 3788   0.558   1.870   7.636 -1.2373  2.4933 -0.9253
   28SAPC  H12Y 3789   0.652   2.024   7.661 -0.4818  0.1135 -0.5220
   28SAPC  C313 3790   0.723   1.850   7.777  0.0818 -0.6728 -0.3373
   28SAPC  H13X 3791   0.821   1.892   7.810 -0.8715  0.2755  1.4732
   28SAPC  H13Y 3792   0.741   1.743   7.751 -0.0011 -1.0135  0.9472
   28SAPC  C314 3793   0.607   1.844   7.881  0.0552  1.1660  0.2236
   28SAPC  H14X 3794   0.517   1.792   7.844  1.3411 -0.5136 -0.6726
   28SAPC  H14Y 3795   0.578   1.945   7.918  1.2677  1.7556 -0.3595
   28SAPC  C315 3796   0.655   1.760   8.003 -1.3013 -0.2861  0.1113
   28SAPC  H15X 3797   0.749   1.806   8.040 -2.3130  0.6782  1.5708
   28SAPC  H15Y 3798   0.683   1.662   7.957  0.1406  1.1248 -2.2824
   28SAPC  C316 3799   0.570   1.749   8.127 -0.1600  0.0208  0.1562
   28SAPC  H16X 3800   0.465   1.738   8.093  0.6517 -1.5847 -2.0513
   28SAPC  H16Y 3801   0.581   1.838   8.192  0.9642 -0.1502  0.2205
   28SAPC  C317 3802   0.615   1.624   8.198  1.0031  0.3041 -0.4210
   28SAPC  H17X 3803   0.714   1.635   8.247  2.0099 -2.9349 -1.4884
   28SAPC  H17Y 3804   0.637   1.538   8.132  1.3198 -0.4204  0.6120
   28SAPC  C318 3805   0.523   1.586   8.310  0.3542  0.0261  0.2071
   28SAPC  H18X 3806   0.549   1.495   8.369 -1.1596 -0.2025  0.5533
   28SAPC  H18Y 3807   0.421   1.570   8.269  0.1704 -1.0179  1.0172
   28SAPC  H18Z 3808   0.518   1.663   8.390 -0.4115 -1.9427  2.1686
   29SAPC     N 3809   4.959   6.152   6.330  0.4721 -0.1207 -0.1352
   29SAPC   C12 3810   5.055   6.275   6.339 -0.3294  0.3009  0.3106
   29SAPC  H12A 3811   4.997   6.356   6.380  0.0578  0.9871 -0.4682
   29SAPC  H12B 3812   5.092   6.297   6.240  2.6867  0.8421  1.4517
   29SAPC   C13 3813   4.814   6.196   6.293 -0.1066  0.4491 -0.0901
   29SAPC  H13A 3814   4.803   6.223   6.189  0.5878  0.2751 -0.2143
   29SAPC  H13B 3815   4.742   6.118   6.310  1.8543 -2.4175 -3.3938
   29SAPC  H13C 3816   4.785   6.267   6.369 -0.0523 -1.4199  1.7624
   29SAPC   C14 3817   5.012   6.061   6.222 -0.1762  0.6731 -0.0296
   29SAPC  H14A 3818   5.114   6.029   6.237 -0.5962  0.1731  2.0742
   29SAPC  H14B 3819   4.955   5.971   6.237 -1.1079  0.9688 -1.5250
   29SAPC  H14C 3820   5.001   6.104   6.123  1.9256  0.4249 -0.4257
   29SAPC   C15 3821   4.946   6.088   6.459 -0.0365 -0.3205 -0.1021
   29SAPC  H15A 3822   5.049   6.061   6.474  0.1209 -0.9083 -1.9621
   29SAPC  H15B 3823   4.910   6.147   6.541  2.4624 -1.1917  1.7460
   29SAPC  H15C 3824   4.886   5.998   6.451 -1.8083  0.6949  1.1319
   29SAPC   C11 3825   5.177   6.260   6.430  0.3047 -0.0313 -0.8687
   29SAPC  H11A 3826   5.155   6.245   6.538  1.8538  1.5561 -0.2840
   29SAPC  H11B 3827   5.219   6.363   6.423 -2.5427  1.5462  2.4302
   29SAPC     P 3828   5.416   6.194   6.349  0.1930 -0.0486 -0.2688
   29SAPC   O13 3829   5.484   6.077   6.295 -0.2857  0.2298  0.7661
   29SAPC   O14 3830   5.416   6.325   6.280  0.2465  0.2786  0.3790
   29SAPC   O12 3831   5.269   6.156   6.396  0.3045  0.3991 -0.1124
   29SAPC   O11 3832   5.485   6.216   6.489  0.3698  0.2578  0.1368
   29SAPC    C1 3833   5.495   6.098   6.573 -0.3321 -0.7216  0.1504
   29SAPC    HA 3834   5.413   6.026   6.553 -2.0325  1.3403 -0.7973
   29SAPC    HB 3835   5.588   6.039   6.561 -1.0702 -2.3216  1.8931
   29SAPC    C2 3836   5.501   6.139   6.725 -0.1666 -0.1173 -0.3784
   29SAPC    HS 3837   5.509   6.044   6.782 -0.8615 -0.1909 -0.4017
   29SAPC   O21 3838   5.380   6.204   6.766  0.9012 -0.9290 -0.1434
   29SAPC   C21 3839   5.280   6.119   6.781  0.3097 -0.4307  0.0530
   29SAPC   O22 3840   5.286   6.002   6.744 -0.3063 -0.4390 -0.9131
   29SAPC   C22 3841   5.158   6.190   6.847  0.3614 -0.4892  0.1900
   29SAPC   H2R 3842   5.201   6.262   6.921 -1.6270 -0.1109  1.0317
   29SAPC   H2S 3843   5.093   6.244   6.776  0.4574 -0.2173  0.3086
   29SAPC    C3 3844   5.626   6.229   6.743  0.2388  0.0508  0.9200
   29SAPC    HX 3845   5.609   6.316   6.676  1.8160 -0.4174 -0.1352
   29SAPC    HY 3846   5.716   6.172   6.711  0.6650  1.1670  0.0693
   29SAPC   O31 3847   5.647   6.277   6.878  0.0639  0.0707  0.6642
   29SAPC   C31 3848   5.762   6.341   6.883 -0.2333 -0.6324 -0.5420
   29SAPC   O32 3849   5.850   6.338   6.802  0.2242  0.9840 -0.7433
   29SAPC   C32 3850   5.772   6.414   7.020  0.0609  0.2039 -0.4063
   29SAPC   H2X 3851   5.710   6.364   7.098  1.2240  0.0126  0.4230
   29SAPC   H2Y 3852   5.735   6.516   6.995  0.7429  0.6376  0.3218
   29SAPC   C23 3853   5.072   6.100   6.943  0.2053  0.1852  0.2190
   29SAPC   H3R 3854   5.014   6.022   6.889 -0.3326 -1.6754  3.2488
   29SAPC   H3S 3855   5.013   6.166   7.010  1.6265 -0.2800  2.0144
   29SAPC   C24 3856   5.154   6.015   7.043  0.5457 -0.0847 -0.0482
   29SAPC   H4R 3857   5.230   6.084   7.084  2.2708 -1.0620 -1.4277
   29SAPC   H4S 3858   5.217   5.944   6.986  1.3748 -1.0200  1.9381
   29SAPC   C25 3859   5.076   5.944   7.153 -0.1295  0.0565  0.2472
   29SAPC   H5R 3860   4.990   5.884   7.119 -0.7832  0.4325  1.2034
   29SAPC   C26 3861   5.094   5.957   7.283  0.5170 -0.6857 -0.6341
   29SAPC   H6R 3862   5.036   5.897   7.355  1.0800 -1.2539 -0.6447
   29SAPC   C27 3863   5.192   6.042   7.355  0.0534  0.3383  0.8293
   29SAPC   H7R 3864   5.129   6.062   7.445 -1.1600 -0.1619  0.1191
   29SAPC   H7S 3865   5.207   6.134   7.296  0.8083  0.3087  0.9699
   29SAPC   C28 3866   5.322   5.967   7.379 -0.0159 -0.1792 -0.0197
   29SAPC   H8R 3867   5.357   5.898   7.301  2.0724 -0.4496  1.0846
   29SAPC   C29 3868   5.402   5.975   7.490  0.0706 -0.0647 -0.2599
   29SAPC   H9R 3869   5.484   5.902   7.491  1.0463  0.9463  2.3153
   29SAPC  C210 3870   5.381   6.062   7.609  0.3466  0.1559 -0.1876
   29SAPC  H10R 3871   5.289   6.125   7.600  0.4858  0.8910  2.4966
   29SAPC  H10S 3872   5.464   6.135   7.619 -0.2642  0.6832  1.2760
   29SAPC  C211 3873   5.365   5.978   7.744 -0.5856  0.7342 -0.2601
   29SAPC  H11R 3874   5.317   5.879   7.737 -0.3718  0.6603 -0.7403
   29SAPC  C212 3875   5.405   6.021   7.864 -0.3292  0.0346 -0.8811
   29SAPC  H12R 3876   5.390   5.948   7.946  0.6590  1.5431  0.7039
   29SAPC  C213 3877   5.471   6.152   7.893 -0.0362 -0.0568  0.6087
   29SAPC  H13R 3878   5.515   6.193   7.799 -0.7738 -1.3936 -0.3574
   29SAPC  H13S 3879   5.565   6.148   7.953  1.2896  0.3846 -1.3424
   29SAPC  C214 3880   5.364   6.236   7.953  0.4735 -1.0423 -0.6208
   29SAPC  H14R 3881   5.286   6.269   7.884  2.0404 -0.1212 -2.0467
   29SAPC  C215 3882   5.351   6.279   8.079  0.4251 -0.0942  0.1150
   29SAPC  H15R 3883   5.267   6.344   8.109 -0.6862 -0.7471 -1.4645
   29SAPC  C216 3884   5.441   6.243   8.196 -0.1322 -0.2513  0.3020
   29SAPC  H16R 3885   5.538   6.199   8.164 -0.8454 -1.8976  0.2991
   29SAPC  H16S 3886   5.385   6.167   8.253 -1.3277  1.1427  1.0594
   29SAPC  C217 3887   5.473   6.358   8.302  0.0610  0.0726  0.2047
   29SAPC  H17R 3888   5.534   6.306   8.380 -0.0558 -0.5571 -0.1118
   29SAPC  H17S 3889   5.379   6.381   8.356  0.1091 -2.8085  1.7060
   29SAPC  C218 3890   5.522   6.493   8.246 -0.6941 -0.5166 -0.3818
   29SAPC  H18R 3891   5.439   6.546   8.196  0.3527 -0.1150 -1.7432
   29SAPC  H18S 3892   5.588   6.455   8.166  0.2366 -3.3551  1.5739
   29SAPC  C219 3893   5.585   6.576   8.361 -1.4520 -0.3859  0.0417
   29SAPC  H19R 3894   5.658   6.520   8.422 -0.2059  1.1577  0.0281
   29SAPC  H19S 3895   5.508   6.611   8.433 -2.4358  0.6526 -1.4332
   29SAPC  C220 3896   5.659   6.698   8.305 -0.2124  0.4032  0.4066
   29SAPC  H20R 3897   5.602   6.755   8.228  0.0370 -0.6191 -0.5631
   29SAPC  H20S 3898   5.764   6.691   8.272 -0.3319 -0.0078  0.1045
   29SAPC  H20T 3899   5.658   6.761   8.396  0.1683 -0.1495  0.8044
   29SAPC   C33 3900   5.915   6.434   7.073  0.4199 -0.1350  0.0867
   29SAPC   H3X 3901   5.952   6.527   7.025  1.6953 -0.0901  1.1126
   29SAPC   H3Y 3902   5.978   6.350   7.035  1.7996  0.3668  1.1755
   29SAPC   C34 3903   5.921   6.441   7.221 -0.0009 -0.3860 -0.2237
   29SAPC   H4X 3904   5.847   6.513   7.261  2.5986  2.0502  0.5475
   29SAPC   H4Y 3905   6.018   6.490   7.244 -0.3701 -0.7203  2.2532
   29SAPC   C35 3906   5.905   6.314   7.300 -0.2399  0.1215 -0.2965
   29SAPC   H5X 3907   5.994   6.253   7.273  0.1812  0.9302 -0.7568
   29SAPC   H5Y 3908   5.816   6.261   7.259 -1.4865  1.4320  0.6038
   29SAPC   C36 3909   5.886   6.336   7.449 -0.6831 -1.0090  0.0786
   29SAPC   H6X 3910   5.795   6.398   7.467 -0.1251 -0.0592 -0.2622
   29SAPC   H6Y 3911   5.971   6.392   7.494 -1.6456 -0.4829  1.2768
   29SAPC   C37 3912   5.872   6.208   7.527 -0.3481 -0.5462  0.5268
   29SAPC   H7X 3913   5.956   6.137   7.510  0.4277 -0.2901  2.9000
   29SAPC   H7Y 3914   5.784   6.155   7.484  1.2770 -1.3170 -2.0639
   29SAPC   C38 3915   5.867   6.228   7.673  0.1414  0.7274 -0.3538
   29SAPC   H8X 3916   5.784   6.167   7.715  3.0196 -0.6571  4.0638
   29SAPC   H8Y 3917   5.859   6.336   7.695  0.7962  0.2817  2.4859
   29SAPC   C39 3918   5.992   6.169   7.740 -0.2664  0.0847 -0.3689
   29SAPC   H9X 3919   6.078   6.230   7.705 -0.7548  1.7267  1.1415
   29SAPC   H9Y 3920   6.014   6.068   7.698  1.1153  0.0026  0.4964
   29SAPC  C310 3921   5.985   6.161   7.894  0.1295  1.2297  0.0590
   29SAPC  H10X 3922   5.918   6.079   7.927  1.7330  0.5987  2.0251
   29SAPC  H10Y 3923   5.931   6.246   7.941 -1.3959  0.4096 -0.1621
   29SAPC  C311 3924   6.117   6.137   7.969 -0.0448 -0.1133  0.2285
   29SAPC  H11X 3925   6.101   6.162   8.075  1.8271  0.3389  0.4380
   29SAPC  H11Y 3926   6.212   6.185   7.937  0.6481 -1.6343 -0.1392
   29SAPC  C312 3927   6.134   5.986   7.975 -0.2484  0.7122 -0.4392
   29SAPC  H12X 3928   6.123   5.940   7.874 -2.6240  2.1981 -0.9467
   29SAPC  H12Y 3929   6.051   5.943   8.036 -0.2077 -0.2844 -1.0539
   29SAPC  C313 3930   6.265   5.951   8.038  0.4646 -0.4048 -0.2591
   29SAPC  H13X 3931   6.260   5.980   8.146 -0.4516 -0.7843 -0.1908
   29SAPC  H13Y 3932   6.347   6.004   7.985 -0.2493  1.7492  0.6501
   29SAPC  C314 3933   6.280   5.797   8.026  0.8492 -1.0358 -0.5688
   29SAPC  H14X 3934   6.216   5.775   7.938  0.1347 -0.8231 -0.1063
   29SAPC  H14Y 3935   6.222   5.744   8.104  3.6188 -3.5466 -0.0432
   29SAPC  C315 3936   6.425   5.759   8.000  0.3605 -0.4195 -0.2968
   29SAPC  H15X 3937   6.488   5.789   8.087 -1.9925  1.1927  0.9627
   29SAPC  H15Y 3938   6.450   5.815   7.908 -0.6461 -0.9560 -0.9073
   29SAPC  C316 3939   6.441   5.606   7.987 -0.1161 -0.3463 -0.1815
   29SAPC  H16X 3940   6.373   5.572   7.906 -0.0214  1.7057 -1.2065
   29SAPC  H16Y 3941   6.409   5.540   8.070  0.0196 -2.3843 -1.6695
   29SAPC  C317 3942   6.589   5.571   7.937  0.3488 -0.1142  0.1389
   29SAPC  H17X 3943   6.604   5.606   7.832  3.2331 -2.2800 -0.3185
   29SAPC  H17Y 3944   6.601   5.461   7.931 -0.8762 -0.2006 -1.4205
   29SAPC  C318 3945   6.704   5.623   8.022  0.6734  0.0775 -0.3746
   29SAPC  H18X 3946   6.694   5.596   8.130  0.5944  2.1105  0.1643
   29SAPC  H18Y 3947   6.722   5.731   8.003  2.2502 -0.3668 -1.6416
   29SAPC  H18Z 3948   6.792   5.573   7.976  2.4512  1.6302  1.1558
   30SAPC     N 3949   1.235   6.144   6.001 -0.0498  0.3071  0.1948
   30SAPC   C12 3950   1.189   6.005   5.997  0.5169 -0.3728  0.5181
   30SAPC  H12A 3951   1.198   5.960   6.095  1.2606  1.9829  1.5930
   30SAPC  H12B 3952   1.253   5.949   5.930 -1.5419 -2.7742  0.3774
   30SAPC   C13 3953   1.380   6.152   6.037  0.5964  0.2358  0.5731
   30SAPC  H13A 3954   1.398   6.107   6.133  3.4726 -0.4308 -0.1732
   30SAPC  H13B 3955   1.445   6.088   5.978 -1.3567 -0.0409 -1.4118
   30SAPC  H13C 3956   1.415   6.254   6.034  1.0751  0.0647 -0.4780
   30SAPC   C14 3957   1.215   6.214   5.864  0.0877 -0.3791  0.0752
   30SAPC  H14A 3958   1.242   6.318   5.876 -0.7820 -0.4416  4.0966
   30SAPC  H14B 3959   1.279   6.171   5.789 -0.7783 -1.1390 -0.2415
   30SAPC  H14C 3960   1.113   6.237   5.835  0.0566  0.3100  0.6831
   30SAPC   C15 3961   1.160   6.220   6.101 -0.1349  0.5538 -0.0951
   30SAPC  H15A 3962   1.173   6.168   6.195 -0.0516  0.9577  0.1191
   30SAPC  H15B 3963   1.194   6.321   6.113 -0.9271  0.8286 -0.0944
   30SAPC  H15C 3964   1.055   6.215   6.077 -0.7633 -0.1532  2.5176
   30SAPC   C11 3965   1.048   5.970   5.941 -0.8634  0.1436 -0.0439
   30SAPC  H11A 3966   1.029   5.862   5.958 -1.9378  0.6148  2.0745
   30SAPC  H11B 3967   1.048   5.984   5.831 -0.9569  1.9796  0.1582
   30SAPC     P 3968   0.845   5.976   6.094 -0.1726 -0.1610 -0.3255
   30SAPC   O13 3969   0.787   6.083   6.177 -0.3135  0.9625 -0.4953
   30SAPC   O14 3970   0.751   5.896   6.014 -0.2826  0.0219 -0.1489
   30SAPC   O12 3971   0.941   6.045   5.991 -0.1103 -0.1148  0.4208
   30SAPC   O11 3972   0.934   5.881   6.176  0.1698  0.4684 -0.2585
   30SAPC    C1 3973   0.999   5.923   6.304 -0.5216 -0.4612  0.4419
   30SAPC    HA 3974   1.110   5.913   6.302  0.0063  1.9028  4.7489
   30SAPC    HB 3975   0.984   6.031   6.323 -0.4387 -0.2960 -0.4052
   30SAPC    C2 3976   0.935   5.852   6.429 -0.0558  0.2577 -0.0542
   30SAPC    HS 3977   0.975   5.893   6.524  1.4137 -0.0049 -0.5321
   30SAPC   O21 3978   0.940   5.707   6.425  0.0415 -0.4024 -0.4720
   30SAPC   C21 3979   1.063   5.662   6.438  0.6368  0.3247  0.7085
   30SAPC   O22 3980   1.163   5.727   6.446 -0.4446 -0.2864 -0.4564
   30SAPC   C22 3981   1.053   5.506   6.443  0.2269  0.9156 -0.0713
   30SAPC   H2R 3982   0.958   5.486   6.497 -0.8214  0.4701 -1.9925
   30SAPC   H2S 3983   1.027   5.474   6.340  0.1148  0.6020  0.0513
   30SAPC    C3 3984   0.785   5.874   6.439 -0.7066  0.1005  0.0580
   30SAPC    HX 3985   0.746   5.821   6.350 -2.2692 -0.5789  1.0918
   30SAPC    HY 3986   0.769   5.984   6.438 -1.3350  0.0922 -3.6040
   30SAPC   O31 3987   0.721   5.810   6.549  0.0153 -0.3357 -0.6625
   30SAPC   C31 3988   0.605   5.849   6.587 -0.2562 -0.6851  0.1091
   30SAPC   O32 3989   0.538   5.940   6.550 -0.1582  0.1958  0.2096
   30SAPC   C32 3990   0.554   5.759   6.688  0.6988  0.0097 -0.7001
   30SAPC   H2X 3991   0.632   5.698   6.739 -1.6127 -1.0506  1.8093
   30SAPC   H2Y 3992   0.497   5.690   6.623 -0.0967 -1.1125  1.1008
   30SAPC   C23 3993   1.176   5.440   6.510 -0.3075 -0.5693 -0.2688
   30SAPC   H3R 3994   1.270   5.490   6.479  0.1334 -1.1259  0.1442
   30SAPC   H3S 3995   1.184   5.334   6.479 -0.9121 -0.0171 -2.4773
   30SAPC   C24 3996   1.168   5.446   6.666  0.0975 -0.1056  0.0631
   30SAPC   H4R 3997   1.232   5.368   6.715  1.0265  0.2434 -0.5773
   30SAPC   H4S 3998   1.062   5.424   6.690  1.1397 -2.6419  3.2269
   30SAPC   C25 3999   1.202   5.585   6.722 -0.1331 -1.7757 -0.6326
   30SAPC   H5R 4000   1.289   5.641   6.683  0.0560 -1.0697  0.7486
   30SAPC   C26 4001   1.136   5.646   6.821 -0.0072 -0.0295 -0.1105
   30SAPC   H6R 4002   1.166   5.749   6.847 -1.1762  0.3386 -0.1676
   30SAPC   C27 4003   1.015   5.592   6.892 -0.5533  0.4463  0.4743
   30SAPC   H7R 4004   1.050   5.514   6.962 -0.8337  0.7370  0.9421
   30SAPC   H7S 4005   0.943   5.537   6.827 -2.0886 -1.0354  3.2646
   30SAPC   C28 4006   0.930   5.685   6.971  0.0417  0.0623  0.5227
   30SAPC   H8R 4007   0.922   5.781   6.917 -1.6392 -0.5889 -0.4775
   30SAPC   C29 4008   0.852   5.654   7.071  0.0846 -0.2731 -0.7066
   30SAPC   H9R 4009   0.786   5.729   7.117 -1.7472 -1.5792 -1.0924
   30SAPC  C210 4010   0.845   5.525   7.146  0.5646  1.2312  0.4564
   30SAPC  H10R 4011   0.931   5.510   7.215  1.4069 -0.4376 -0.8914
   30SAPC  H10S 4012   0.862   5.442   7.075 -2.0858  1.0493 -0.0567
   30SAPC  C211 4013   0.720   5.496   7.227  0.2000  0.1148  0.2150
   30SAPC  H11R 4014   0.646   5.433   7.175 -0.2975  1.3338 -0.5929
   30SAPC  C212 4015   0.702   5.545   7.355 -0.0943 -0.3193  0.4390
   30SAPC  H12R 4016   0.612   5.517   7.413  0.2442  0.9118  1.6140
   30SAPC  C213 4017   0.808   5.628   7.426  0.1425 -0.3062 -0.2507
   30SAPC  H13R 4018   0.861   5.704   7.363  1.7765  1.8748  3.4076
   30SAPC  H13S 4019   0.894   5.574   7.470 -0.1339 -0.3757  0.2061
   30SAPC  C214 4020   0.734   5.687   7.541  0.7375  0.1835 -0.3354
   30SAPC  H14R 4021   0.626   5.702   7.528  0.6783 -0.1529 -0.2401
   30SAPC  C215 4022   0.783   5.714   7.662 -0.4090  0.2263  0.3044
   30SAPC  H15R 4023   0.731   5.766   7.744 -0.1457  1.6458 -0.3980
   30SAPC  C216 4024   0.929   5.700   7.709 -0.0822  0.0569 -0.4684
   30SAPC  H16R 4025   0.995   5.763   7.647 -0.2285  0.5000 -0.1747
   30SAPC  H16S 4026   0.963   5.594   7.705  1.1879  0.4132  0.2256
   30SAPC  C217 4027   0.936   5.741   7.861  0.0492  0.7375 -0.2290
   30SAPC  H17R 4028   0.916   5.848   7.884  2.6965  1.0476  0.9862
   30SAPC  H17S 4029   1.039   5.731   7.901 -0.8756  0.6029  2.2755
   30SAPC  C218 4030   0.865   5.637   7.947  0.4197  0.0141  0.0198
   30SAPC  H18R 4031   0.924   5.547   7.971  1.9843  1.1489  0.6110
   30SAPC  H18S 4032   0.769   5.603   7.903  1.5039 -3.3350 -0.0222
   30SAPC  C219 4033   0.832   5.695   8.083 -0.6676 -0.1967  0.0007
   30SAPC  H19R 4034   0.916   5.763   8.109 -0.8904 -0.0638  0.3721
   30SAPC  H19S 4035   0.823   5.626   8.170 -0.6501  2.0915  1.9288
   30SAPC  C220 4036   0.702   5.781   8.068 -0.4522  0.0005 -0.7998
   30SAPC  H20R 4037   0.675   5.836   8.161 -2.6838  1.8486 -2.4125
   30SAPC  H20S 4038   0.619   5.720   8.028 -1.6408  0.4654  0.8359
   30SAPC  H20T 4039   0.718   5.851   7.984  0.3566 -2.5854 -2.9454
   30SAPC   C33 4040   0.446   5.815   6.784 -0.6725  0.5077  0.3381
   30SAPC   H3X 4041   0.382   5.729   6.814 -3.0481  1.6238 -1.2124
   30SAPC   H3Y 4042   0.376   5.876   6.724  0.5760  0.8949 -0.7737
   30SAPC   C34 4043   0.488   5.900   6.902  0.0393  0.0768 -0.7765
   30SAPC   H4X 4044   0.470   6.006   6.874  1.4346  0.5181 -0.0988
   30SAPC   H4Y 4045   0.599   5.890   6.909  0.1665  1.6213 -0.1333
   30SAPC   C35 4046   0.427   5.852   7.036 -0.0021 -0.3010 -0.7939
   30SAPC   H5X 4047   0.456   5.747   7.056  3.4782  0.7968  0.6367
   30SAPC   H5Y 4048   0.319   5.873   7.019  0.4991  2.2775 -1.3827
   30SAPC   C36 4049   0.474   5.928   7.155 -0.3309  0.1120 -0.2038
   30SAPC   H6X 4050   0.452   6.036   7.139  0.2746  0.1293 -1.0141
   30SAPC   H6Y 4051   0.583   5.915   7.173 -0.9855 -2.2349  2.6535
   30SAPC   C37 4052   0.401   5.875   7.273 -0.5373 -1.1500 -0.6299
   30SAPC   H7X 4053   0.414   5.765   7.282 -3.3602 -1.4180  1.4252
   30SAPC   H7Y 4054   0.296   5.910   7.264 -0.6144 -0.9499  0.7396
   30SAPC   C38 4055   0.452   5.940   7.406  0.6596 -0.3639  0.0154
   30SAPC   H8X 4056   0.447   6.050   7.420 -0.2935 -0.6206  1.9121
   30SAPC   H8Y 4057   0.555   5.902   7.422  1.2016  0.7383 -0.7392
   30SAPC   C39 4058   0.364   5.869   7.518 -0.8058 -0.0201  0.0948
   30SAPC   H9X 4059   0.404   5.766   7.529  0.7363  0.5182 -0.1497
   30SAPC   H9Y 4060   0.257   5.858   7.492 -1.1430  0.4299  1.2173
   30SAPC  C310 4061   0.384   5.946   7.652 -0.9167  0.2566  0.2368
   30SAPC  H10X 4062   0.341   6.044   7.625 -2.0187 -0.8437 -2.4157
   30SAPC  H10Y 4063   0.493   5.962   7.664 -1.2697  1.7055  1.7664
   30SAPC  C311 4064   0.331   5.885   7.780  0.4064  1.2778 -0.2115
   30SAPC  H11X 4065   0.382   5.792   7.814  2.0048  2.4215  0.6420
   30SAPC  H11Y 4066   0.227   5.858   7.753  0.6948  1.4601 -1.6237
   30SAPC  C312 4067   0.339   5.979   7.897  0.5274  0.5245 -0.4996
   30SAPC  H12X 4068   0.300   6.082   7.880 -0.2309  0.1214 -1.2332
   30SAPC  H12Y 4069   0.446   6.004   7.916  0.3588  1.0572 -0.2141
   30SAPC  C313 4070   0.271   5.919   8.025  0.7165  0.6056 -0.1674
   30SAPC  H13X 4071   0.305   5.814   8.034 -1.9742 -0.4068 -0.8896
   30SAPC  H13Y 4072   0.165   5.894   8.009  1.1915 -2.2257  0.6228
   30SAPC  C314 4073   0.298   5.996   8.151  0.1722 -0.0918 -0.5060
   30SAPC  H14X 4074   0.244   6.093   8.146 -1.7006 -1.1094 -1.2775
   30SAPC  H14Y 4075   0.405   6.025   8.152  0.3192 -0.5906 -0.8840
   30SAPC  C315 4076   0.248   5.943   8.292  0.2035  0.1977 -0.1318
   30SAPC  H15X 4077   0.139   5.961   8.289 -0.2148 -2.1234 -1.0314
   30SAPC  H15Y 4078   0.304   6.011   8.359  0.8006 -0.2740 -0.1372
   30SAPC  C316 4079   0.293   5.796   8.311  0.0635  0.5127 -0.2962
   30SAPC  H16X 4080   0.334   5.780   8.414 -1.8613 -0.9594  0.3167
   30SAPC  H16Y 4081   0.372   5.780   8.236  1.0562  1.4403  0.5263
   30SAPC  C317 4082   0.180   5.688   8.295 -0.1857  0.3778 -0.2594
   30SAPC  H17X 4083   0.125   5.709   8.201 -2.7016 -0.4442  0.9463
   30SAPC  H17Y 4084   0.109   5.715   8.376 -0.0545 -1.5065  0.5227
   30SAPC  C318 4085   0.225   5.549   8.302 -0.0641 -0.0903  1.2016
   30SAPC  H18X 4086   0.277   5.517   8.209  0.6603  2.9126  0.4618
   30SAPC  H18Y 4087   0.139   5.480   8.313 -1.3689 -0.2296 -5.4626
   30SAPC  H18Z 4088   0.298   5.544   8.386  2.0588 -1.3167 -0.5955
   31SAPC     N 4089   1.666   6.779   6.438  0.2376  0.8045  0.2429
   31SAPC   C12 4090   1.804   6.842   6.468 -0.9330  0.3998  0.0597
   31SAPC  H12A 4091   1.840   6.793   6.558 -0.6621  0.8101  0.1782
   31SAPC  H12B 4092   1.793   6.948   6.484 -0.8431  0.7731 -2.0698
   31SAPC   C13 4093   1.598   6.859   6.342  0.7757 -0.6323 -0.2280
   31SAPC  H13A 4094   1.500   6.821   6.319  1.1000 -0.2383 -2.5707
   31SAPC  H13B 4095   1.583   6.962   6.370 -0.2343 -0.6294 -0.7447
   31SAPC  H13C 4096   1.657   6.859   6.251  2.2782  2.6093  0.5894
   31SAPC   C14 4097   1.671   6.638   6.393 -0.2473 -0.6488 -0.1091
   31SAPC  H14A 4098   1.694   6.571   6.475  2.2749 -0.1762 -0.3640
   31SAPC  H14B 4099   1.575   6.617   6.347  0.2281 -0.1931 -1.3224
   31SAPC  H14C 4100   1.745   6.631   6.316  0.8231  3.1548  0.3991
   31SAPC   C15 4101   1.585   6.792   6.565 -0.1576 -0.8740 -0.1044
   31SAPC  H15A 4102   1.645   6.750   6.644  1.1395  2.0699  0.6366
   31SAPC  H15B 4103   1.575   6.899   6.581  1.5776 -0.5998 -0.6734
   31SAPC  H15C 4104   1.484   6.755   6.557 -1.0343  1.5977 -1.8265
   31SAPC   C11 4105   1.920   6.831   6.356  0.3378  0.1913  0.6063
   31SAPC  H11A 4106   2.017   6.869   6.394  0.3873  0.6824  0.0054
   31SAPC  H11B 4107   1.882   6.892   6.271  0.8358 -0.8286 -0.3743
   31SAPC     P 4108   2.034   6.598   6.388  0.0931  0.3014  0.0886
   31SAPC   O13 4109   2.000   6.456   6.358  0.1919 -0.4242 -0.1318
   31SAPC   O14 4110   2.169   6.651   6.351 -0.4179  0.3449  0.3865
   31SAPC   O12 4111   1.941   6.698   6.310  0.2807 -0.2163  0.2389
   31SAPC   O11 4112   2.009   6.635   6.542  0.2591  0.3287 -0.3764
   31SAPC    C1 4113   2.113   6.601   6.628  0.1341  0.6520  0.0408
   31SAPC    HA 4114   2.158   6.503   6.600  1.0178  1.1909 -0.4724
   31SAPC    HB 4115   2.190   6.680   6.616  0.5420  0.1850 -0.5224
   31SAPC    C2 4116   2.070   6.585   6.781  0.3123  0.5805 -0.4095
   31SAPC    HS 4117   1.979   6.523   6.792  0.9251 -0.0060  2.0182
   31SAPC   O21 4118   2.052   6.710   6.844 -0.2208  0.2516 -0.1975
   31SAPC   C21 4119   1.947   6.780   6.812  0.0240  0.1298  0.1289
   31SAPC   O22 4120   1.856   6.750   6.743  0.5802  0.1626 -0.0779
   31SAPC   C22 4121   1.958   6.922   6.879 -0.2994  0.0929  0.7735
   31SAPC   H2R 4122   2.064   6.955   6.889 -0.2368  1.0473 -2.1604
   31SAPC   H2S 4123   1.924   6.987   6.796 -2.2695 -2.3063 -0.4356
   31SAPC    C3 4124   2.183   6.526   6.861  0.1370  0.5380  0.2032
   31SAPC    HX 4125   2.248   6.603   6.909  1.0691 -1.0225  1.5464
   31SAPC    HY 4126   2.249   6.456   6.805 -0.3991 -1.4083  1.8936
   31SAPC   O31 4127   2.130   6.454   6.977 -0.1686 -0.5166  0.2542
   31SAPC   C31 4128   2.095   6.323   6.952  0.3252  0.6010  0.5036
   31SAPC   O32 4129   2.076   6.279   6.839 -0.1180  0.4407  0.2155
   31SAPC   C32 4130   2.080   6.245   7.080  0.5112  0.6155 -0.1233
   31SAPC   H2X 4131   2.042   6.318   7.155  1.4279  0.3567  0.6067
   31SAPC   H2Y 4132   2.184   6.220   7.108  1.3823  0.6843 -3.0327
   31SAPC   C23 4133   1.860   6.940   7.003 -0.1478 -0.2186 -0.9269
   31SAPC   H3R 4134   1.762   6.903   6.967 -0.7739 -1.0306  1.4694
   31SAPC   H3S 4135   1.852   7.044   7.041 -0.8817 -0.6105  0.0392
   31SAPC   C24 4136   1.896   6.849   7.129  1.3421  0.4424  0.0446
   31SAPC   H4R 4137   1.890   6.745   7.090 -1.9073  0.7458 -0.4952
   31SAPC   H4S 4138   1.823   6.860   7.212  0.9187  2.3234 -0.5393
   31SAPC   C25 4139   2.026   6.885   7.194 -0.2700  0.4093 -0.3546
   31SAPC   H5R 4140   2.045   6.991   7.173  0.8857  0.1466 -0.6964
   31SAPC   C26 4141   2.115   6.807   7.265 -0.2986  0.8457  0.0814
   31SAPC   H6R 4142   2.212   6.852   7.290 -1.5310  2.0501  3.2193
   31SAPC   C27 4143   2.091   6.668   7.302 -0.7892  0.1935  0.3304
   31SAPC   H7R 4144   1.999   6.629   7.253 -1.0535  1.2215  0.0013
   31SAPC   H7S 4145   2.083   6.656   7.413 -0.6182  0.0274  0.3268
   31SAPC   C28 4146   2.217   6.592   7.255  0.3081 -0.6319  0.4051
   31SAPC   H8R 4147   2.219   6.572   7.147 -0.6353  1.6696 -0.0943
   31SAPC   C29 4148   2.304   6.531   7.335  1.0307  0.5411 -0.4517
   31SAPC   H9R 4149   2.392   6.488   7.285  1.1757  1.4881 -1.0183
   31SAPC  C210 4150   2.294   6.525   7.483  0.5994  0.0547  0.6284
   31SAPC  H10R 4151   2.193   6.491   7.516  0.6359 -1.3621 -0.6151
   31SAPC  H10S 4152   2.314   6.627   7.521  1.3841  0.3466 -0.5299
   31SAPC  C211 4153   2.383   6.424   7.555 -0.3909 -0.2477  0.0503
   31SAPC  H11R 4154   2.391   6.317   7.528  2.1748 -0.2829  0.6106
   31SAPC  C212 4155   2.480   6.466   7.639 -0.4287 -0.1422 -0.3653
   31SAPC  H12R 4156   2.537   6.394   7.700  2.2585  1.9159 -0.2714
   31SAPC  C213 4157   2.514   6.613   7.689 -0.4179 -0.5967 -0.2320
   31SAPC  H13R 4158   2.515   6.677   7.599  1.2564  0.0969  0.2434
   31SAPC  H13S 4159   2.618   6.611   7.730 -1.2130  0.8343  2.0074
   31SAPC  C214 4160   2.421   6.656   7.794  0.3785  0.1619  0.0111
   31SAPC  H14R 4161   2.323   6.695   7.764 -0.4844 -0.4807  1.9072
   31SAPC  C215 4162   2.430   6.673   7.928 -0.4859 -0.4645  0.0198
   31SAPC  H15R 4163   2.342   6.710   7.982 -0.4903 -0.8233  0.2654
   31SAPC  C216 4164   2.554   6.654   8.019  0.4570 -0.1792  0.6236
   31SAPC  H16R 4165   2.565   6.741   8.087  0.1688 -0.8537  1.5551
   31SAPC  H16S 4166   2.645   6.649   7.955 -1.8760 -0.3814 -2.9371
   31SAPC  C217 4167   2.542   6.526   8.104  0.0147 -1.1066  0.7339
   31SAPC  H17R 4168   2.564   6.443   8.033  0.4439  0.9944 -1.7560
   31SAPC  H17S 4169   2.440   6.502   8.140 -1.0347  0.3781 -1.0760
   31SAPC  C218 4170   2.649   6.514   8.210 -0.7301 -0.4840  0.5424
   31SAPC  H18R 4171   2.628   6.603   8.274 -1.0165  0.0602 -0.2892
   31SAPC  H18S 4172   2.747   6.535   8.162 -0.9795 -0.5344  0.0100
   31SAPC  C219 4173   2.663   6.384   8.290  0.3031  0.3320 -0.8531
   31SAPC  H19R 4174   2.732   6.414   8.371  0.7887  1.2877 -1.5992
   31SAPC  H19S 4175   2.694   6.298   8.227  1.1254 -0.4800  0.6067
   31SAPC  C220 4176   2.534   6.344   8.354 -0.0837  0.0011  0.3388
   31SAPC  H20R 4177   2.446   6.344   8.286  0.1441 -3.0292 -0.0494
   31SAPC  H20S 4178   2.516   6.398   8.450 -0.2193 -0.0335  0.3332
   31SAPC  H20T 4179   2.543   6.238   8.386 -1.0376 -0.6436 -1.3991
   31SAPC   C33 4180   1.998   6.114   7.077 -0.9917  0.2257  0.5029
   31SAPC   H3X 4181   2.045   6.054   6.997  0.6996  1.6324  0.3831
   31SAPC   H3Y 4182   1.896   6.136   7.037 -0.5485  1.4590 -0.0109
   31SAPC   C34 4183   1.974   6.044   7.207  0.0184  0.0948 -0.1356
   31SAPC   H4X 4184   1.938   6.112   7.287  1.2207  0.6282 -0.0178
   31SAPC   H4Y 4185   2.060   6.003   7.264  0.9225  1.0349 -0.7881
   31SAPC   C35 4186   1.869   5.932   7.189 -0.9891 -0.0094 -0.0473
   31SAPC   H5X 4187   1.898   5.872   7.100 -0.7246  1.1931 -0.7938
   31SAPC   H5Y 4188   1.770   5.981   7.178  0.3708  2.6074 -1.6707
   31SAPC   C36 4189   1.868   5.849   7.321  0.9903  0.0898  0.3315
   31SAPC   H6X 4190   1.862   5.919   7.407  0.4184  1.5449 -0.8535
   31SAPC   H6Y 4191   1.967   5.798   7.326  1.9268  1.7479 -0.4843
   31SAPC   C37 4192   1.752   5.750   7.332  0.2353 -0.2497 -0.0114
   31SAPC   H7X 4193   1.739   5.685   7.243  3.1342 -1.1022  0.0748
   31SAPC   H7Y 4194   1.653   5.798   7.348  1.2944  2.4527 -0.9040
   31SAPC   C38 4195   1.779   5.658   7.443  0.2393 -0.3145 -0.1544
   31SAPC   H8X 4196   1.783   5.722   7.534 -2.0723  0.7802 -0.7666
   31SAPC   H8Y 4197   1.878   5.609   7.429 -0.1115 -0.9109 -0.5875
   31SAPC   C39 4198   1.664   5.557   7.456  0.0685  0.7608  0.3368
   31SAPC   H9X 4199   1.630   5.515   7.359 -0.8063  2.5221 -0.1527
   31SAPC   H9Y 4200   1.576   5.620   7.481 -0.6354 -0.6965  1.6840
   31SAPC  C310 4201   1.696   5.444   7.556 -0.0498  0.1058  0.1300
   31SAPC  H10X 4202   1.790   5.397   7.520 -0.3782 -1.8302  1.6762
   31SAPC  H10Y 4203   1.611   5.373   7.552  0.9887 -1.1472 -0.9232
   31SAPC  C311 4204   1.718   5.502   7.695 -0.2436  0.9121 -0.0038
   31SAPC  H11X 4205   1.625   5.556   7.723 -3.6866 -4.0335 -0.5276
   31SAPC  H11Y 4206   1.807   5.567   7.687 -0.0048  0.4731 -1.1662
   31SAPC  C312 4207   1.740   5.396   7.803 -0.7129 -0.1508  0.2154
   31SAPC  H12X 4208   1.743   5.439   7.905 -4.1725  0.6765  0.0678
   31SAPC  H12Y 4209   1.844   5.358   7.793 -1.4130 -2.3626  0.7907
   31SAPC  C313 4210   1.641   5.284   7.816  0.6781 -0.1339  0.6736
   31SAPC  H13X 4211   1.655   5.213   7.732  1.0825 -0.3582  0.9257
   31SAPC  H13Y 4212   1.544   5.331   7.789  0.4119 -1.1607 -0.2244
   31SAPC  C314 4213   1.628   5.228   7.957 -0.6204 -0.0324 -0.6285
   31SAPC  H14X 4214   1.728   5.190   7.988  0.1724  0.1270 -2.7632
   31SAPC  H14Y 4215   1.558   5.142   7.953 -0.4166 -0.2166 -0.3081
   31SAPC  C315 4216   1.562   5.331   8.052  1.0812 -1.0106 -0.4903
   31SAPC  H15X 4217   1.468   5.370   8.006 -0.4798 -4.2668 -0.3515
   31SAPC  H15Y 4218   1.626   5.420   8.066 -0.8109  0.5453 -1.1961
   31SAPC  C316 4219   1.520   5.265   8.186  0.7025  0.5771 -0.3354
   31SAPC  H16X 4220   1.571   5.170   8.210 -1.9631 -1.1300 -0.9157
   31SAPC  H16Y 4221   1.412   5.236   8.186  0.4926  1.3193 -0.6136
   31SAPC  C317 4222   1.537   5.369   8.303 -0.6341  0.4944  0.1402
   31SAPC  H17X 4223   1.470   5.348   8.388 -0.1066 -3.0239 -0.1636
   31SAPC  H17Y 4224   1.514   5.466   8.254 -0.4554  0.2709 -0.3985
   31SAPC  C318 4225   1.679   5.380   8.369 -0.9314 -0.3988  0.4808
   31SAPC  H18X 4226   1.760   5.374   8.293 -1.5637 -0.4650 -0.1933
   31SAPC  H18Y 4227   1.694   5.293   8.437 -1.3235  0.4101  1.6434
   31SAPC  H18Z 4228   1.693   5.480   8.416  0.1291 -0.8085  1.0757
   32SAPC     N 4229   1.300   1.868   6.062 -0.5243 -0.9342 -0.2196
   32SAPC   C12 4230   1.162   1.811   6.073 -0.3265  0.0495  0.5459
   32SAPC  H12A 4231   1.090   1.888   6.049  0.0989  0.2748 -0.0015
   32SAPC  H12B 4232   1.153   1.779   6.176 -0.0105  0.7694  0.7997
   32SAPC   C13 4233   1.404   1.770   6.069  0.0399 -0.2716 -0.1111
   32SAPC  H13A 4234   1.401   1.699   6.150 -1.5490 -1.6090 -1.2837
   32SAPC  H13B 4235   1.395   1.700   5.987 -1.5189 -0.9555  0.6103
   32SAPC  H13C 4236   1.503   1.814   6.076  0.1248 -0.5446  0.4813
   32SAPC   C14 4237   1.318   1.936   5.928  0.1810  0.4397 -0.0776
   32SAPC  H14A 4238   1.240   2.009   5.912  0.1011 -0.1204 -2.5720
   32SAPC  H14B 4239   1.412   1.988   5.913 -0.3333  1.4439  0.0617
   32SAPC  H14C 4240   1.309   1.859   5.853  0.2356  0.2093  0.1512
   32SAPC   C15 4241   1.329   1.976   6.173  0.1228 -0.6950 -0.0881
   32SAPC  H15A 4242   1.429   2.016   6.166 -0.1819  0.3717  1.2978
   32SAPC  H15B 4243   1.258   2.057   6.172 -0.2711 -1.0230  0.6804
   32SAPC  H15C 4244   1.316   1.926   6.268 -0.8763 -1.3105 -0.5280
   32SAPC   C11 4245   1.132   1.692   5.986 -0.1435 -1.0197 -0.0014
   32SAPC  H11A 4246   1.198   1.609   6.020  2.0558  1.2773  1.7342
   32SAPC  H11B 4247   1.151   1.716   5.879 -0.8721 -0.9190 -0.1098
   32SAPC     P 4248   0.935   1.589   6.131 -0.2960 -0.2696  0.2657
   32SAPC   O13 4249   0.910   1.686   6.243  0.2041 -0.0082 -0.0552
   32SAPC   O14 4250   0.817   1.510   6.083 -0.1301  0.1729  0.0087
   32SAPC   O12 4251   1.000   1.663   6.005  0.4055 -0.0360 -0.4421
   32SAPC   O11 4252   1.046   1.490   6.184 -0.3903  0.0391  0.1719
   32SAPC    C1 4253   1.008   1.370   6.262  0.3535 -0.1742  0.0517
   32SAPC    HA 4254   0.909   1.331   6.229 -2.6525  4.1924  2.7236
   32SAPC    HB 4255   1.093   1.301   6.247  0.7921  0.0343  1.4058
   32SAPC    C2 4256   0.995   1.398   6.417 -0.0207  0.1646  0.1360
   32SAPC    HS 4257   1.042   1.497   6.435 -1.4232  0.9362 -0.2929
   32SAPC   O21 4258   1.067   1.299   6.494  0.4699 -0.7424 -0.3731
   32SAPC   C21 4259   1.199   1.298   6.481 -0.3887 -0.2099 -0.0815
   32SAPC   O22 4260   1.264   1.396   6.447  0.3853 -0.7453 -0.1797
   32SAPC   C22 4261   1.251   1.162   6.515 -0.0916  0.2972  0.0866
   32SAPC   H2R 4262   1.206   1.134   6.613  3.7332 -0.2134  1.9052
   32SAPC   H2S 4263   1.222   1.089   6.436 -1.0748  1.7324 -0.9231
   32SAPC    C3 4264   0.848   1.399   6.468 -1.0584  0.5600 -0.0803
   32SAPC    HX 4265   0.813   1.294   6.456  2.1279 -0.4365 -1.5645
   32SAPC    HY 4266   0.791   1.462   6.397 -1.2715 -1.0664 -1.4055
   32SAPC   O31 4267   0.834   1.459   6.592 -0.7364 -0.2182 -0.5594
   32SAPC   C31 4268   0.849   1.386   6.702  0.3527  0.0635 -0.1036
   32SAPC   O32 4269   0.876   1.267   6.709  0.0415 -0.1109 -0.1695
   32SAPC   C32 4270   0.831   1.483   6.815 -0.4991  0.2752  0.3958
   32SAPC   H2X 4271   0.734   1.537   6.813 -0.4984  0.5159  3.0460
   32SAPC   H2Y 4272   0.913   1.557   6.802 -0.6467  0.4279  0.3298
   32SAPC   C23 4273   1.411   1.176   6.543 -0.0741  0.0186  0.5361
   32SAPC   H3R 4274   1.447   1.258   6.477 -1.1095  0.2132  0.1929
   32SAPC   H3S 4275   1.466   1.084   6.513  0.8285  0.0044  2.1389
   32SAPC   C24 4276   1.447   1.205   6.689  0.0278 -0.2121  0.0459
   32SAPC   H4R 4277   1.557   1.191   6.680  0.1226  0.9578 -0.8057
   32SAPC   H4S 4278   1.406   1.118   6.746 -0.0582  0.8711  1.7261
   32SAPC   C25 4279   1.419   1.337   6.743  0.4379 -0.5198 -0.3522
   32SAPC   H5R 4280   1.437   1.419   6.671 -0.9824 -0.2766 -0.4802
   32SAPC   C26 4281   1.336   1.367   6.850 -0.5003 -0.2467 -0.1028
   32SAPC   H6R 4282   1.312   1.473   6.864 -1.5579 -0.0047 -3.0567
   32SAPC   C27 4283   1.268   1.275   6.947 -0.3389  0.3261  0.7854
   32SAPC   H7R 4284   1.310   1.173   6.933 -0.6220  0.5169 -2.1947
   32SAPC   H7S 4285   1.165   1.256   6.912  0.3750  0.1688 -1.4325
   32SAPC   C28 4286   1.273   1.316   7.094 -0.3225 -0.0671 -0.5336
   32SAPC   H8R 4287   1.310   1.417   7.117 -1.0797  0.7097 -2.5515
   32SAPC   C29 4288   1.214   1.238   7.190  0.1199  0.7304  0.1525
   32SAPC   H9R 4289   1.227   1.262   7.296 -0.2635 -1.2156  0.6677
   32SAPC  C210 4290   1.139   1.107   7.173  0.3443 -0.0761 -0.0345
   32SAPC  H10R 4291   1.143   1.064   7.071  1.5868 -1.6625  0.6534
   32SAPC  H10S 4292   1.029   1.120   7.184  0.4914  2.3086 -0.7089
   32SAPC  C211 4293   1.197   1.001   7.262  1.5887 -0.0895  0.0894
   32SAPC  H11R 4294   1.281   0.945   7.219  0.3285 -1.6846 -0.3894
   32SAPC  C212 4295   1.157   0.964   7.386 -0.4534  0.0930 -0.6799
   32SAPC  H12R 4296   1.205   0.874   7.426  1.0786  0.6499 -1.2094
   32SAPC  C213 4297   1.048   1.019   7.469  0.2536  0.4085  0.0845
   32SAPC  H13R 4298   0.973   0.940   7.490  1.2911 -0.5353  0.3040
   32SAPC  H13S 4299   1.004   1.097   7.403  0.6010  0.9184  0.4418
   32SAPC  C214 4300   1.114   1.090   7.583  0.9061 -0.0294 -0.5358
   32SAPC  H14R 4301   1.157   1.187   7.553  0.1821 -0.0099 -1.5681
   32SAPC  C215 4302   1.095   1.050   7.712 -0.8510 -0.4370 -0.1036
   32SAPC  H15R 4303   1.157   1.099   7.789  0.2975 -0.5878 -0.9046
   32SAPC  C216 4304   1.028   0.924   7.763  0.3277  0.1106  0.5536
   32SAPC  H16R 4305   1.023   0.850   7.681 -1.9357 -0.3673  1.0420
   32SAPC  H16S 4306   0.925   0.958   7.790  0.5134 -0.1239  1.6036
   32SAPC  C217 4307   1.095   0.864   7.887  0.7678  0.2130  0.2149
   32SAPC  H17R 4308   1.085   0.940   7.968 -2.0285 -0.8684  0.9777
   32SAPC  H17S 4309   1.204   0.850   7.867  1.0250  0.2019  1.5143
   32SAPC  C218 4310   1.037   0.735   7.933  0.7143  0.1740  0.5058
   32SAPC  H18R 4311   1.028   0.661   7.851  2.7569  0.2182  0.1941
   32SAPC  H18S 4312   0.937   0.754   7.978 -1.1916 -0.7993 -2.9636
   32SAPC  C219 4313   1.111   0.659   8.041 -0.0449  0.1939  0.6101
   32SAPC  H19R 4314   1.108   0.728   8.128 -1.6551 -0.0755  0.7882
   32SAPC  H19S 4315   1.218   0.645   8.014 -0.7657 -1.2204 -1.8762
   32SAPC  C220 4316   1.046   0.521   8.054 -0.3373  0.1435 -0.3883
   32SAPC  H20R 4317   0.940   0.537   8.084  0.2683  2.5876  0.6766
   32SAPC  H20S 4318   1.087   0.448   8.127  3.9676  1.6037 -1.0977
   32SAPC  H20T 4319   1.046   0.456   7.964  0.1533 -1.4342  0.6998
   32SAPC   C33 4320   0.858   1.408   6.954  0.0943 -0.0660  0.1639
   32SAPC   H3X 4321   0.969   1.404   6.955  0.2307  2.1638  2.3035
   32SAPC   H3Y 4322   0.803   1.312   6.957 -0.5867  0.3558  2.4097
   32SAPC   C34 4323   0.832   1.486   7.081 -0.0314  0.3216 -0.0325
   32SAPC   H4X 4324   0.725   1.491   7.110  0.4732  1.8026  1.7431
   32SAPC   H4Y 4325   0.881   1.584   7.063 -0.7294  0.8231  0.7109
   32SAPC   C35 4326   0.902   1.413   7.193 -0.4168 -0.0161 -0.0385
   32SAPC   H5X 4327   1.010   1.435   7.200 -0.3359 -0.3176 -0.3170
   32SAPC   H5Y 4328   0.900   1.302   7.181 -0.0105 -0.3859  2.6105
   32SAPC   C36 4329   0.836   1.463   7.327 -0.5418  0.5858 -0.6630
   32SAPC   H6X 4330   0.732   1.428   7.315 -0.3586  0.7279 -3.0299
   32SAPC   H6Y 4331   0.833   1.575   7.328 -1.2745  0.5816 -1.4962
   32SAPC   C37 4332   0.897   1.407   7.457  0.5017  0.0282  0.1254
   32SAPC   H7X 4333   0.909   1.302   7.425 -1.9703 -0.7563  1.5558
   32SAPC   H7Y 4334   0.816   1.425   7.531  1.2436  2.2015  0.4853
   32SAPC   C38 4335   1.029   1.475   7.507 -0.2724  0.5728 -0.6419
   32SAPC   H8X 4336   1.100   1.497   7.424 -1.6775  1.0130 -1.7719
   32SAPC   H8Y 4337   1.079   1.407   7.578  1.8575  1.5715 -1.1203
   32SAPC   C39 4338   1.000   1.615   7.570  0.4199 -0.3058 -0.5697
   32SAPC   H9X 4339   0.901   1.615   7.620 -0.7197 -0.5566 -2.7236
   32SAPC   H9Y 4340   0.988   1.673   7.476  0.4008 -0.2554 -0.5359
   32SAPC  C310 4341   1.115   1.667   7.657 -0.7322  0.1036 -0.0579
   32SAPC  H10X 4342   1.124   1.778   7.654 -0.0862  0.0437 -2.6026
   32SAPC  H10Y 4343   1.209   1.632   7.609 -0.7112  1.0591 -0.7268
   32SAPC  C311 4344   1.108   1.620   7.801 -0.1036  0.5828 -0.6300
   32SAPC  H11X 4345   1.102   1.509   7.804 -0.0090  0.5531 -1.3288
   32SAPC  H11Y 4346   1.007   1.651   7.838 -0.6289 -2.0182  0.3232
   32SAPC  C312 4347   1.231   1.675   7.881  0.6141 -0.0697 -0.9532
   32SAPC  H12X 4348   1.231   1.786   7.872  0.9543 -0.2161 -4.5679
   32SAPC  H12Y 4349   1.321   1.627   7.837  1.8911 -0.3695  1.8034
   32SAPC  C313 4350   1.229   1.624   8.031  0.1951  0.2684  0.7989
   32SAPC  H13X 4351   1.228   1.513   8.024 -2.8470  0.3180 -1.0935
   32SAPC  H13Y 4352   1.127   1.645   8.068 -1.1081 -2.3001 -1.0295
   32SAPC  C314 4353   1.338   1.679   8.122  0.2761  0.2402 -0.7890
   32SAPC  H14X 4354   1.296   1.683   8.225 -0.2972 -1.9820 -0.8854
   32SAPC  H14Y 4355   1.363   1.782   8.090 -0.4730  1.0415  1.0797
   32SAPC  C315 4356   1.458   1.582   8.119  0.1690  0.1162  0.2891
   32SAPC  H15X 4357   1.503   1.594   8.018 -0.0829  1.7062  0.3391
   32SAPC  H15Y 4358   1.428   1.476   8.133 -0.3618  0.1974 -0.1735
   32SAPC  C316 4359   1.568   1.635   8.207  0.0705 -0.0813 -0.2270
   32SAPC  H16X 4360   1.543   1.629   8.315  4.1776 -1.2260  0.8720
   32SAPC  H16Y 4361   1.587   1.744   8.201 -0.3468  0.0312  0.3865
   32SAPC  C317 4362   1.699   1.556   8.190  0.1579 -0.6283  0.1669
   32SAPC  H17X 4363   1.744   1.585   8.093  0.1685  1.9086  0.8326
   32SAPC  H17Y 4364   1.680   1.448   8.205  0.4519 -0.4916  1.7527
   32SAPC  C318 4365   1.801   1.612   8.300  0.1570  0.2441  0.6519
   32SAPC  H18X 4366   1.901   1.569   8.282  0.0467  0.9184 -1.9533
   32SAPC  H18Y 4367   1.755   1.587   8.398  0.3927  0.5792  0.8516
   32SAPC  H18Z 4368   1.806   1.721   8.280  0.3138 -0.1113 -1.5084
   33POPC     N 4369   0.513   1.851  10.798 -0.0728 -0.1371 -0.0095
   33POPC   C12 4370   0.488   1.838  10.647  0.2176 -0.3844  0.1230
   33POPC  H12A 4371   0.549   1.757  10.609 -0.4544  0.0173 -1.9505
   33POPC  H12B 4372   0.524   1.929  10.602  1.1556 -0.7288  0.1399
   33POPC   C13 4373   0.654   1.888  10.827  0.1308  0.2319  0.3148
   33POPC  H13A 4374   0.667   1.880  10.934 -1.2877 -1.4620  0.3926
   33POPC  H13B 4375   0.726   1.827  10.775 -1.1310  0.4336 -1.7859
   33POPC  H13C 4376   0.673   1.991  10.799  0.2178 -0.0948 -0.9036
   33POPC   C14 4377   0.428   1.963  10.851  0.2759  0.0133  0.0597
   33POPC  H14A 4378   0.322   1.945  10.848  0.0063  1.4546  0.3509
   33POPC  H14B 4379   0.462   1.990  10.950  0.5011  0.0967 -0.0392
   33POPC  H14C 4380   0.451   2.056  10.800 -1.8980  0.2902 -0.5092
   33POPC   C15 4381   0.478   1.729  10.871  0.5129  0.4152  0.4823
   33POPC  H15A 4382   0.470   1.740  10.978  1.8486 -0.8469  0.7435
   33POPC  H15B 4383   0.544   1.647  10.845 -1.3819 -0.6139 -1.3733
   33POPC  H15C 4384   0.377   1.705  10.839  0.0269  1.8789  0.8574
   33POPC   C11 4385   0.340   1.821  10.607  0.5210  0.9644 -0.1594
   33POPC  H11A 4386   0.344   1.833  10.496  0.9449  0.1428 -0.2367
   33POPC  H11B 4387   0.274   1.896  10.656  0.8613  0.7288  0.6687
   33POPC     P 4388   0.338   1.562  10.542  0.0670  0.5039 -0.0423
   33POPC   O13 4389   0.409   1.469  10.637 -0.3297 -0.0492  0.0587
   33POPC   O14 4390   0.412   1.613  10.424  0.3990  0.3327  0.0576
   33POPC   O12 4391   0.289   1.683  10.635  0.2070 -0.5339 -0.0162
   33POPC   O11 4392   0.198   1.494  10.502  0.1910  0.5061  0.6835
   33POPC    C1 4393   0.108   1.564  10.420 -0.7396  0.4100 -0.1210
   33POPC    HA 4394   0.015   1.580  10.480 -0.6608  0.1886  0.0613
   33POPC    HB 4395   0.154   1.660  10.389  1.0450 -0.4255 -0.1809
   33POPC    C2 4396   0.062   1.480  10.301 -0.1282  0.5432  0.0849
   33POPC    HS 4397   0.048   1.374  10.333  4.7979 -1.1919 -2.4081
   33POPC   O21 4398   0.168   1.474  10.203  0.3231  0.1820  0.1297
   33POPC   C21 4399   0.181   1.364  10.133 -0.7998  0.4105  0.2372
   33POPC   O22 4400   0.116   1.264  10.143  0.4341  0.2480 -0.2199
   33POPC   C22 4401   0.295   1.402  10.034  0.4267 -0.9300 -1.2504
   33POPC   H2R 4402   0.372   1.462  10.087  0.3136 -2.5255  0.9002
   33POPC   H2S 4403   0.246   1.482   9.974 -2.3275  0.3383  2.2759
   33POPC    C3 4404  -0.062   1.541  10.233  0.7224 -0.5164 -0.0101
   33POPC    HX 4405  -0.047   1.642  10.189  0.5931 -0.3770  0.2631
   33POPC    HY 4406  -0.136   1.556  10.314  1.0204 -2.3426  0.6343
   33POPC   O31 4407  -0.119   1.453  10.131  0.0931  0.3163  0.1168
   33POPC   C31 4408  -0.184   1.345  10.169  0.0800 -0.5371  0.1336
   33POPC   O32 4409  -0.215   1.317  10.285  0.1829  0.2798  0.0484
   33POPC   C32 4410  -0.237   1.274  10.050 -0.2951  0.2193 -0.2670
   33POPC   H2X 4411  -0.200   1.320   9.956  1.8254 -1.4025 -0.3051
   33POPC   H2Y 4412  -0.347   1.279  10.058 -0.2920  0.4235 -0.3643
   33POPC   C23 4413   0.354   1.287   9.950 -0.3078  0.8263  0.2957
   33POPC   H3R 4414   0.269   1.224   9.917 -0.2158  0.6858  0.3274
   33POPC   H3S 4415   0.419   1.222  10.013 -1.0092 -0.6797 -0.4933
   33POPC   C24 4416   0.435   1.335   9.830  0.0150 -0.2733 -0.2997
   33POPC   H4R 4417   0.499   1.254   9.790 -0.3477 -1.7964  2.0435
   33POPC   H4S 4418   0.489   1.428   9.861  0.4255 -0.3132 -0.8557
   33POPC   C25 4419   0.331   1.381   9.718 -1.2400 -0.1965 -0.0222
   33POPC   H5R 4420   0.239   1.424   9.763 -0.5021 -0.1560  1.5084
   33POPC   H5S 4421   0.288   1.293   9.668 -2.3395  1.0032 -1.2743
   33POPC   C26 4422   0.401   1.477   9.616  0.1779  0.2924 -0.2629
   33POPC   H6R 4423   0.491   1.431   9.570 -2.2848 -5.0344 -0.5856
   33POPC   H6S 4424   0.441   1.559   9.679 -0.9613 -0.6061  1.7358
   33POPC   C27 4425   0.294   1.525   9.519 -0.1089 -0.0415 -0.3355
   33POPC   H7R 4426   0.210   1.575   9.573  0.3284  1.1691 -0.7272
   33POPC   H7S 4427   0.257   1.436   9.464  2.7783 -1.4629 -0.1670
   33POPC   C28 4428   0.350   1.623   9.411 -0.8474 -0.8534 -0.2471
   33POPC   H8R 4429   0.275   1.656   9.337 -0.6279 -0.0470 -0.1148
   33POPC   H8S 4430   0.424   1.568   9.350 -2.0419 -2.3602 -0.4116
   33POPC   C29 4431   0.403   1.743   9.486  0.5183  0.3581 -0.5007
   33POPC   H91 4432   0.340   1.775   9.571  1.9374  1.8817  0.0401
   33POPC  C210 4433   0.510   1.813   9.450  0.9572 -0.2825  0.5923
   33POPC  H101 4434   0.556   1.883   9.521  2.0772  0.3856 -0.7389
   33POPC  C211 4435   0.588   1.776   9.326 -1.1221  0.2245 -0.0513
   33POPC  H11R 4436   0.605   1.667   9.316  0.7420  0.4279  0.4565
   33POPC  H11S 4437   0.692   1.816   9.333  1.5021 -5.4058 -1.2391
   33POPC  C212 4438   0.526   1.825   9.194  0.1610 -0.2260 -0.6629
   33POPC  H12R 4439   0.494   1.930   9.204  1.9263  0.2028  0.8573
   33POPC  H12S 4440   0.437   1.759   9.179  0.3222 -0.0506 -2.6747
   33POPC  C213 4441   0.614   1.813   9.069 -0.6152 -0.1686  0.2151
   33POPC  H13R 4442   0.674   1.720   9.059  0.3131  0.3505  0.8031
   33POPC  H13S 4443   0.691   1.892   9.082  0.5472 -0.6615 -2.8732
   33POPC  C214 4444   0.552   1.845   8.930 -0.0095 -0.1306  0.8788
   33POPC  H14R 4445   0.468   1.915   8.948 -0.4006 -0.1015 -0.8727
   33POPC  H14S 4446   0.508   1.753   8.887 -0.5659  0.3318  0.4524
   33POPC  C215 4447   0.655   1.895   8.832  0.1956  0.1679  0.4353
   33POPC  H15R 4448   0.737   1.820   8.832 -0.6935 -0.9225  2.9160
   33POPC  H15S 4449   0.692   1.993   8.868 -0.3897  0.8656 -0.7834
   33POPC  C216 4450   0.601   1.907   8.691  0.6292 -0.1121 -0.3682
   33POPC  H16R 4451   0.575   1.806   8.652 -1.7958  0.0233  0.7297
   33POPC  H16S 4452   0.672   1.959   8.623 -2.7817  2.5648 -2.2083
   33POPC  C217 4453   0.470   1.990   8.681  0.1784  0.2066  0.1252
   33POPC  H17R 4454   0.487   2.095   8.711 -1.5178  0.7275 -0.6224
   33POPC  H17S 4455   0.382   1.956   8.741 -0.6058 -0.8011 -1.5147
   33POPC  C218 4456   0.410   1.996   8.540 -0.2163 -0.6177  0.1079
   33POPC  H18R 4457   0.299   1.984   8.543 -0.2142 -0.3658  1.8886
   33POPC  H18S 4458   0.455   1.922   8.470 -3.5680 -1.8936 -0.9205
   33POPC  H18T 4459   0.439   2.094   8.496  0.6274 -0.2857  1.3472
   33POPC   C33 4460  -0.188   1.133  10.039  0.6266  0.1324 -0.2125
   33POPC   H3X 4461  -0.211   1.078  10.133  0.9772  2.7378  1.5018
   33POPC   H3Y 4462  -0.079   1.138  10.019  0.0457  0.5098 -3.9223
   33POPC   C34 4463  -0.263   1.080   9.916 -0.1283  0.4209  0.0833
   33POPC   H4X 4464  -0.262   1.145   9.827 -3.1491  0.0302 -0.3106
   33POPC   H4Y 4465  -0.371   1.067   9.934  0.0625 -1.7530 -0.0597
   33POPC   C35 4466  -0.214   0.935   9.884  0.5476  0.5135  0.1370
   33POPC   H5X 4467  -0.224   0.877   9.978  1.4762  1.6883  1.0147
   33POPC   H5Y 4468  -0.105   0.935   9.863  0.4376  1.4609 -0.5290
   33POPC   C36 4469  -0.296   0.868   9.767  0.3455  0.2389  0.1202
   33POPC   H6X 4470  -0.285   0.937   9.679 -0.3911  1.9985  1.3442
   33POPC   H6Y 4471  -0.404   0.858   9.790  0.7624 -1.1707  1.5605
   33POPC   C37 4472  -0.238   0.734   9.731  0.5296  0.4579 -0.6422
   33POPC   H7X 4473  -0.242   0.672   9.823 -0.0358  2.2689  0.6223
   33POPC   H7Y 4474  -0.129   0.750   9.715  0.4895  0.1072 -1.3376
   33POPC   C38 4475  -0.305   0.659   9.617 -0.3249  0.2009 -0.7822
   33POPC   H8X 4476  -0.415   0.666   9.635 -0.3982 -0.4390 -0.9406
   33POPC   H8Y 4477  -0.285   0.550   9.625 -2.3318 -0.1922 -0.4520
   33POPC   C39 4478  -0.276   0.719   9.479  0.0399 -0.4734  0.5032
   33POPC   H9X 4479  -0.167   0.722   9.459 -0.0638  1.3918  0.0811
   33POPC   H9Y 4480  -0.320   0.820   9.468 -0.3521 -0.7615 -0.6433
   33POPC  C310 4481  -0.351   0.641   9.369  0.1212  0.0621  0.0609
   33POPC  H10X 4482  -0.460   0.642   9.393  0.6263  0.9990  2.7135
   33POPC  H10Y 4483  -0.319   0.535   9.368  1.7716  0.5091  1.2173
   33POPC  C311 4484  -0.321   0.694   9.231 -0.7826 -0.3556  0.3153
   33POPC  H11X 4485  -0.212   0.693   9.210 -0.5214 -1.6460  1.5876
   33POPC  H11Y 4486  -0.341   0.803   9.232 -2.2123 -0.4287 -3.4872
   33POPC  C312 4487  -0.403   0.625   9.130 -0.0415 -0.2156 -1.0360
   33POPC  H12X 4488  -0.506   0.653   9.162 -0.3095 -2.5854  0.3512
   33POPC  H12Y 4489  -0.388   0.517   9.149  0.9644  0.4051  2.4129
   33POPC  C313 4490  -0.381   0.661   8.982 -0.3469 -0.1953 -0.0974
   33POPC  H13X 4491  -0.451   0.605   8.916 -0.1071 -0.7492  0.1065
   33POPC  H13Y 4492  -0.278   0.651   8.943 -0.5684  1.5709 -1.2165
   33POPC  C314 4493  -0.410   0.811   8.966  0.2109  0.5136  0.1402
   33POPC  H14X 4494  -0.339   0.880   9.017  0.1126  1.1718 -0.5863
   33POPC  H14Y 4495  -0.503   0.838   9.021  0.7519  0.9215  0.8643
   33POPC  C315 4496  -0.411   0.852   8.822 -0.3479  0.1023  0.4099
   33POPC  H15X 4497  -0.435   0.959   8.805  0.4981  0.0826 -1.1864
   33POPC  H15Y 4498  -0.489   0.792   8.770 -0.0995 -0.5101  0.7325
   33POPC  C316 4499  -0.280   0.834   8.738  0.2774  0.0690  1.3121
   33POPC  H16X 4500  -0.197   0.860   8.807  0.1940  1.9107  0.7704
   33POPC  H16Y 4501  -0.289   0.901   8.650 -2.4285 -1.0451  0.6225
   33POPC  H16Z 4502  -0.275   0.728   8.705 -0.3828 -0.1419  1.8470
   34POPC     N 4503   0.167   2.180  10.311 -0.2366  0.1094 -0.0930
   34POPC   C12 4504   0.108   2.102  10.428  0.3949 -0.2608 -0.1440
   34POPC  H12A 4505   0.011   2.140  10.455 -0.0003 -2.6137  2.1831
   34POPC  H12B 4506   0.171   2.119  10.514  1.3154 -1.1026 -0.6144
   34POPC   C13 4507   0.317   2.149  10.306 -0.9972  0.1280  0.1423
   34POPC  H13A 4508   0.361   2.200  10.221  0.7790 -2.8232 -0.8579
   34POPC  H13B 4509   0.363   2.188  10.395 -3.1165  1.0147  0.9220
   34POPC  H13C 4510   0.323   2.043  10.287 -3.6227  0.3137 -2.4240
   34POPC   C14 4511   0.100   2.131  10.183  0.2060  0.9404  0.5477
   34POPC  H14A 4512   0.169   2.162  10.105  0.0974 -0.6793 -0.2218
   34POPC  H14B 4513   0.100   2.023  10.186  0.0434  0.7460 -2.7679
   34POPC  H14C 4514  -0.001   2.167  10.172  0.0022  0.1964 -0.0376
   34POPC   C15 4515   0.155   2.329  10.329 -0.2765  0.6407  0.0682
   34POPC  H15A 4516   0.062   2.363  10.286 -0.4358  0.0853 -0.0396
   34POPC  H15B 4517   0.235   2.381  10.279  0.1218 -0.7231 -0.7546
   34POPC  H15C 4518   0.159   2.362  10.432  0.7575 -0.5063  0.4195
   34POPC   C11 4519   0.096   1.946  10.406  0.6594 -0.5834 -0.1102
   34POPC  H11A 4520   0.079   1.896  10.504  3.3628 -0.5576  0.4301
   34POPC  H11B 4521   0.198   1.922  10.371  1.4479 -0.8070  2.1826
   34POPC     P 4522  -0.160   1.902  10.333  0.3697 -0.5164  0.2312
   34POPC   O13 4523  -0.192   2.042  10.383 -0.1417  0.2241 -0.2445
   34POPC   O14 4524  -0.205   1.781  10.408 -0.1837  0.2795  0.3890
   34POPC   O12 4525  -0.000   1.894  10.313  0.0010  0.0098  0.4847
   34POPC   O11 4526  -0.214   1.882  10.184 -0.3522 -0.4069 -0.2301
   34POPC    C1 4527  -0.310   1.783  10.156 -0.3052 -0.1000  0.7970
   34POPC    HA 4528  -0.403   1.801  10.215  0.1366  0.7003  1.2715
   34POPC    HB 4529  -0.267   1.684  10.182  0.7644  0.4838  1.3208
   34POPC    C2 4530  -0.363   1.815  10.007  0.7725  0.9281 -0.0617
   34POPC    HS 4531  -0.462   1.768   9.996  1.9340 -1.5678 -0.4236
   34POPC   O21 4532  -0.269   1.756   9.913  0.4360  0.2840 -0.3974
   34POPC   C21 4533  -0.277   1.623   9.899  0.0945  0.4085  0.1602
   34POPC   O22 4534  -0.356   1.545   9.957 -0.2380  0.0774 -0.1065
   34POPC   C22 4535  -0.161   1.574   9.808 -0.1300  0.3579 -0.9280
   34POPC   H2R 4536  -0.072   1.551   9.870  0.5347  1.1720 -1.5535
   34POPC   H2S 4537  -0.152   1.660   9.738  0.8180  2.0575  1.1935
   34POPC    C3 4538  -0.388   1.969   9.990 -0.5397  0.0156 -0.1431
   34POPC    HX 4539  -0.294   2.028  10.000 -0.0519 -1.0676  2.5144
   34POPC    HY 4540  -0.448   2.009  10.074  0.9620  2.5437 -0.1588
   34POPC   O31 4541  -0.437   1.995   9.859  0.2189 -0.3176  0.1278
   34POPC   C31 4542  -0.571   1.987   9.854  0.2716 -0.6419 -0.1648
   34POPC   O32 4543  -0.646   1.931   9.934 -0.0435 -0.2846  0.2424
   34POPC   C32 4544  -0.619   2.057   9.722  0.8626  0.2694  0.5583
   34POPC   H2X 4545  -0.551   2.015   9.645  0.3896  2.0651 -0.9065
   34POPC   H2Y 4546  -0.593   2.164   9.735  1.2058  0.3151 -0.3851
   34POPC   C23 4547  -0.204   1.453   9.723  0.3356 -0.3657  0.4313
   34POPC   H3R 4548  -0.271   1.481   9.638  0.8900  0.4356  0.2468
   34POPC   H3S 4549  -0.257   1.373   9.779  0.5974 -1.5421 -0.9477
   34POPC   C24 4550  -0.074   1.399   9.665 -0.6099 -0.3120  0.8202
   34POPC   H4R 4551  -0.017   1.344   9.743  0.3606 -1.4538 -0.6344
   34POPC   H4S 4552  -0.000   1.465   9.615  1.2480 -1.1698  2.2891
   34POPC   C25 4553  -0.093   1.290   9.560  0.0933  0.8362 -0.4370
   34POPC   H5R 4554  -0.122   1.194   9.608  0.5816 -0.3857 -2.4945
   34POPC   H5S 4555   0.004   1.266   9.513  0.1661 -2.0338  0.9462
   34POPC   C26 4556  -0.175   1.335   9.437  0.3680 -0.5581 -0.4681
   34POPC   H6R 4557  -0.155   1.443   9.422 -0.3146 -0.5933 -1.7677
   34POPC   H6S 4558  -0.281   1.320   9.470  0.8173  0.1683  1.4474
   34POPC   C27 4559  -0.138   1.257   9.310 -0.2702  0.2900 -1.3009
   34POPC   H7R 4560  -0.220   1.267   9.236 -1.2277 -0.2411 -0.3366
   34POPC   H7S 4561  -0.136   1.153   9.348  1.8034  0.7279 -0.0388
   34POPC   C28 4562  -0.007   1.290   9.238  0.5695  0.2209 -0.1813
   34POPC   H8R 4563   0.008   1.204   9.171 -4.6221  0.2259 -1.8133
   34POPC   H8S 4564   0.082   1.300   9.304  0.5259  0.5884 -0.1742
   34POPC   C29 4565  -0.012   1.412   9.150 -0.4214 -0.2797  0.1491
   34POPC   H91 4566   0.008   1.510   9.194  0.9170 -0.2739 -0.4044
   34POPC  C210 4567  -0.024   1.407   9.020  0.3626 -0.2970  0.1649
   34POPC  H101 4568  -0.022   1.503   8.967 -0.6414  0.7569  1.9192
   34POPC  C211 4569  -0.032   1.290   8.925 -0.6964  0.4441 -0.2350
   34POPC  H11R 4570   0.012   1.201   8.973  0.2712  1.2381  0.3794
   34POPC  H11S 4571   0.015   1.315   8.828 -0.0868  0.3001  0.0173
   34POPC  C212 4572  -0.179   1.257   8.914  0.4728  0.0509 -0.0620
   34POPC  H12R 4573  -0.223   1.257   9.016 -0.7814 -1.9950 -0.5308
   34POPC  H12S 4574  -0.189   1.155   8.870 -1.4945  0.9530 -1.8957
   34POPC  C213 4575  -0.257   1.346   8.815  0.1226 -0.1555  1.0294
   34POPC  H13R 4576  -0.202   1.339   8.718 -0.6706 -1.0507  0.6266
   34POPC  H13S 4577  -0.253   1.453   8.845  1.5515  0.6163 -1.5957
   34POPC  C214 4578  -0.403   1.305   8.794  0.2593 -0.2911  0.1475
   34POPC  H14R 4579  -0.416   1.218   8.726 -1.9058 -0.4054  0.6330
   34POPC  H14S 4580  -0.462   1.384   8.743 -1.9447  0.0521  3.0006
   34POPC  C215 4581  -0.489   1.297   8.917 -0.1041  0.2139  0.2261
   34POPC  H15R 4582  -0.479   1.387   8.981  1.4794  0.2804 -0.0763
   34POPC  H15S 4583  -0.466   1.208   8.981 -1.2511 -1.0962 -1.1079
   34POPC  C216 4584  -0.634   1.264   8.872 -0.5678  0.0992 -0.1006
   34POPC  H16R 4585  -0.673   1.336   8.797 -2.5582 -2.7505 -2.0377
   34POPC  H16S 4586  -0.696   1.283   8.962 -0.2509  0.3360  0.0656
   34POPC  C217 4587  -0.669   1.122   8.813  0.2048  0.2203 -0.2815
   34POPC  H17R 4588  -0.631   1.047   8.885 -0.6691 -2.1045 -2.1046
   34POPC  H17S 4589  -0.592   1.106   8.733  2.6028 -0.6284  2.0386
   34POPC  C218 4590  -0.814   1.103   8.769  0.1871 -0.9120 -0.1426
   34POPC  H18R 4591  -0.884   1.096   8.855  0.4837 -0.4095  0.1424
   34POPC  H18S 4592  -0.845   1.008   8.720  1.1423 -1.4512  0.2692
   34POPC  H18T 4593  -0.850   1.189   8.709 -3.4216 -1.5844  0.8278
   34POPC   C33 4594  -0.766   2.041   9.684  0.2692  0.5011 -0.9107
   34POPC   H3X 4595  -0.829   2.086   9.763  0.8153  3.1155 -1.8507
   34POPC   H3Y 4596  -0.801   1.936   9.671  0.3708  0.1479  1.3343
   34POPC   C34 4597  -0.800   2.095   9.544 -0.5032  0.3230 -0.1870
   34POPC   H4X 4598  -0.755   2.196   9.535 -0.7350  0.3449 -1.3039
   34POPC   H4Y 4599  -0.911   2.094   9.541 -0.5605  0.8865  1.3088
   34POPC   C35 4600  -0.750   2.014   9.424  0.2646 -0.3788  0.6233
   34POPC   H5X 4601  -0.780   1.907   9.426  0.6566 -0.6536 -2.5380
   34POPC   H5Y 4602  -0.640   2.023   9.437  0.3684 -0.4213 -0.1657
   34POPC   C36 4603  -0.783   2.083   9.295 -0.5286 -0.7721  0.4693
   34POPC   H6X 4604  -0.753   2.189   9.281 -0.5205 -0.6578  1.2698
   34POPC   H6Y 4605  -0.894   2.090   9.297 -0.4071  2.2978  0.7100
   34POPC   C37 4606  -0.743   2.012   9.164  0.3730  0.2932 -0.4393
   34POPC   H7X 4607  -0.798   1.916   9.165  2.6812 -1.1091  0.0563
   34POPC   H7Y 4608  -0.633   1.996   9.164  0.2661 -0.4418 -0.6018
   34POPC   C38 4609  -0.784   2.087   9.039  1.2055 -0.6367 -0.3594
   34POPC   H8X 4610  -0.738   2.188   9.034  1.8931 -0.9602 -0.7131
   34POPC   H8Y 4611  -0.895   2.097   9.044  0.9753 -3.0081  0.5896
   34POPC   C39 4612  -0.749   2.019   8.909 -0.2611  0.1961 -0.6374
   34POPC   H9X 4613  -0.785   1.914   8.901 -0.5312  0.0335  1.8070
   34POPC   H9Y 4614  -0.639   2.020   8.891 -0.5388  0.5035 -2.5000
   34POPC  C310 4615  -0.808   2.088   8.783 -0.0073  0.5171 -0.2439
   34POPC  H10X 4616  -0.746   2.056   8.696 -0.5451 -2.6199  0.3837
   34POPC  H10Y 4617  -0.811   2.198   8.796  0.4217  0.5164 -0.1224
   34POPC  C311 4618  -0.953   2.040   8.762 -0.0646 -0.4123  0.2389
   34POPC  H11X 4619  -1.010   2.056   8.856  0.0276 -1.5055  0.4986
   34POPC  H11Y 4620  -0.954   1.930   8.747  1.7082 -0.3876 -0.2762
   34POPC  C312 4621  -1.028   2.108   8.641  0.0607  0.3465 -0.1910
   34POPC  H12X 4622  -0.992   2.213   8.639  0.5410  0.2769  2.2442
   34POPC  H12Y 4623  -1.134   2.095   8.673  0.6940  0.1508  1.9852
   34POPC  C313 4624  -0.993   2.045   8.507  0.5812 -0.5246  0.1015
   34POPC  H13X 4625  -0.888   2.079   8.492 -0.5807  3.5915  0.1226
   34POPC  H13Y 4626  -1.046   2.098   8.425 -0.4702  0.8891  1.6340
   34POPC  C314 4627  -1.024   1.900   8.483  0.0386  0.3804  0.5392
   34POPC  H14X 4628  -1.129   1.867   8.494 -0.1286 -0.7175 -2.9055
   34POPC  H14Y 4629  -0.957   1.843   8.551  2.8995 -0.6084 -2.7924
   34POPC  C315 4630  -0.981   1.860   8.338 -0.6413 -0.3517 -1.0185
   34POPC  H15X 4631  -1.040   1.925   8.270 -0.5348  1.9241  0.9189
   34POPC  H15Y 4632  -1.023   1.759   8.320  0.7545 -1.2089  0.3134
   34POPC  C316 4633  -0.832   1.882   8.305 -0.1155 -0.7579  0.0310
   34POPC  H16X 4634  -0.800   1.983   8.340  0.7216 -1.6101  1.8878
   34POPC  H16Y 4635  -0.831   1.878   8.194 -0.4872  0.4633 -0.0383
   34POPC  H16Z 4636  -0.759   1.809   8.346 -0.1609  0.0553  1.6757
   35POPC     N 4637   4.446   0.465  11.120 -0.0117  0.4866  0.0137
   35POPC   C12 4638   4.367   0.385  11.020  0.1565  0.2073  0.1981
   35POPC  H12A 4639   4.310   0.447  10.952  1.5698  0.1075 -1.1313
   35POPC  H12B 4640   4.288   0.333  11.070 -0.8271  2.7504  1.4448
   35POPC   C13 4641   4.520   0.365  11.207 -0.1149 -0.6839 -0.3166
   35POPC  H13A 4642   4.577   0.414  11.285 -0.7408 -2.1451  1.1163
   35POPC  H13B 4643   4.457   0.290  11.253  0.8383 -1.0487  0.4413
   35POPC  H13C 4644   4.592   0.317  11.142  1.1687  1.5422 -0.6461
   35POPC   C14 4645   4.549   0.556  11.065  0.2911 -0.5592  0.4416
   35POPC  H14A 4646   4.632   0.499  11.025  0.8770 -0.8709  2.0465
   35POPC  H14B 4647   4.507   0.623  10.991 -0.5929  2.1706  3.2122
   35POPC  H14C 4648   4.590   0.621  11.141 -1.6597  0.1823  0.9184
   35POPC   C15 4649   4.355   0.531  11.215 -0.4560  0.3926 -0.1873
   35POPC  H15A 4650   4.289   0.465  11.269  1.7592 -1.1689  0.7646
   35POPC  H15B 4651   4.294   0.595  11.153  1.2257 -0.1181 -2.5136
   35POPC  H15C 4652   4.408   0.582  11.295  2.1962 -1.9928 -0.2748
   35POPC   C11 4653   4.438   0.290  10.918 -0.3900  0.6011  0.4928
   35POPC  H11A 4654   4.530   0.340  10.880  1.2881 -1.7460  1.2560
   35POPC  H11B 4655   4.371   0.270  10.832  1.1193 -0.5030 -0.4600
   35POPC     P 4656   4.610   0.110  10.969 -0.5214  0.1902  0.3942
   35POPC   O13 4657   4.600  -0.034  10.987 -0.0936  0.3787  0.1752
   35POPC   O14 4658   4.688   0.176  11.076 -0.0807 -0.5929 -0.1220
   35POPC   O12 4659   4.465   0.167  10.978 -0.3047  0.0214  0.3401
   35POPC   O11 4660   4.671   0.147  10.833 -1.1594 -0.0639  0.0072
   35POPC    C1 4661   4.618   0.098  10.706  0.1357  0.2014 -0.7707
   35POPC    HA 4662   4.525   0.152  10.680  1.2144  2.3463 -0.4383
   35POPC    HB 4663   4.606  -0.011  10.720  2.3634  0.2933  3.3351
   35POPC    C2 4664   4.722   0.119  10.596 -1.0555 -0.0354  0.0048
   35POPC    HS 4665   4.719   0.226  10.565  0.5110 -0.2884 -1.1625
   35POPC   O21 4666   4.688   0.036  10.481  0.7974 -0.0272  0.0016
   35POPC   C21 4667   4.573   0.066  10.409 -0.0865  0.6783 -0.4624
   35POPC   O22 4668   4.503   0.159  10.427 -0.1637  0.5125  0.2526
   35POPC   C22 4669   4.538  -0.044  10.307 -0.4729 -0.1007 -0.1825
   35POPC   H2R 4670   4.519  -0.128  10.377  2.6530 -0.0561  0.8713
   35POPC   H2S 4671   4.622  -0.062  10.236 -2.1505  0.0987 -2.3169
   35POPC    C3 4672   4.869   0.094  10.633 -0.5419 -0.5272  0.4556
   35POPC    HX 4673   4.860  -0.009  10.675 -0.8200 -0.4433  0.6071
   35POPC    HY 4674   4.906   0.159  10.716 -0.7598  1.2509 -0.7798
   35POPC   O31 4675   4.960   0.091  10.519  0.0866  0.0925  0.2319
   35POPC   C31 4676   4.950   0.183  10.430  0.2122 -0.3075  0.3061
   35POPC   O32 4677   4.898   0.292  10.445 -0.0688 -0.8416 -0.6121
   35POPC   C32 4678   5.010   0.138  10.297 -0.1431 -0.1305  0.1998
   35POPC   H2X 4679   5.058   0.039  10.312  0.6870  0.2001 -0.2401
   35POPC   H2Y 4680   5.068   0.228  10.266  0.0548 -0.9367 -1.9802
   35POPC   C23 4681   4.407  -0.021  10.237 -0.0639  0.4465 -0.0977
   35POPC   H3R 4682   4.338   0.019  10.315 -0.8993 -1.0135 -0.0593
   35POPC   H3S 4683   4.377  -0.119  10.195 -0.3081  0.2853  0.4428
   35POPC   C24 4684   4.409   0.067  10.104 -0.1556  0.1394 -0.3735
   35POPC   H4R 4685   4.462   0.011  10.024 -2.6107 -0.9229 -1.3321
   35POPC   H4S 4686   4.462   0.161  10.129 -0.5324  0.2042  0.2101
   35POPC   C25 4687   4.264   0.102  10.058 -0.0556 -0.3005  0.6640
   35POPC   H5R 4688   4.222   0.161  10.142 -1.2132 -0.5582  0.2769
   35POPC   H5S 4689   4.204   0.014  10.027 -0.2150 -0.1485  0.5393
   35POPC   C26 4690   4.264   0.199   9.935  0.1672  0.2076  0.1829
   35POPC   H6R 4691   4.343   0.274   9.956  0.2960 -0.4959  2.4923
   35POPC   H6S 4692   4.170   0.258   9.927  0.6171  0.8123 -0.9470
   35POPC   C27 4693   4.321   0.131   9.807  0.1312  0.5357  0.2726
   35POPC   H7R 4694   4.244   0.065   9.761 -0.4605  1.7720 -0.5632
   35POPC   H7S 4695   4.402   0.062   9.840 -0.4509 -0.2486  0.1038
   35POPC   C28 4696   4.361   0.233   9.699  1.1309  0.3794  0.0083
   35POPC   H8R 4697   4.412   0.172   9.621 -2.8228 -2.7110 -0.4848
   35POPC   H8S 4698   4.428   0.315   9.732 -0.0580  0.6664  1.8298
   35POPC   C29 4699   4.241   0.302   9.648  0.2801  0.2952  0.0765
   35POPC   H91 4700   4.172   0.340   9.725 -1.1194 -2.3644  0.2620
   35POPC  C210 4701   4.198   0.300   9.518 -0.3810 -0.4853 -0.3352
   35POPC  H101 4702   4.112   0.366   9.500  0.2626  0.9798  1.5832
   35POPC  C211 4703   4.269   0.246   9.393  0.5945  1.0518 -0.3328
   35POPC  H11R 4704   4.211   0.179   9.325  0.0271  0.6493  0.5248
   35POPC  H11S 4705   4.366   0.193   9.403  1.0347  2.0420  0.8524
   35POPC  C212 4706   4.307   0.359   9.299  0.1709 -0.0204 -0.4492
   35POPC  H12R 4707   4.380   0.431   9.342  1.6734 -1.7090 -0.0479
   35POPC  H12S 4708   4.214   0.418   9.279 -1.6013 -2.3382  0.5165
   35POPC  C213 4709   4.355   0.312   9.158 -0.6838  0.1546 -0.3630
   35POPC  H13R 4710   4.278   0.248   9.109  0.8819 -0.6951 -1.8050
   35POPC  H13S 4711   4.446   0.250   9.168 -0.7616 -0.1006 -1.1970
   35POPC  C214 4712   4.382   0.434   9.071 -0.2754 -0.3977  0.9595
   35POPC  H14R 4713   4.437   0.507   9.133  1.9225 -1.5718  0.4723
   35POPC  H14S 4714   4.278   0.473   9.059 -0.2435 -0.0856  1.6994
   35POPC  C215 4715   4.447   0.407   8.932  0.0158  0.3443  0.1663
   35POPC  H15R 4716   4.387   0.338   8.869  1.0989 -0.6029  0.1369
   35POPC  H15S 4717   4.550   0.367   8.947  0.4112  0.5654 -1.7126
   35POPC  C216 4718   4.481   0.545   8.862  0.1275 -0.6463 -0.7312
   35POPC  H16R 4719   4.546   0.614   8.921 -0.7608  0.4375 -0.9750
   35POPC  H16S 4720   4.393   0.612   8.854  0.8173  0.9794  3.0841
   35POPC  C217 4721   4.552   0.540   8.722 -0.6478  0.1805 -1.3235
   35POPC  H17R 4722   4.631   0.462   8.715 -1.3219 -0.5552 -0.9337
   35POPC  H17S 4723   4.598   0.638   8.700  1.3093 -1.1230 -3.4099
   35POPC  C218 4724   4.454   0.521   8.609  0.4239 -0.3068 -0.0565
   35POPC  H18R 4725   4.364   0.586   8.615 -1.1427 -2.1083 -2.2872
   35POPC  H18S 4726   4.415   0.417   8.616 -1.5067  0.2745 -1.3557
   35POPC  H18T 4727   4.510   0.528   8.514  1.0575  2.1684  0.4306
   35POPC   C33 4728   4.907   0.122  10.173 -0.1653  0.1402 -0.6338
   35POPC   H3X 4729   4.885   0.224  10.134 -1.1947  0.5214  0.8231
   35POPC   H3Y 4730   4.816   0.074  10.215 -0.3901  1.0977  0.0190
   35POPC   C34 4731   4.970   0.049  10.054  0.7340 -0.1959 -0.0395
   35POPC   H4X 4732   4.906  -0.035  10.017  3.1593 -1.0324 -2.6769
   35POPC   H4Y 4733   5.068   0.004  10.079  0.7833  0.0078  0.1338
   35POPC   C35 4734   4.993   0.135   9.929 -0.3639 -0.2314 -0.3244
   35POPC   H5X 4735   5.078   0.091   9.874  1.0438  1.0294  0.7489
   35POPC   H5Y 4736   5.031   0.234   9.964  1.8739 -0.0320 -3.0007
   35POPC   C36 4737   4.869   0.163   9.845 -0.1343  0.5141 -0.2552
   35POPC   H6X 4738   4.906   0.243   9.778  1.1371  0.0837 -0.1007
   35POPC   H6Y 4739   4.793   0.205   9.915  0.6107  0.2354  0.7467
   35POPC   C37 4740   4.809   0.050   9.767 -0.7793 -0.2300 -0.1775
   35POPC   H7X 4741   4.741  -0.007   9.834 -1.5575  1.4572  0.5328
   35POPC   H7Y 4742   4.899  -0.009   9.741  1.0205  1.4154  1.8896
   35POPC   C38 4743   4.731   0.088   9.641  0.2433  0.1292  0.5327
   35POPC   H8X 4744   4.642   0.154   9.652  0.2863  0.1163  0.9746
   35POPC   H8Y 4745   4.685  -0.008   9.609  0.6282 -0.3603  1.4242
   35POPC   C39 4746   4.818   0.156   9.528  0.0054 -0.5106  0.8068
   35POPC   H9X 4747   4.909   0.096   9.512 -0.8716 -1.7162  0.1485
   35POPC   H9Y 4748   4.847   0.257   9.565  1.6152 -0.4467 -0.5435
   35POPC  C310 4749   4.735   0.173   9.395 -0.7096 -0.0462 -0.7026
   35POPC  H10X 4750   4.640   0.227   9.417 -0.6710 -0.1386 -0.2918
   35POPC  H10Y 4751   4.718   0.066   9.374  0.1089 -0.2410 -0.3792
   35POPC  C311 4752   4.821   0.248   9.297  0.3667  0.4859 -0.3998
   35POPC  H11X 4753   4.906   0.179   9.276  0.3715  0.6589 -0.9539
   35POPC  H11Y 4754   4.872   0.338   9.337  3.2568 -2.3207  2.9270
   35POPC  C312 4755   4.741   0.276   9.175  0.1387  0.3492  0.2012
   35POPC  H12X 4756   4.667   0.354   9.202  0.7292  1.2232 -0.6397
   35POPC  H12Y 4757   4.681   0.193   9.133  0.5721  0.5524 -0.8406
   35POPC  C313 4758   4.820   0.344   9.061 -0.0773 -0.0851  0.7811
   35POPC  H13X 4759   4.896   0.401   9.119  0.7084 -1.2369  0.9188
   35POPC  H13Y 4760   4.766   0.422   9.003  0.6159 -0.3638 -0.2754
   35POPC  C314 4761   4.893   0.254   8.961 -0.0412 -0.5399  0.7465
   35POPC  H14X 4762   4.931   0.328   8.887 -0.3658 -1.7427 -0.6654
   35POPC  H14Y 4763   4.822   0.191   8.904 -0.0983 -0.2932  0.5451
   35POPC  C315 4764   4.997   0.166   9.023  1.0605  0.1528  0.4447
   35POPC  H15X 4765   4.944   0.091   9.086 -0.6131  1.7372  1.0210
   35POPC  H15Y 4766   5.060   0.229   9.089  1.3709  0.2737  0.0362
   35POPC  C316 4767   5.090   0.099   8.915 -0.4738  0.2308 -0.1021
   35POPC  H16X 4768   5.169   0.038   8.965 -1.2301 -0.1745  0.6161
   35POPC  H16Y 4769   5.136   0.177   8.850  0.8204  0.1134  0.6365
   35POPC  H16Z 4770   5.036   0.030   8.846  1.0968  1.6211 -2.9196
   36POPC     N 4771   4.810   6.410  11.197  0.4271 -0.1507  0.2814
   36POPC   C12 4772   4.792   6.392  11.045  0.2864  0.1916 -0.0727
   36POPC  H12A 4773   4.757   6.481  10.995  0.5589  0.5679  0.4045
   36POPC  H12B 4774   4.707   6.328  11.026 -0.8613  1.4331  0.6703
   36POPC   C13 4775   4.837   6.274  11.256 -0.4280 -0.1879  0.2220
   36POPC  H13A 4776   4.866   6.280  11.360  1.3027  2.1539 -0.3097
   36POPC  H13B 4777   4.762   6.197  11.243  1.0506 -1.7544  0.5608
   36POPC  H13C 4778   4.921   6.232  11.202 -1.3126 -0.1861 -1.2092
   36POPC   C14 4779   4.928   6.494  11.226  0.5569 -0.4451  0.2088
   36POPC  H14A 4780   4.980   6.439  11.303  0.0790 -0.6420  0.3931
   36POPC  H14B 4781   4.981   6.511  11.134 -0.2125 -0.9822 -0.3465
   36POPC  H14C 4782   4.893   6.589  11.265 -0.1808 -1.1678  1.3908
   36POPC   C15 4783   4.687   6.470  11.257  0.3316  0.2848 -0.0614
   36POPC  H15A 4784   4.682   6.445  11.362 -1.3315  1.7632  0.2556
   36POPC  H15B 4785   4.597   6.424  11.218 -1.1930  1.5666  1.7934
   36POPC  H15C 4786   4.675   6.577  11.245 -0.2636  0.1840 -0.4519
   36POPC   C11 4787   4.908   6.356  10.958  0.1077  0.3487 -0.1113
   36POPC  H11A 4788   4.985   6.432  10.981  0.3642 -0.2850  1.2686
   36POPC  H11B 4789   4.885   6.362  10.850 -1.8395 -2.3528  0.0485
   36POPC     P 4790   5.101   6.181  10.948  0.4495 -0.2298  0.0420
   36POPC   O13 4791   5.126   6.041  10.986 -0.2776  0.2042 -0.6245
   36POPC   O14 4792   5.200   6.282  10.989 -0.3971  0.2900 -0.0672
   36POPC   O12 4793   4.957   6.225  10.992 -0.6126  0.3128  0.8279
   36POPC   O11 4794   5.087   6.192  10.794  0.4470  0.0171 -0.5468
   36POPC    C1 4795   4.982   6.124  10.723 -0.3397 -0.3678 -0.5693
   36POPC    HA 4796   4.878   6.144  10.757 -0.1473  0.6249 -0.5338
   36POPC    HB 4797   5.011   6.017  10.726 -0.1849 -0.3054  0.8623
   36POPC    C2 4798   4.980   6.177  10.576  1.0266 -0.2760 -0.0485
   36POPC    HS 4799   5.082   6.155  10.535  1.8424 -1.7517  2.5525
   36POPC   O21 4800   4.952   6.320  10.585 -0.1050  0.0859 -0.4202
   36POPC   C21 4801   5.021   6.393  10.511 -0.3527  0.3671  0.3709
   36POPC   O22 4802   5.119   6.362  10.447 -0.6719  0.3292  0.5175
   36POPC   C22 4803   4.971   6.538  10.508 -0.6387 -0.3266  0.4220
   36POPC   H2R 4804   5.026   6.586  10.424 -0.0312  1.2982  1.6925
   36POPC   H2S 4805   5.012   6.586  10.599 -0.5153 -0.6029  0.5136
   36POPC    C3 4806   4.869   6.101  10.497 -0.7687 -0.3342  0.2542
   36POPC    HX 4807   4.775   6.139  10.540  0.7469  1.3644  2.2597
   36POPC    HY 4808   4.888   5.991  10.501 -0.0186 -0.1745  1.8460
   36POPC   O31 4809   4.884   6.147  10.364 -0.2836  0.2473  0.1435
   36POPC   C31 4810   4.976   6.094  10.283 -0.7951 -0.1065 -0.4871
   36POPC   O32 4811   5.054   6.008  10.314 -0.4392  0.3105 -0.1985
   36POPC   C32 4812   4.972   6.151  10.147 -0.2865 -0.5551 -0.1826
   36POPC   H2X 4813   5.054   6.223  10.128  0.7551 -2.0318 -1.5343
   36POPC   H2Y 4814   4.876   6.207  10.143 -0.7250 -1.2975 -0.1823
   36POPC   C23 4815   4.814   6.540  10.494 -0.4453 -0.1702  0.2257
   36POPC   H3R 4816   4.783   6.647  10.500  0.2062 -0.0183  1.0950
   36POPC   H3S 4817   4.774   6.480  10.578 -0.2564 -2.4894 -1.2536
   36POPC   C24 4818   4.765   6.476  10.363  0.0269  0.4964  0.3272
   36POPC   H4R 4819   4.656   6.498  10.357 -0.6942 -2.8301 -1.8245
   36POPC   H4S 4820   4.765   6.368  10.389 -0.0323 -0.4716 -3.1752
   36POPC   C25 4821   4.849   6.514  10.244 -0.5418  0.2543 -0.1428
   36POPC   H5R 4822   4.947   6.465  10.229 -0.2109  0.7908  0.2314
   36POPC   H5S 4823   4.864   6.624  10.231 -0.2215  0.0911 -1.2703
   36POPC   C26 4824   4.772   6.474  10.111 -0.1503  0.1130 -0.2011
   36POPC   H6R 4825   4.721   6.378  10.134  1.2243 -0.2961  1.3883
   36POPC   H6S 4826   4.842   6.463  10.026 -0.3801  2.8280 -0.8323
   36POPC   C27 4827   4.670   6.574  10.071 -0.6960 -0.2792 -0.1156
   36POPC   H7R 4828   4.711   6.676  10.083 -1.1112  0.1087 -1.6929
   36POPC   H7S 4829   4.572   6.558  10.121  0.0923 -0.5703  1.3693
   36POPC   C28 4830   4.636   6.562   9.915  0.3307  0.2218  0.3214
   36POPC   H8R 4831   4.729   6.577   9.857  0.1629  1.6722  0.4003
   36POPC   H8S 4832   4.575   6.652   9.890  1.0024  0.9490  1.2201
   36POPC   C29 4833   4.574   6.434   9.876  0.4119 -0.1825  0.2915
   36POPC   H91 4834   4.503   6.394   9.950  0.7482 -2.6576 -0.6498
   36POPC  C210 4835   4.588   6.364   9.758 -0.0370 -0.7435  0.0624
   36POPC  H101 4836   4.537   6.269   9.735 -2.0076  0.2099  0.2516
   36POPC  C211 4837   4.680   6.397   9.642  0.0271 -0.0363  0.0287
   36POPC  H11R 4838   4.690   6.300   9.589 -3.3529 -1.7926  2.2527
   36POPC  H11S 4839   4.777   6.434   9.683  0.6165  0.0962 -1.4141
   36POPC  C212 4840   4.639   6.521   9.552 -0.3023  0.5138  0.3389
   36POPC  H12R 4841   4.621   6.612   9.614 -1.0191  1.7881 -1.6538
   36POPC  H12S 4842   4.534   6.501   9.520  0.6811 -0.7901 -2.3346
   36POPC  C213 4843   4.732   6.551   9.431  0.1708  0.0256 -0.0916
   36POPC  H13R 4844   4.840   6.567   9.454  0.3773  0.3085 -1.1723
   36POPC  H13S 4845   4.708   6.652   9.390  2.9041  1.9825  2.6261
   36POPC  C214 4846   4.718   6.441   9.325 -0.2891 -0.0193 -0.1447
   36POPC  H14R 4847   4.609   6.434   9.306 -0.3040 -0.7049  0.1648
   36POPC  H14S 4848   4.747   6.350   9.383 -0.6529  0.4108  0.7356
   36POPC  C215 4849   4.809   6.456   9.197 -0.5805  0.3835 -0.1343
   36POPC  H15R 4850   4.914   6.477   9.227 -0.9545 -1.1892  2.6651
   36POPC  H15S 4851   4.761   6.540   9.142 -0.3021  0.4640 -0.2536
   36POPC  C216 4852   4.798   6.338   9.105  0.6226  0.1008 -0.4311
   36POPC  H16R 4853   4.695   6.331   9.062  0.4861 -0.8691  0.0384
   36POPC  H16S 4854   4.817   6.244   9.160 -0.1199  0.2031  0.0149
   36POPC  C217 4855   4.894   6.345   8.985  0.5073 -0.5862 -0.4610
   36POPC  H17R 4856   4.885   6.249   8.930  1.3795 -0.5503 -0.6791
   36POPC  H17S 4857   4.993   6.348   9.036 -0.2881  0.9069  1.1279
   36POPC  C218 4858   4.889   6.471   8.897 -0.0588 -0.8400  0.5420
   36POPC  H18R 4859   4.919   6.562   8.955 -0.2367 -0.0818 -0.5274
   36POPC  H18S 4860   4.796   6.488   8.840  0.9282 -0.1788 -0.9254
   36POPC  H18T 4861   4.973   6.450   8.828 -0.7140 -0.2066 -0.4661
   36POPC   C33 4862   4.966   6.040  10.049 -0.0005  1.2514  0.1536
   36POPC   H3X 4863   4.926   5.941  10.078  1.3189  1.0729  1.5262
   36POPC   H3Y 4864   5.073   6.018  10.025  0.1989 -0.7570  2.5775
   36POPC   C34 4865   4.911   6.090   9.910  0.3308 -0.1468 -0.2458
   36POPC   H4X 4866   4.971   6.174   9.868  0.8846 -0.6850 -0.5494
   36POPC   H4Y 4867   4.809   6.128   9.933 -0.0207 -0.4185 -1.3124
   36POPC   C35 4868   4.911   5.985   9.802 -0.6977  0.1992  0.4366
   36POPC   H5X 4869   4.891   5.888   9.852 -0.8698 -1.1848 -2.1289
   36POPC   H5Y 4870   5.015   5.984   9.764 -1.1520 -2.6995 -1.0826
   36POPC   C36 4871   4.807   6.024   9.697  0.8570  0.6341 -0.2138
   36POPC   H6X 4872   4.808   6.132   9.672 -3.0832  0.3349 -2.3805
   36POPC   H6Y 4873   4.706   6.004   9.738  1.8867 -1.7945  1.4280
   36POPC   C37 4874   4.829   5.959   9.559  0.2622 -0.9632 -0.3378
   36POPC   H7X 4875   4.822   5.849   9.575 -1.8067 -0.7601  0.4639
   36POPC   H7Y 4876   4.930   5.994   9.528  0.6543  0.3247  2.1319
   36POPC   C38 4877   4.716   5.991   9.468 -0.3881  0.1292  0.5865
   36POPC   H8X 4878   4.703   6.100   9.454 -0.2747 -0.0274 -0.8186
   36POPC   H8Y 4879   4.623   5.945   9.508 -0.6561 -0.6621 -0.8651
   36POPC   C39 4880   4.739   5.929   9.325  0.1945 -0.3183 -0.2442
   36POPC   H9X 4881   4.778   5.826   9.340 -4.2801 -2.2438 -0.2714
   36POPC   H9Y 4882   4.818   5.979   9.265 -0.4014  1.8684  0.6781
   36POPC  C310 4883   4.607   5.919   9.241 -0.1254  0.6648 -0.0078
   36POPC  H10X 4884   4.546   6.011   9.231  1.1835  2.2234  4.2700
   36POPC  H10Y 4885   4.538   5.854   9.298  0.0467  0.5411  0.0621
   36POPC  C311 4886   4.645   5.851   9.107  0.3973 -0.1726 -0.3092
   36POPC  H11X 4887   4.663   5.744   9.133 -0.6806 -0.1410  0.6808
   36POPC  H11Y 4888   4.728   5.911   9.065  0.3627  0.7607  0.8773
   36POPC  C312 4889   4.536   5.845   8.996  0.6561  0.5074  0.8945
   36POPC  H12X 4890   4.568   5.792   8.903 -2.2216 -1.2425  0.7842
   36POPC  H12Y 4891   4.514   5.950   8.965 -0.4444  0.4957  1.5541
   36POPC  C313 4892   4.402   5.781   9.040  0.1452 -0.3540  0.4622
   36POPC  H13X 4893   4.318   5.810   8.972  0.3046  1.8792  1.1234
   36POPC  H13Y 4894   4.383   5.830   9.138 -0.5216 -0.1541  0.2457
   36POPC  C314 4895   4.413   5.627   9.072 -0.2917 -0.3069  0.3618
   36POPC  H14X 4896   4.461   5.623   9.172 -3.0045 -1.1730  1.7188
   36POPC  H14Y 4897   4.484   5.594   8.993 -0.7292  0.5108 -0.3979
   36POPC  C315 4898   4.278   5.561   9.093  0.3045  0.4195 -0.7609
   36POPC  H15X 4899   4.219   5.625   9.162  2.8975  3.3229 -1.0571
   36POPC  H15Y 4900   4.291   5.463   9.144  1.0610  1.5405  1.2823
   36POPC  C316 4901   4.204   5.548   8.958  0.0266  0.4689  0.5866
   36POPC  H16X 4902   4.228   5.636   8.894  0.5352  0.7441  1.1540
   36POPC  H16Y 4903   4.097   5.520   8.963  0.0272  0.2107 -0.5105
   36POPC  H16Z 4904   4.252   5.463   8.904  0.8637 -0.8424  3.2541
   37POPC     N 4905   2.251   1.347   6.121  0.2393  0.3873 -0.4536
   37POPC   C12 4906   2.178   1.444   6.217 -0.1950  0.1523 -0.5852
   37POPC  H12A 4907   2.072   1.442   6.199 -0.8229 -0.2837  2.5779
   37POPC  H12B 4908   2.212   1.543   6.192  1.7320 -0.3567 -0.2008
   37POPC   C13 4909   2.394   1.353   6.148  0.1581  0.3379 -0.4705
   37POPC  H13A 4910   2.411   1.333   6.253  1.1199  1.9072 -0.2889
   37POPC  H13B 4911   2.438   1.278   6.084  0.9857  2.1398 -2.1083
   37POPC  H13C 4912   2.453   1.442   6.130  0.2329  0.9153  2.1488
   37POPC   C14 4913   2.197   1.210   6.155  0.2287 -0.6518  0.4285
   37POPC  H14A 4914   2.196   1.136   6.077  0.1080  1.3202 -1.5289
   37POPC  H14B 4915   2.236   1.177   6.250  1.1282  1.6310  0.9192
   37POPC  H14C 4916   2.093   1.233   6.171  0.7400  2.1014  0.3701
   37POPC   C15 4917   2.220   1.385   5.978 -0.1775 -0.5823  0.2263
   37POPC  H15A 4918   2.113   1.377   5.969 -0.1735  0.2234 -0.7072
   37POPC  H15B 4919   2.263   1.314   5.910  1.5485  0.3578  0.2814
   37POPC  H15C 4920   2.254   1.481   5.943 -0.3590  0.2827  2.2580
   37POPC   C11 4921   2.194   1.413   6.368 -0.6461  0.2474 -0.5540
   37POPC  H11A 4922   2.169   1.307   6.389 -1.5480  0.5777  0.0956
   37POPC  H11B 4923   2.119   1.475   6.422 -1.6515  0.1097 -1.7564
   37POPC     P 4924   2.372   1.591   6.437  0.0067 -0.5168  0.1364
   37POPC   O13 4925   2.360   1.665   6.308 -0.1155 -0.1814 -0.2233
   37POPC   O14 4926   2.504   1.589   6.500 -0.0505  0.2258  0.2497
   37POPC   O12 4927   2.323   1.442   6.417  0.2537 -0.6231 -0.2416
   37POPC   O11 4928   2.274   1.648   6.542 -0.1344  0.1282  0.0945
   37POPC    C1 4929   2.246   1.580   6.668  0.0003 -0.7067 -0.1820
   37POPC    HA 4930   2.330   1.601   6.738 -1.1324 -0.0879  1.0423
   37POPC    HB 4931   2.239   1.470   6.658  1.3713 -0.7496 -0.9687
   37POPC    C2 4932   2.127   1.646   6.734  0.4481  0.5263  0.1596
   37POPC    HS 4933   2.161   1.745   6.769  3.1110  0.1192 -1.0003
   37POPC   O21 4934   2.083   1.566   6.839  0.0277  0.4636  0.3108
   37POPC   C21 4935   2.039   1.610   6.951  0.0719 -0.4534  0.4385
   37POPC   O22 4936   2.020   1.726   6.977 -0.3880 -0.2070 -0.5596
   37POPC   C22 4937   1.995   1.504   7.049  0.3593  0.6966 -0.6558
   37POPC   H2R 4938   1.897   1.472   7.008  0.6059 -0.4548 -0.3743
   37POPC   H2S 4939   1.969   1.554   7.144  3.0570 -1.8793  1.6456
   37POPC    C3 4940   2.011   1.671   6.631  0.3292  0.4806  0.2690
   37POPC    HX 4941   1.977   1.574   6.590  2.0016 -0.2579  0.5511
   37POPC    HY 4942   2.050   1.726   6.543  0.0347  0.5530  0.1823
   37POPC   O31 4943   1.903   1.757   6.684 -0.0122 -0.2655 -0.2651
   37POPC   C31 4944   1.796   1.687   6.708  0.2336 -0.0615 -0.7217
   37POPC   O32 4945   1.785   1.569   6.714  0.1066  0.1742 -0.4499
   37POPC   C32 4946   1.677   1.784   6.700 -0.2469 -0.1321 -0.3698
   37POPC   H2X 4947   1.663   1.820   6.596  1.2522  3.0291  0.4035
   37POPC   H2Y 4948   1.708   1.869   6.765  1.1933 -0.5465 -0.5005
   37POPC   C23 4949   2.099   1.392   7.092  0.6881  0.6103  0.4324
   37POPC   H3R 4950   2.193   1.437   7.128  3.1331 -2.4028 -1.6128
   37POPC   H3S 4951   2.128   1.349   6.993 -0.3116  0.2522  0.2847
   37POPC   C24 4952   2.052   1.278   7.192  0.0817 -0.7389  1.0022
   37POPC   H4R 4953   2.139   1.209   7.195  1.0112  0.3972  1.0245
   37POPC   H4S 4954   1.963   1.221   7.159 -0.0366 -0.1991  0.3622
   37POPC   C25 4955   2.035   1.335   7.334 -0.0634  0.3113 -0.4297
   37POPC   H5R 4956   1.936   1.383   7.343 -1.9183 -3.0229 -1.2766
   37POPC   H5S 4957   2.119   1.404   7.356 -0.2577  0.5028 -0.2923
   37POPC   C26 4958   2.045   1.231   7.449 -0.6479 -0.4448 -0.1202
   37POPC   H6R 4959   2.146   1.184   7.451 -1.4546 -2.2232  1.2388
   37POPC   H6S 4960   1.975   1.151   7.417  0.3010 -0.8918 -1.1514
   37POPC   C27 4961   2.003   1.275   7.585  0.4151 -0.9487  0.4605
   37POPC   H7R 4962   1.922   1.349   7.565  1.5960  0.1644 -0.3222
   37POPC   H7S 4963   2.087   1.334   7.627 -0.8988  0.3926  1.3143
   37POPC   C28 4964   1.965   1.162   7.684 -0.4314 -0.8144 -0.2491
   37POPC   H8R 4965   2.050   1.090   7.692 -0.0848 -0.2809  1.2202
   37POPC   H8S 4966   1.888   1.097   7.637 -0.8792  1.3000 -2.5821
   37POPC   C29 4967   1.923   1.218   7.817 -0.7265  0.1832 -0.2920
   37POPC   H91 4968   1.826   1.267   7.800 -0.5783  1.0989  1.3501
   37POPC  C210 4969   1.977   1.204   7.939  0.2602 -0.2555 -0.1384
   37POPC  H101 4970   1.917   1.244   8.023  0.7459  3.7400 -1.4947
   37POPC  C211 4971   2.100   1.128   7.979 -0.3003  0.3842  0.2398
   37POPC  H11R 4972   2.171   1.190   8.038  2.8680  0.2001 -3.0222
   37POPC  H11S 4973   2.153   1.096   7.887 -3.8341 -0.0264 -1.8373
   37POPC  C212 4974   2.071   0.997   8.058  0.6648  0.2018  0.2843
   37POPC  H12R 4975   2.038   0.926   7.979  1.0891  0.4560 -0.1284
   37POPC  H12S 4976   1.982   0.999   8.125 -0.7347 -1.6151 -1.3852
   37POPC  C213 4977   2.191   0.942   8.137  0.0220 -0.1583  0.7953
   37POPC  H13R 4978   2.222   1.011   8.217  0.8411  0.4450 -0.0288
   37POPC  H13S 4979   2.281   0.935   8.073 -0.0953  1.1963  0.4684
   37POPC  C214 4980   2.181   0.804   8.191 -0.1192  0.3374 -0.2860
   37POPC  H14R 4981   2.159   0.740   8.103  0.1276  1.5528 -1.2538
   37POPC  H14S 4982   2.092   0.817   8.256 -0.5317  1.0147 -0.9815
   37POPC  C215 4983   2.303   0.761   8.273  0.1857  0.2463  0.1540
   37POPC  H15R 4984   2.271   0.713   8.368 -0.7751 -0.5635 -0.5541
   37POPC  H15S 4985   2.375   0.842   8.298  1.3959 -0.9021  0.5690
   37POPC  C216 4986   2.409   0.677   8.200 -0.1940 -0.0157  0.3730
   37POPC  H16R 4987   2.348   0.640   8.114  0.5148  3.5826 -1.8825
   37POPC  H16S 4988   2.440   0.591   8.263 -2.1835 -0.2229  1.1387
   37POPC  C217 4989   2.529   0.760   8.141 -0.6151  0.0590  0.3592
   37POPC  H17R 4990   2.472   0.846   8.101 -0.6129  0.1612  0.5732
   37POPC  H17S 4991   2.576   0.710   8.054 -2.7408  1.8732 -1.9856
   37POPC  C218 4992   2.640   0.819   8.231 -0.2385  0.0887  0.5063
   37POPC  H18R 4993   2.694   0.905   8.186 -2.7547  1.2804 -0.5010
   37POPC  H18S 4994   2.709   0.735   8.252  1.8087  1.4058 -0.5979
   37POPC  H18T 4995   2.594   0.851   8.327  0.6401 -0.1604  1.0155
   37POPC   C33 4996   1.547   1.716   6.747  0.1976 -0.1749  0.2537
   37POPC   H3X 4997   1.538   1.619   6.695  0.9953  0.5636 -1.3225
   37POPC   H3Y 4998   1.466   1.786   6.717  0.0858  0.6772  2.3643
   37POPC   C34 4999   1.535   1.717   6.900 -0.1943 -0.3671  0.3470
   37POPC   H4X 5000   1.440   1.662   6.914  0.7632 -2.0295  0.6600
   37POPC   H4Y 5001   1.529   1.822   6.935  2.4975 -0.5451  1.6113
   37POPC   C35 5002   1.645   1.640   6.981 -0.1940  1.0206 -0.0420
   37POPC   H5X 5003   1.740   1.695   6.990 -1.5923  3.4775  0.6134
   37POPC   H5Y 5004   1.660   1.545   6.926  0.4247  1.8006 -1.2468
   37POPC   C36 5005   1.609   1.622   7.130 -0.2302  0.1624  0.2576
   37POPC   H6X 5006   1.676   1.545   7.173  0.6045  0.5669 -0.2997
   37POPC   H6Y 5007   1.505   1.583   7.143 -0.8801  0.5321 -2.9476
   37POPC   C37 5008   1.615   1.745   7.210 -0.2655 -1.0347 -0.9395
   37POPC   H7X 5009   1.545   1.827   7.183 -0.1937 -1.0594 -1.2052
   37POPC   H7Y 5010   1.720   1.782   7.206 -0.7522  0.4312 -0.8577
   37POPC   C38 5011   1.591   1.703   7.355 -0.3757 -0.1273 -0.4333
   37POPC   H8X 5012   1.671   1.630   7.381 -1.3983 -1.3627 -0.6178
   37POPC   H8Y 5013   1.506   1.636   7.380 -0.8444  1.4949  2.9206
   37POPC   C39 5014   1.590   1.828   7.452  0.4778 -0.0586 -0.3181
   37POPC   H9X 5015   1.506   1.894   7.423  0.7352  0.0727 -0.7727
   37POPC   H9Y 5016   1.685   1.885   7.443  0.2301  0.2953 -0.7156
   37POPC  C310 5017   1.583   1.768   7.598 -0.4387  0.5167 -0.6971
   37POPC  H10X 5018   1.635   1.670   7.609 -2.8016 -0.6255  1.1094
   37POPC  H10Y 5019   1.480   1.739   7.626  0.6962 -0.2423  3.2525
   37POPC  C311 5020   1.624   1.862   7.710  0.3257 -0.3549  0.2362
   37POPC  H11X 5021   1.554   1.948   7.714 -0.2460 -0.7799 -0.4217
   37POPC  H11Y 5022   1.724   1.899   7.676 -0.0236 -1.0824 -1.6887
   37POPC  C312 5023   1.632   1.799   7.845  0.0452  0.5140 -0.2350
   37POPC  H12X 5024   1.664   1.693   7.829  0.5635  0.4980  0.8521
   37POPC  H12Y 5025   1.537   1.796   7.902 -0.3428 -0.6744 -0.8911
   37POPC  C313 5026   1.729   1.874   7.939  0.0773  0.3410  0.4264
   37POPC  H13X 5027   1.821   1.852   7.880 -0.4616 -0.0477 -0.2831
   37POPC  H13Y 5028   1.744   1.821   8.036 -1.6525 -1.2566 -0.1222
   37POPC  C314 5029   1.717   2.023   7.959  0.1964  0.3237  0.1573
   37POPC  H14X 5030   1.758   2.078   7.872 -0.5469  1.4964  0.5129
   37POPC  H14Y 5031   1.771   2.051   8.053  0.6394  0.8715 -0.2548
   37POPC  C315 5032   1.572   2.073   7.991  0.4139  0.3099 -0.1943
   37POPC  H15X 5033   1.553   2.041   8.096  0.8131  0.8347  0.0448
   37POPC  H15Y 5034   1.501   2.023   7.922  0.5550 -3.4548  2.1042
   37POPC  C316 5035   1.553   2.223   7.991  0.7530 -0.2260 -0.0189
   37POPC  H16X 5036   1.553   2.259   7.886 -0.3844  0.5287  0.2173
   37POPC  H16Y 5037   1.633   2.284   8.038  0.9211  0.4147 -1.1087
   37POPC  H16Z 5038   1.455   2.246   8.039  1.1340 -0.6105  0.9723
   38POPC     N 5039   4.222   5.330   6.256  0.2559 -0.5136  0.0225
   38POPC   C12 5040   4.237   5.265   6.387 -0.7925 -0.4587 -0.1029
   38POPC  H12A 5041   4.183   5.326   6.458  3.6609  2.0448  1.5560
   38POPC  H12B 5042   4.340   5.270   6.419 -0.3162 -1.1286 -1.4677
   38POPC   C13 5043   4.279   5.465   6.261 -0.3057  0.2678  0.4195
   38POPC  H13A 5044   4.378   5.468   6.305 -1.0193  0.4251  2.0994
   38POPC  H13B 5045   4.287   5.502   6.160 -0.9371  1.0290  0.6396
   38POPC  H13C 5046   4.211   5.536   6.306 -0.8358  1.9156 -2.7420
   38POPC   C14 5047   4.296   5.258   6.156 -0.3252  0.4349  0.2779
   38POPC  H14A 5048   4.267   5.155   6.137  0.0164 -0.2247  2.8910
   38POPC  H14B 5049   4.310   5.304   6.059  0.5113 -1.5119 -0.5918
   38POPC  H14C 5050   4.397   5.240   6.191 -0.5757  0.0733  0.8320
   38POPC   C15 5051   4.075   5.333   6.210 -0.0707 -0.2241 -0.1118
   38POPC  H15A 5052   4.057   5.385   6.117 -1.1152 -1.4024 -0.5966
   38POPC  H15B 5053   4.017   5.390   6.281  0.1248  1.6437 -1.3887
   38POPC  H15C 5054   4.019   5.241   6.203 -0.9218  0.2119  0.8064
   38POPC   C11 5055   4.189   5.113   6.399  0.0267  0.5746 -0.0812
   38POPC  H11A 5056   4.092   5.101   6.345  0.5823 -0.6156 -0.8515
   38POPC  H11B 5057   4.175   5.087   6.506  0.2814 -2.7088 -0.7100
   38POPC     P 5058   4.257   4.870   6.333 -0.2578 -0.1317 -0.1017
   38POPC   O13 5059   4.371   4.817   6.252 -0.0702 -1.0193  0.0082
   38POPC   O14 5060   4.123   4.853   6.286  0.5731 -0.1340 -0.1916
   38POPC   O12 5061   4.290   5.023   6.336 -0.1053 -0.7817  0.1435
   38POPC   O11 5062   4.270   4.823   6.484 -0.3243 -0.6455 -0.1127
   38POPC    C1 5063   4.392   4.839   6.552  0.0816 -0.9721 -0.4646
   38POPC    HA 5064   4.359   4.873   6.653  1.5554  1.4606 -0.7251
   38POPC    HB 5065   4.450   4.924   6.510 -1.2914  0.3309  0.1672
   38POPC    C2 5066   4.481   4.719   6.564  0.2170  0.3517  0.7164
   38POPC    HS 5067   4.442   4.647   6.489 -0.9487 -1.7633  3.2052
   38POPC   O21 5068   4.472   4.666   6.699  0.2060 -0.2705 -0.1283
   38POPC   C21 5069   4.502   4.545   6.715 -0.2340  0.5623 -0.0319
   38POPC   O22 5070   4.520   4.466   6.622 -0.6809  0.4014  0.7486
   38POPC   C22 5071   4.511   4.528   6.871 -0.1668 -0.7495  0.0885
   38POPC   H2R 5072   4.416   4.485   6.910  0.3724 -0.8412  1.3298
   38POPC   H2S 5073   4.541   4.622   6.921  4.2112 -1.1841 -1.3064
   38POPC    C3 5074   4.633   4.739   6.531 -0.6235  0.5134 -0.5455
   38POPC    HX 5075   4.643   4.780   6.428 -1.6725  1.2530 -0.3708
   38POPC    HY 5076   4.680   4.639   6.523 -0.8671  0.4173 -0.7703
   38POPC   O31 5077   4.703   4.816   6.633  0.0815 -0.0085 -0.4120
   38POPC   C31 5078   4.784   4.761   6.719 -0.4826  1.1723 -0.1249
   38POPC   O32 5079   4.813   4.641   6.724  0.3446  0.3270 -0.2912
   38POPC   C32 5080   4.858   4.862   6.805 -0.4956  0.1514  0.6963
   38POPC   H2X 5081   4.925   4.923   6.740 -1.7921  0.3309 -0.5289
   38POPC   H2Y 5082   4.932   4.811   6.869  0.2001 -1.2688 -1.1384
   38POPC   C23 5083   4.614   4.418   6.915  0.0090  0.9708 -0.0078
   38POPC   H3R 5084   4.711   4.432   6.864  1.0792 -2.1002  0.9375
   38POPC   H3S 5085   4.569   4.327   6.871  2.2652 -0.2409  0.0213
   38POPC   C24 5086   4.635   4.430   7.066 -0.7130  0.8246 -0.2132
   38POPC   H4R 5087   4.538   4.447   7.118 -0.4878  0.4165  0.3583
   38POPC   H4S 5088   4.695   4.522   7.084  0.0233  0.2917  0.1284
   38POPC   C25 5089   4.711   4.315   7.132  0.1908  0.4275 -0.3750
   38POPC   H5R 5090   4.808   4.293   7.081  1.2942  0.1836  1.7391
   38POPC   H5S 5091   4.650   4.222   7.138 -0.2003  0.7909  2.2968
   38POPC   C26 5092   4.766   4.357   7.272  0.1700  0.2226  0.6219
   38POPC   H6R 5093   4.676   4.356   7.338 -1.4845 -0.7400 -1.5557
   38POPC   H6S 5094   4.825   4.450   7.258  3.4197 -1.6686  0.6297
   38POPC   C27 5095   4.850   4.245   7.334 -0.7703 -0.4922 -0.4574
   38POPC   H7R 5096   4.954   4.250   7.297 -0.9145  0.0424 -0.7950
   38POPC   H7S 5097   4.801   4.149   7.304 -0.3200 -0.8777  0.0121
   38POPC   C28 5098   4.847   4.244   7.483  0.5290 -0.3158 -0.3448
   38POPC   H8R 5099   4.892   4.145   7.506  2.7390  0.5750 -0.5998
   38POPC   H8S 5100   4.740   4.248   7.513  0.5424  2.1776 -0.4310
   38POPC   C29 5101   4.925   4.363   7.537  0.3296  0.7396  0.1788
   38POPC   H91 5102   5.032   4.352   7.513 -0.1703  0.2765 -2.0874
   38POPC  C210 5103   4.885   4.471   7.601 -0.2646 -0.2909 -0.1005
   38POPC  H101 5104   4.952   4.551   7.637 -2.6197  1.2898  1.0029
   38POPC  C211 5105   4.744   4.502   7.639  0.3085  0.0722 -0.3119
   38POPC  H11R 5106   4.679   4.456   7.562  0.5148 -1.0349  0.1644
   38POPC  H11S 5107   4.730   4.612   7.645  1.6003  0.1975  0.9753
   38POPC  C212 5108   4.703   4.430   7.778 -0.0622 -0.4173  0.3503
   38POPC  H12R 5109   4.705   4.319   7.772 -1.2088 -0.5338  1.6549
   38POPC  H12S 5110   4.594   4.448   7.796 -0.7186 -1.6580 -1.9740
   38POPC  C213 5111   4.787   4.481   7.898 -0.1474 -0.8498  0.4967
   38POPC  H13R 5112   4.729   4.574   7.920  0.6084  0.1204 -1.4345
   38POPC  H13S 5113   4.889   4.508   7.864 -0.4688 -0.1886  0.0212
   38POPC  C214 5114   4.795   4.375   8.014 -0.0006 -0.0393 -0.1349
   38POPC  H14R 5115   4.833   4.280   7.969 -1.0586 -0.8997  0.7074
   38POPC  H14S 5116   4.693   4.353   8.055  0.6230  1.4128  2.4227
   38POPC  C215 5117   4.887   4.422   8.128  0.2986  0.1270  0.1037
   38POPC  H15R 5118   4.849   4.488   8.209  0.3309  0.8534 -0.4622
   38POPC  H15S 5119   4.963   4.483   8.076  2.0412 -1.4785  0.6559
   38POPC  C216 5120   4.963   4.303   8.186  0.0343  0.3660 -0.4848
   38POPC  H16R 5121   5.008   4.245   8.102 -1.8961  0.6598 -1.7766
   38POPC  H16S 5122   4.886   4.236   8.231 -0.1803  0.6538 -0.4246
   38POPC  C217 5123   5.062   4.337   8.299  0.5224 -0.7313 -0.3821
   38POPC  H17R 5124   5.007   4.346   8.395  0.8257 -3.4718  0.1372
   38POPC  H17S 5125   5.111   4.435   8.280  0.9163 -0.7726  0.3707
   38POPC  C218 5126   5.172   4.224   8.317 -0.0060 -1.1242 -0.0819
   38POPC  H18R 5127   5.251   4.248   8.392  0.6153  0.3952 -1.1418
   38POPC  H18S 5128   5.228   4.213   8.221 -0.1198  1.1010 -0.4619
   38POPC  H18T 5129   5.121   4.129   8.340  0.2402 -1.5614 -1.2813
   38POPC   C33 5130   4.758   4.955   6.868  0.4580  0.5526  0.5165
   38POPC   H3X 5131   4.677   4.991   6.802  1.1816  0.0878 -0.6546
   38POPC   H3Y 5132   4.801   5.056   6.887  0.3095  0.3716  1.9351
   38POPC   C34 5133   4.718   4.907   7.010 -0.7249  0.4121 -0.2817
   38POPC   H4X 5134   4.812   4.902   7.070 -1.1040 -1.6023  0.1940
   38POPC   H4Y 5135   4.674   4.806   6.995  0.2039  0.1400 -1.3741
   38POPC   C35 5136   4.631   5.011   7.092  0.4100 -0.4981  0.2512
   38POPC   H5X 5137   4.546   5.046   7.030  1.3390  0.2163 -0.6481
   38POPC   H5Y 5138   4.692   5.101   7.116  0.2431 -0.7586  1.7483
   38POPC   C36 5139   4.577   4.967   7.230 -0.8459 -0.1046  0.1498
   38POPC   H6X 5140   4.538   4.863   7.228 -0.2897 -0.3322  0.6875
   38POPC   H6Y 5141   4.503   5.040   7.270 -0.8400 -0.1030  0.1581
   38POPC   C37 5142   4.691   4.949   7.341  0.0215  0.2929  0.2516
   38POPC   H7X 5143   4.735   5.049   7.361  0.1565  0.2579  0.1340
   38POPC   H7Y 5144   4.769   4.882   7.298 -0.2891 -0.9022  1.4636
   38POPC   C38 5145   4.649   4.883   7.474  0.8906 -0.0282 -0.5241
   38POPC   H8X 5146   4.740   4.861   7.534 -0.7978 -1.4071  1.6865
   38POPC   H8Y 5147   4.580   4.796   7.466 -3.6727  3.1857 -0.2764
   38POPC   C39 5148   4.569   4.981   7.561  0.5370 -0.0079 -0.6452
   38POPC   H9X 5149   4.486   5.023   7.501  0.2407 -1.0988 -1.0382
   38POPC   H9Y 5150   4.630   5.055   7.615 -1.0069 -0.1642  1.4337
   38POPC  C310 5151   4.490   4.916   7.677  0.2193  0.4138 -1.0687
   38POPC  H10X 5152   4.425   4.832   7.646 -1.1557  0.8921  0.3652
   38POPC  H10Y 5153   4.413   4.987   7.715 -0.8043 -1.0499 -0.3225
   38POPC  C311 5154   4.563   4.890   7.811 -0.0728  0.1403 -0.1426
   38POPC  H11X 5155   4.624   4.982   7.825  0.4734 -0.5202  2.1212
   38POPC  H11Y 5156   4.641   4.812   7.801  2.7329  2.5932  0.9881
   38POPC  C312 5157   4.470   4.870   7.928 -0.6236  0.1661 -0.0412
   38POPC  H12X 5158   4.397   4.952   7.914  3.5523  4.1617 -0.9285
   38POPC  H12Y 5159   4.535   4.891   8.015 -0.2130 -0.6797 -0.1275
   38POPC  C313 5160   4.422   4.721   7.940  0.1835 -0.4858 -0.2882
   38POPC  H13X 5161   4.502   4.653   7.978  0.2383 -0.8292 -0.9930
   38POPC  H13Y 5162   4.386   4.696   7.837 -0.5973  0.2300 -0.1948
   38POPC  C314 5163   4.298   4.713   8.033  0.0966 -0.0009  0.6954
   38POPC  H14X 5164   4.242   4.620   8.011  1.0859 -0.5828  0.6318
   38POPC  H14Y 5165   4.225   4.793   8.007  0.0697 -0.9922 -2.6456
   38POPC  C315 5166   4.339   4.713   8.184  0.9530  0.2418  0.0377
   38POPC  H15X 5167   4.405   4.799   8.209  0.2874  1.2962 -1.6454
   38POPC  H15Y 5168   4.391   4.618   8.208  1.5757  0.5626 -0.0223
   38POPC  C316 5169   4.213   4.712   8.272  0.2462 -0.4463 -0.0629
   38POPC  H16X 5170   4.215   4.707   8.383 -2.1056 -0.4163  0.0330
   38POPC  H16Y 5171   4.153   4.624   8.241  1.0076 -1.6137  1.6308
   38POPC  H16Z 5172   4.153   4.800   8.242 -1.4398 -1.3746  0.4370
   39POPC     N 5173   0.121   0.994   6.015 -0.2285 -0.1658  0.4470
   39POPC   C12 5174   0.140   1.150   6.023 -0.0286 -0.3240  0.4215
   39POPC  H12A 5175   0.192   1.168   6.115 -0.4997  0.5379  0.5319
   39POPC  H12B 5176   0.045   1.198   6.040  0.0139 -0.1221  0.0981
   39POPC   C13 5177   0.070   0.939   6.145 -0.9435 -0.1925  1.4925
   39POPC  H13A 5178  -0.010   0.999   6.187 -2.1047 -0.1521 -0.6704
   39POPC  H13B 5179   0.038   0.838   6.123  1.9624 -0.5980 -1.7870
   39POPC  H13C 5180   0.151   0.936   6.216  1.4539  1.3788 -1.0003
   39POPC   C14 5181   0.018   0.976   5.907  0.1152 -0.3948  0.6835
   39POPC  H14A 5182   0.045   1.032   5.819  0.7310  1.3536  1.9213
   39POPC  H14B 5183   0.007   0.874   5.873 -0.8192  0.9767 -3.7885
   39POPC  H14C 5184  -0.082   1.000   5.938 -0.8672 -1.5752 -1.3496
   39POPC   C15 5185   0.255   0.932   5.980  0.0141  0.4358 -0.0101
   39POPC  H15A 5186   0.244   0.831   5.942 -2.6561 -0.2309  2.1995
   39POPC  H15B 5187   0.325   0.940   6.062  2.1595 -0.8683 -1.5863
   39POPC  H15C 5188   0.287   0.985   5.891 -2.2521  2.7655  0.4460
   39POPC   C11 5189   0.211   1.224   5.904 -0.2511  0.9424 -0.1589
   39POPC  H11A 5190   0.188   1.178   5.806 -0.8751 -1.6414  1.1141
   39POPC  H11B 5191   0.318   1.210   5.933 -0.8348 -0.6160  1.4536
   39POPC     P 5192   0.245   1.456   6.002  0.0916  0.3046  0.5418
   39POPC   O13 5193   0.227   1.590   5.949  0.2782 -0.2616  0.0926
   39POPC   O14 5194   0.382   1.410   6.021 -0.2361  0.0015 -0.1386
   39POPC   O12 5195   0.169   1.357   5.904  0.2390  0.2676 -0.5581
   39POPC   O11 5196   0.167   1.440   6.136  0.5331 -0.2528 -0.0560
   39POPC    C1 5197   0.100   1.546   6.199 -0.2282  0.1804 -0.7680
   39POPC    HA 5198   0.015   1.561   6.130 -1.9555 -2.6639  0.5943
   39POPC    HB 5199   0.163   1.637   6.213  2.4659 -1.7648  0.8200
   39POPC    C2 5200   0.056   1.493   6.340 -0.1797  0.5413 -0.1681
   39POPC    HS 5201  -0.022   1.562   6.379 -0.6744 -1.1906  2.1073
   39POPC   O21 5202   0.172   1.485   6.422  0.3231 -0.9400  0.2732
   39POPC   C21 5203   0.177   1.575   6.528  0.4824  0.0726  0.7975
   39POPC   O22 5204   0.100   1.665   6.547 -0.5188  0.6638 -0.5596
   39POPC   C22 5205   0.296   1.552   6.616 -0.1423  0.6620 -0.9273
   39POPC   H2R 5206   0.389   1.559   6.555  0.4601  2.1403  0.1094
   39POPC   H2S 5207   0.272   1.453   6.660 -1.0476  1.2271 -0.1163
   39POPC    C3 5208  -0.003   1.352   6.333 -0.1136 -0.8119  0.0796
   39POPC    HX 5209   0.071   1.282   6.290 -1.2522 -1.7515 -0.3956
   39POPC    HY 5210  -0.084   1.366   6.258  1.3620 -0.6309 -1.5474
   39POPC   O31 5211  -0.050   1.294   6.454  0.3829 -0.2478 -0.0821
   39POPC   C31 5212   0.032   1.232   6.532  0.1893 -0.0233  0.0769
   39POPC   O32 5213   0.146   1.210   6.506  0.1967 -0.0701  0.3992
   39POPC   C32 5214  -0.042   1.212   6.666 -0.0117 -0.3714 -0.0441
   39POPC   H2X 5215  -0.150   1.200   6.642  0.1574 -1.8417 -0.1657
   39POPC   H2Y 5216  -0.012   1.109   6.694 -1.1954 -0.6990  0.0548
   39POPC   C23 5217   0.300   1.659   6.728  0.2752  0.5941  0.1357
   39POPC   H3R 5218   0.323   1.757   6.681  0.6715  0.2255 -0.4596
   39POPC   H3S 5219   0.395   1.645   6.784 -0.4978 -1.9364  0.9732
   39POPC   C24 5220   0.187   1.639   6.835 -0.3900 -0.0381  0.5330
   39POPC   H4R 5221   0.179   1.537   6.879 -2.4535 -0.3782 -0.4721
   39POPC   H4S 5222   0.094   1.650   6.775  0.4333 -1.8839 -1.1974
   39POPC   C25 5223   0.196   1.757   6.939 -0.3819  0.2130 -0.3194
   39POPC   H5R 5224   0.213   1.858   6.896  0.8102 -0.6103 -1.8689
   39POPC   H5S 5225   0.292   1.738   6.990 -0.1650  0.4607 -0.6332
   39POPC   C26 5226   0.086   1.750   7.039  0.1701  0.5086 -0.3555
   39POPC   H6R 5227   0.087   1.653   7.093  3.4145  0.5641 -0.1573
   39POPC   H6S 5228  -0.008   1.754   6.980 -0.7244  0.4722  1.0132
   39POPC   C27 5229   0.085   1.859   7.146  0.0645 -0.1465 -0.0472
   39POPC   H7R 5230   0.020   1.946   7.122 -0.8826 -0.8889 -0.2222
   39POPC   H7S 5231   0.194   1.865   7.163  0.2258 -2.4349  0.0880
   39POPC   C28 5232   0.016   1.810   7.275 -0.1536 -0.7952  0.5629
   39POPC   H8R 5233   0.025   1.886   7.355 -1.0077  1.1559 -1.0931
   39POPC   H8S 5234   0.067   1.715   7.299 -1.3956 -1.5446  0.3244
   39POPC   C29 5235  -0.129   1.774   7.256  0.6542  0.0509 -0.6208
   39POPC   H91 5236  -0.173   1.779   7.156 -3.1801 -3.1342  0.6418
   39POPC  C210 5237  -0.214   1.741   7.353 -0.1964  0.0633  0.1918
   39POPC  H101 5238  -0.317   1.729   7.317 -0.5780 -1.9151  1.7599
   39POPC  C211 5239  -0.186   1.721   7.498 -0.3102  0.4576 -0.3429
   39POPC  H11R 5240  -0.076   1.725   7.516 -0.1986  2.3430 -1.2227
   39POPC  H11S 5241  -0.216   1.619   7.533 -0.6272  0.6077 -0.1739
   39POPC  C212 5242  -0.252   1.813   7.599 -0.0553  0.7438  0.0557
   39POPC  H12R 5243  -0.359   1.798   7.576  0.1383 -0.5573 -0.1147
   39POPC  H12S 5244  -0.218   1.918   7.591  0.2222  0.5524 -1.7573
   39POPC  C213 5245  -0.225   1.762   7.737 -0.3175  0.1090 -0.6499
   39POPC  H13R 5246  -0.247   1.653   7.736 -0.0515  0.0520 -0.3548
   39POPC  H13S 5247  -0.303   1.795   7.809  2.1648  1.5613  1.5341
   39POPC  C214 5248  -0.081   1.790   7.789 -0.1167  0.8584  0.3222
   39POPC  H14R 5249  -0.012   1.742   7.717  0.5238  3.2322 -0.7559
   39POPC  H14S 5250  -0.080   1.748   7.892  0.2399 -0.9802 -0.3888
   39POPC  C215 5251  -0.041   1.932   7.790 -0.2649 -0.1732  0.4321
   39POPC  H15R 5252  -0.125   1.994   7.829  1.3009  1.3824  1.4858
   39POPC  H15S 5253  -0.020   1.973   7.689 -1.2666  0.7655  0.5917
   39POPC  C216 5254   0.081   1.961   7.877  0.7830 -0.7930 -0.2959
   39POPC  H16R 5255   0.121   2.061   7.849 -3.7994  1.6889  1.0021
   39POPC  H16S 5256   0.160   1.886   7.854 -1.1765 -3.4208  0.9709
   39POPC  C217 5257   0.061   1.952   8.029  0.1884  0.2579 -0.5929
   39POPC  H17R 5258   0.030   1.848   8.051 -0.5410  0.9952  2.4590
   39POPC  H17S 5259  -0.023   2.015   8.065  0.2522 -1.0721  2.2170
   39POPC  C218 5260   0.197   1.973   8.101  0.2048 -0.4252 -0.0485
   39POPC  H18R 5261   0.273   1.924   8.036 -1.2347 -1.4955 -0.9760
   39POPC  H18S 5262   0.193   1.929   8.203  0.3599 -0.8038 -0.2065
   39POPC  H18T 5263   0.218   2.082   8.108 -1.1508  0.0799 -2.4185
   39POPC   C33 5264  -0.021   1.325   6.768 -0.4873 -0.1750 -0.6419
   39POPC   H3X 5265  -0.058   1.422   6.728  3.6729  1.7642 -0.3379
   39POPC   H3Y 5266   0.087   1.338   6.789 -0.6818  0.5739 -0.0229
   39POPC   C34 5267  -0.083   1.301   6.906  0.5943 -0.0521  0.5695
   39POPC   H4X 5268  -0.193   1.317   6.903  0.4305 -0.7471  1.9740
   39POPC   H4Y 5269  -0.046   1.389   6.962  1.5723 -0.3856  0.4732
   39POPC   C35 5270  -0.042   1.160   6.975 -0.5738 -0.4026  0.4589
   39POPC   H5X 5271   0.066   1.134   6.975 -0.9428 -2.0925  1.1983
   39POPC   H5Y 5272  -0.084   1.082   6.907  0.3724 -0.7203  0.2197
   39POPC   C36 5273  -0.075   1.145   7.126  0.4712 -0.3855  0.2944
   39POPC   H6X 5274  -0.046   1.043   7.161  2.2044  0.1452  0.5293
   39POPC   H6Y 5275  -0.185   1.147   7.137  0.6212  0.5673  1.8768
   39POPC   C37 5276  -0.020   1.262   7.207  0.1028 -0.5102  0.1541
   39POPC   H7X 5277  -0.054   1.358   7.162  1.2820  0.9703  2.2418
   39POPC   H7Y 5278   0.089   1.263   7.224 -0.1022 -0.8229  1.6212
   39POPC   C38 5279  -0.069   1.272   7.352  0.4968 -0.1058  0.2232
   39POPC   H8X 5280  -0.039   1.190   7.421  2.7527  0.2810 -0.2145
   39POPC   H8Y 5281  -0.179   1.271   7.359  0.5007  0.0642  0.3458
   39POPC   C39 5282  -0.019   1.402   7.413 -0.0634 -0.0737 -0.1899
   39POPC   H9X 5283  -0.089   1.485   7.390 -0.7338 -0.3835  0.6580
   39POPC   H9Y 5284   0.075   1.432   7.362  0.7510 -0.2383  1.1624
   39POPC  C310 5285  -0.004   1.394   7.570 -1.0347 -0.3445 -1.1405
   39POPC  H10X 5286   0.040   1.490   7.604 -5.9170  1.2630  1.5630
   39POPC  H10Y 5287   0.071   1.313   7.585  0.4403  1.2345  0.5940
   39POPC  C311 5288  -0.125   1.363   7.656 -0.2163 -0.5938  0.4355
   39POPC  H11X 5289  -0.183   1.272   7.628 -2.7612  0.9358  0.3626
   39POPC  H11Y 5290  -0.199   1.444   7.639 -0.4624 -1.4644 -3.5338
   39POPC  C312 5291  -0.097   1.375   7.803 -0.6246 -0.4094 -0.2188
   39POPC  H12X 5292  -0.068   1.481   7.817 -0.9677 -0.4817  1.2380
   39POPC  H12Y 5293  -0.010   1.312   7.833 -0.4261  1.1010  2.8323
   39POPC  C313 5294  -0.222   1.363   7.894  0.2560  0.2375  0.3159
   39POPC  H13X 5295  -0.218   1.260   7.935 -2.3340 -0.7499 -1.7009
   39POPC  H13Y 5296  -0.304   1.363   7.819  1.2490  2.5075 -0.8857
   39POPC  C314 5297  -0.247   1.472   7.995  0.2905  0.2872 -0.4190
   39POPC  H14X 5298  -0.343   1.449   8.047  1.9276 -1.8868  1.8713
   39POPC  H14Y 5299  -0.245   1.576   7.955  0.5655  1.0015  1.3578
   39POPC  C315 5300  -0.142   1.483   8.101 -0.0886  0.0766  0.2899
   39POPC  H15X 5301  -0.048   1.518   8.053 -0.2293  2.1435  1.4197
   39POPC  H15Y 5302  -0.126   1.378   8.133 -1.7302 -0.3870 -0.2854
   39POPC  C316 5303  -0.174   1.575   8.218 -0.2414  0.1083 -0.5013
   39POPC  H16X 5304  -0.245   1.520   8.283  1.3592 -2.3779 -0.7068
   39POPC  H16Y 5305  -0.214   1.672   8.180 -2.4320 -0.7501 -0.5698
   39POPC  H16Z 5306  -0.082   1.594   8.276 -0.9482 -1.8257  1.3538
   40POPC     N 5307   1.840   5.621   5.933  0.4282 -0.3675  0.0465
   40POPC   C12 5308   1.789   5.713   6.041  0.1788  0.7124 -0.0125
   40POPC  H12A 5309   1.822   5.810   6.007  1.6977 -0.4075 -1.9365
   40POPC  H12B 5310   1.848   5.697   6.130  1.3297 -1.0598 -1.0454
   40POPC   C13 5311   1.758   5.615   5.808 -0.2740  0.0845  0.2121
   40POPC  H13A 5312   1.657   5.590   5.837 -1.1965  0.5775 -2.3384
   40POPC  H13B 5313   1.757   5.711   5.760  0.9056 -1.1908 -2.5991
   40POPC  H13C 5314   1.792   5.533   5.745  0.4564 -0.2688  1.0408
   40POPC   C14 5315   1.978   5.670   5.899  0.6598  0.1987  0.4353
   40POPC  H14A 5316   2.027   5.607   5.827  0.5351  0.2198  0.3319
   40POPC  H14B 5317   1.961   5.768   5.857  2.2378  0.4661  0.3356
   40POPC  H14C 5318   2.039   5.690   5.986  0.8133  1.5209  0.0536
   40POPC   C15 5319   1.846   5.489   5.993  0.5382 -0.2516  0.3968
   40POPC  H15A 5320   1.879   5.411   5.925 -0.7709 -0.6251  0.1674
   40POPC  H15B 5321   1.754   5.453   6.036  0.8565 -1.8641 -0.2060
   40POPC  H15C 5322   1.910   5.489   6.080  0.4504 -1.8817  0.4953
   40POPC   C11 5323   1.637   5.720   6.076  0.5127  0.4876 -0.2793
   40POPC  H11A 5324   1.607   5.616   6.103 -3.0069  1.7099  0.9434
   40POPC  H11B 5325   1.588   5.748   5.981 -0.3206 -1.1202 -0.3615
   40POPC     P 5326   1.476   5.815   6.249 -0.1886  0.1192 -0.1023
   40POPC   O13 5327   1.369   5.792   6.145  0.1532  0.3253 -0.3844
   40POPC   O14 5328   1.464   5.941   6.329 -0.4568 -0.8862 -0.0029
   40POPC   O12 5329   1.617   5.818   6.175 -0.3507 -0.2914  0.5558
   40POPC   O11 5330   1.484   5.694   6.344  0.4083  0.4119  0.3705
   40POPC    C1 5331   1.581   5.683   6.448 -0.7444 -0.0529  0.5245
   40POPC    HA 5332   1.525   5.659   6.541 -0.3404 -0.7483  0.5949
   40POPC    HB 5333   1.642   5.774   6.463  1.0261 -1.1245  0.1410
   40POPC    C2 5334   1.686   5.571   6.417  0.0173 -0.7344  0.5617
   40POPC    HS 5335   1.739   5.591   6.321 -2.2399  0.9056 -0.4437
   40POPC   O21 5336   1.622   5.446   6.413  0.2353  0.4747 -0.0857
   40POPC   C21 5337   1.683   5.339   6.365 -0.6536  0.3596 -0.9051
   40POPC   O22 5338   1.793   5.346   6.310 -0.2825 -0.5345 -0.6445
   40POPC   C22 5339   1.598   5.214   6.389 -0.4924  0.3902 -0.0317
   40POPC   H2R 5340   1.570   5.170   6.291 -1.3818 -1.8682  1.1789
   40POPC   H2S 5341   1.510   5.259   6.440  0.1202  0.7016  0.7830
   40POPC    C3 5342   1.808   5.570   6.519 -0.4383 -0.4876 -0.9012
   40POPC    HX 5343   1.852   5.672   6.512 -3.8237  1.3050  1.4665
   40POPC    HY 5344   1.887   5.497   6.491  0.7952  0.7360 -0.6902
   40POPC   O31 5345   1.770   5.541   6.657 -0.1117 -0.4563 -0.2366
   40POPC   C31 5346   1.830   5.444   6.718  0.1709 -0.1493  0.2711
   40POPC   O32 5347   1.919   5.371   6.682  0.5451 -0.0327  0.1792
   40POPC   C32 5348   1.777   5.438   6.864  0.7273  0.1556  0.2710
   40POPC   H2X 5349   1.666   5.429   6.869  0.4368  2.6343 -0.5879
   40POPC   H2Y 5350   1.794   5.539   6.907  0.6116 -0.7635  2.6241
   40POPC   C23 5351   1.655   5.115   6.492  1.3037  0.2039  0.0854
   40POPC   H3R 5352   1.661   5.165   6.591  2.0516  0.0657  0.1140
   40POPC   H3S 5353   1.760   5.085   6.473  1.3269 -2.3370  3.2996
   40POPC   C24 5354   1.589   4.984   6.520  0.0607  0.6458 -0.3243
   40POPC   H4R 5355   1.640   4.926   6.599  0.7153 -4.6950 -4.1324
   40POPC   H4S 5356   1.593   4.925   6.426  1.8742 -0.1085  0.1850
   40POPC   C25 5357   1.448   5.015   6.566 -0.2620 -0.3594 -0.0475
   40POPC   H5R 5358   1.384   4.924   6.567 -0.4501 -0.2466  1.8175
   40POPC   H5S 5359   1.405   5.081   6.487 -1.4241 -0.1292  0.7641
   40POPC   C26 5360   1.416   5.079   6.700  0.0436  0.2457  0.4182
   40POPC   H6R 5361   1.312   5.077   6.738  0.2134  3.2489  1.3490
   40POPC   H6S 5362   1.431   5.189   6.696 -0.3891  0.4096  2.3686
   40POPC   C27 5363   1.519   5.017   6.802 -0.5319  0.0718 -0.0906
   40POPC   H7R 5364   1.612   5.072   6.777 -0.2459  0.0377  0.8519
   40POPC   H7S 5365   1.526   4.906   6.795 -3.1737 -0.1864  0.5138
   40POPC   C28 5366   1.493   5.074   6.941 -0.1768 -0.3772 -0.3578
   40POPC   H8R 5367   1.496   5.185   6.937  0.1553 -0.3529  0.4585
   40POPC   H8S 5368   1.584   5.046   6.999  0.7591 -1.0745 -2.0927
   40POPC   C29 5369   1.375   5.038   7.024  0.0037 -0.2353  0.5769
   40POPC   H91 5370   1.363   4.929   7.028 -4.1509  0.0225 -0.3127
   40POPC  C210 5371   1.276   5.112   7.073  0.3857  0.2158 -0.4385
   40POPC  H101 5372   1.188   5.064   7.120  0.7729 -0.4207 -0.3442
   40POPC  C211 5373   1.269   5.261   7.061 -0.0700 -0.7409  0.3438
   40POPC  H11R 5374   1.169   5.301   7.037  0.7878  1.1511 -0.2973
   40POPC  H11S 5375   1.331   5.316   6.987 -0.8153  1.0284  0.9729
   40POPC  C212 5376   1.324   5.329   7.187  0.1564 -0.1861  0.0100
   40POPC  H12R 5377   1.344   5.437   7.171 -0.5806  0.0277  0.5026
   40POPC  H12S 5378   1.423   5.286   7.212 -0.2138 -1.3249 -0.4068
   40POPC  C213 5379   1.233   5.333   7.310 -0.0272 -0.6470  0.0279
   40POPC  H13R 5380   1.225   5.227   7.342 -2.3429 -0.7526 -0.7381
   40POPC  H13S 5381   1.131   5.371   7.291  0.7197  1.6609  0.3768
   40POPC  C214 5382   1.299   5.418   7.412  0.5168 -0.3207 -0.2560
   40POPC  H14R 5383   1.341   5.508   7.362 -1.8513  0.6516 -0.6400
   40POPC  H14S 5384   1.384   5.358   7.451  0.6077 -0.3671 -0.5263
   40POPC  C215 5385   1.211   5.457   7.539 -0.4875 -0.5275  0.3455
   40POPC  H15R 5386   1.166   5.364   7.579  1.4150 -1.0841  1.2813
   40POPC  H15S 5387   1.135   5.527   7.498  0.2147  0.6960  1.0795
   40POPC  C216 5388   1.285   5.531   7.650  0.0253  0.5924  0.4256
   40POPC  H16R 5389   1.277   5.642   7.643  0.0515  0.7967  2.7654
   40POPC  H16S 5390   1.390   5.497   7.648 -0.5003 -1.1860  0.8906
   40POPC  C217 5391   1.245   5.490   7.790 -0.7223  0.0533  0.4369
   40POPC  H17R 5392   1.265   5.381   7.806 -1.2919 -0.1992 -0.4930
   40POPC  H17S 5393   1.137   5.505   7.809 -0.1045  2.8107  2.2658
   40POPC  C218 5394   1.302   5.569   7.911  0.5138  0.6232  0.6539
   40POPC  H18R 5395   1.411   5.547   7.916  1.0410  3.0433  1.3699
   40POPC  H18S 5396   1.253   5.542   8.006 -0.6366 -0.4259 -0.1974
   40POPC  H18T 5397   1.300   5.676   7.880 -0.4364  1.0970  2.2446
   40POPC   C33 5398   1.846   5.340   6.971 -0.3602  0.6021  0.4441
   40POPC   H3X 5399   1.956   5.352   6.965 -0.3726  0.5556  0.1007
   40POPC   H3Y 5400   1.837   5.234   6.937  1.2381  0.1072  1.4518
   40POPC   C34 5401   1.792   5.374   7.117 -0.0326  0.0078  0.3843
   40POPC   H4X 5402   1.682   5.363   7.127 -0.4175  2.2984 -0.6970
   40POPC   H4Y 5403   1.825   5.479   7.134 -1.4725  0.2660  1.7870
   40POPC   C35 5404   1.859   5.287   7.222  0.4560 -0.1883 -0.1634
   40POPC   H5X 5405   1.821   5.322   7.320  0.1512  1.0241 -0.6974
   40POPC   H5Y 5406   1.970   5.291   7.224  0.4618 -0.1132  2.4755
   40POPC   C36 5407   1.820   5.134   7.202  0.3561  0.0935 -1.3261
   40POPC   H6X 5408   1.901   5.094   7.138  1.8117  0.4482  0.2093
   40POPC   H6Y 5409   1.722   5.125   7.152  0.0641  2.0178 -1.1923
   40POPC   C37 5410   1.809   5.056   7.336 -0.3815 -0.1459  0.4138
   40POPC   H7X 5411   1.749   4.963   7.321  0.5500 -0.8610  1.0451
   40POPC   H7Y 5412   1.747   5.119   7.403 -1.9245 -0.1257 -0.9404
   40POPC   C38 5413   1.940   5.030   7.410 -0.4138  0.5436  0.1361
   40POPC   H8X 5414   2.010   5.113   7.388 -0.2859  0.0545 -1.4017
   40POPC   H8Y 5415   2.003   4.945   7.376 -0.1995  0.5617  0.4776
   40POPC   C39 5416   1.920   5.011   7.559 -0.3342  0.1705  0.0013
   40POPC   H9X 5417   1.909   4.902   7.580 -2.1156 -0.1736 -2.3290
   40POPC   H9Y 5418   1.822   5.053   7.589  0.9526  1.6016  2.5768
   40POPC  C310 5419   2.016   5.079   7.653 -0.1928 -0.3448 -0.4447
   40POPC  H10X 5420   1.960   5.166   7.694 -0.1030 -0.5541  0.1296
   40POPC  H10Y 5421   2.107   5.122   7.606 -0.7444  1.6496  0.1997
   40POPC  C311 5422   2.041   4.998   7.773 -0.3896  0.0266  0.3479
   40POPC  H11X 5423   2.134   5.027   7.827 -0.0281 -0.8201  0.1988
   40POPC  H11Y 5424   2.054   4.892   7.744  0.7595  0.5614 -1.2439
   40POPC  C312 5425   1.930   4.994   7.874  0.5715 -0.4064  0.6128
   40POPC  H12X 5426   1.834   4.969   7.825  0.4780  2.9799 -1.1803
   40POPC  H12Y 5427   1.912   5.093   7.920 -1.3650 -0.3468 -0.2015
   40POPC  C313 5428   1.956   4.893   7.991 -0.3782 -0.5816  0.2541
   40POPC  H13X 5429   2.064   4.892   8.017 -0.2239 -1.8525 -0.3800
   40POPC  H13Y 5430   1.932   4.794   7.948 -0.7858 -0.9459  1.2914
   40POPC  C314 5431   1.872   4.923   8.113  0.6649 -0.0535  0.2526
   40POPC  H14X 5432   1.767   4.929   8.078 -0.2736  0.4842  2.9217
   40POPC  H14Y 5433   1.893   5.026   8.148  1.8347  0.1777 -1.0483
   40POPC  C315 5434   1.878   4.814   8.226 -0.3645 -0.7353 -0.1472
   40POPC  H15X 5435   1.987   4.804   8.249 -0.3736 -0.7097 -0.0933
   40POPC  H15Y 5436   1.852   4.714   8.185 -1.5432 -0.2527 -0.5992
   40POPC  C316 5437   1.808   4.832   8.363  0.2470  0.3682  0.2599
   40POPC  H16X 5438   1.857   4.774   8.444  0.5449 -1.1451 -0.9429
   40POPC  H16Y 5439   1.699   4.815   8.354  0.6512 -2.2769 -0.5765
   40POPC  H16Z 5440   1.822   4.940   8.386  2.0822  0.3826 -0.6869
   41CHL1    C3 5441   0.640   2.872   9.925  0.1231  0.9356  0.5615
   41CHL1    H3 5442   0.651   2.983   9.920  0.9712  0.8065 -2.7444
   41CHL1    O3 5443   0.664   2.835  10.064  0.3922 -0.0208  0.0817
   41CHL1   H3' 5444   0.756   2.808  10.070  0.8524  1.5400  0.9093
   41CHL1    C4 5445   0.497   2.844   9.880 -0.2554 -0.4355  0.3168
   41CHL1   H4A 5446   0.485   2.736   9.903  0.0031 -0.1341  1.9900
   41CHL1   H4B 5447   0.426   2.899   9.945  1.9518  0.1531  2.3509
   41CHL1    C5 5448   0.484   2.884   9.735  0.3894 -0.5091  0.7542
   41CHL1    C6 5449   0.384   2.957   9.689 -0.4116  0.7397 -1.7033
   41CHL1    H6 5450   0.311   2.988   9.765  1.1750  1.2353 -0.2873
   41CHL1    C7 5451   0.357   2.995   9.541 -0.6044 -0.0566 -0.0437
   41CHL1   H7A 5452   0.249   2.988   9.515 -0.2416  0.6394 -1.9279
   41CHL1   H7B 5453   0.385   3.100   9.519 -1.7577  0.5090  1.0692
   41CHL1    C8 5454   0.438   2.900   9.444  0.5876 -0.3640 -0.3232
   41CHL1    H8 5455   0.387   2.802   9.434  1.6499 -1.2827  2.3866
   41CHL1   C14 5456   0.447   2.966   9.309  0.6852  0.4790 -0.4524
   41CHL1   H14 5457   0.502   3.059   9.332 -2.4187  1.8533  2.0809
   41CHL1   C15 5458   0.317   3.020   9.236 -0.1051  0.0727 -0.7811
   41CHL1  H15A 5459   0.250   2.932   9.232  1.3183 -0.9936 -2.5320
   41CHL1  H15B 5460   0.270   3.107   9.286  0.3246  0.9189 -1.7920
   41CHL1   C16 5461   0.361   3.048   9.083  0.3128  0.5435 -0.1026
   41CHL1  H16A 5462   0.300   2.982   9.018  0.7173  0.9763 -0.9422
   41CHL1  H16B 5463   0.359   3.154   9.050 -0.7243  0.0504 -1.7615
   41CHL1   C17 5464   0.515   2.997   9.085  0.3734  0.7855  0.1215
   41CHL1   H17 5465   0.569   3.085   9.127  0.4009  0.6988  0.2665
   41CHL1   C13 5466   0.529   2.896   9.201  0.6937  0.1482 -0.4543
   41CHL1   C18 5467   0.454   2.769   9.159 -0.2414  0.4460 -0.7281
   41CHL1  H18A 5468   0.352   2.796   9.122 -0.1815  2.4146  0.4469
   41CHL1  H18B 5469   0.507   2.722   9.073 -1.1027 -0.6640 -0.6817
   41CHL1  H18C 5470   0.441   2.694   9.240 -4.3729  2.7057  1.0281
   41CHL1   C12 5471   0.671   2.874   9.252 -0.6037 -0.3587 -0.3417
   41CHL1  H12A 5472   0.730   2.810   9.184  1.5312 -0.1709  1.2446
   41CHL1  H12B 5473   0.719   2.973   9.265  1.7155 -1.5862  0.9435
   41CHL1   C11 5474   0.660   2.807   9.389  0.1685 -0.6146 -0.7515
   41CHL1  H11A 5475   0.614   2.707   9.379 -0.8497 -0.2319 -0.0773
   41CHL1  H11B 5476   0.766   2.794   9.421  0.6328  1.5218 -1.2690
   41CHL1    C9 5477   0.578   2.884   9.495 -0.0216 -0.8774  0.0811
   41CHL1    H9 5478   0.602   2.991   9.511 -3.8512  0.1127  0.0434
   41CHL1   C10 5479   0.587   2.820   9.637 -0.5169  0.0285 -0.4164
   41CHL1   C19 5480   0.572   2.663   9.635 -0.7491 -0.2837 -0.3954
   41CHL1  H19A 5481   0.557   2.625   9.739  2.2054 -1.2908 -0.2375
   41CHL1  H19B 5482   0.486   2.648   9.566 -0.6356 -1.5195 -0.2962
   41CHL1  H19C 5483   0.661   2.609   9.595  1.0277  2.6061 -0.6530
   41CHL1    C1 5484   0.731   2.849   9.691  0.3920 -0.2713 -0.4638
   41CHL1   H1A 5485   0.810   2.812   9.622  0.0807  0.8916 -1.4719
   41CHL1   H1B 5486   0.747   2.959   9.695 -1.6625  0.0547 -0.3349
   41CHL1    C2 5487   0.745   2.806   9.831  0.4031 -0.5815 -0.1252
   41CHL1   H2A 5488   0.843   2.842   9.867 -0.3085  0.7444  0.5406
   41CHL1   H2B 5489   0.740   2.696   9.843 -0.0607 -0.5812 -0.2976
   41CHL1   C20 5490   0.572   2.985   8.940 -0.2757 -0.2688 -0.2520
   41CHL1   H20 5491   0.539   2.888   8.899  3.2908 -2.6461  1.9420
   41CHL1   C21 5492   0.727   2.975   8.947 -0.4804 -0.1253  0.3987
   41CHL1  H21A 5493   0.770   3.049   9.018 -0.4044 -0.5108  0.7611
   41CHL1  H21B 5494   0.772   2.994   8.847 -0.8176 -1.0750  0.0530
   41CHL1  H21C 5495   0.762   2.874   8.978  0.8198 -0.2700 -1.4251
   41CHL1   C22 5496   0.534   3.094   8.842  0.2332  0.3107 -0.1655
   41CHL1  H22A 5497   0.557   3.059   8.739 -0.5208  0.3706 -0.3559
   41CHL1  H22B 5498   0.423   3.101   8.850 -0.1254 -1.2606 -2.7756
   41CHL1   C23 5499   0.580   3.241   8.872  0.0459 -0.2417  0.2774
   41CHL1  H23A 5500   0.523   3.301   8.947  0.1885  0.1880  0.0458
   41CHL1  H23B 5501   0.687   3.236   8.901 -0.1053 -1.7250  0.6765
   41CHL1   C24 5502   0.574   3.325   8.742  0.9038  0.0236  0.1254
   41CHL1  H24A 5503   0.599   3.432   8.759  0.2944  0.3143 -0.7220
   41CHL1  H24B 5504   0.640   3.275   8.668 -0.2036 -1.2669 -0.0362
   41CHL1   C25 5505   0.435   3.335   8.667  0.3396 -0.0054 -0.1944
   41CHL1   H25 5506   0.395   3.234   8.646  0.3775 -0.1577  0.4258
   41CHL1   C26 5507   0.331   3.422   8.751 -0.5834 -0.1796 -0.6691
   41CHL1  H26A 5508   0.392   3.509   8.783 -0.1696 -1.1592  1.4073
   41CHL1  H26B 5509   0.236   3.440   8.697  0.0444  0.5396 -1.5518
   41CHL1  H26C 5510   0.306   3.380   8.851 -0.0393  1.8797  0.3865
   41CHL1   C27 5511   0.440   3.402   8.532 -0.2997 -0.4382  0.7691
   41CHL1  H27A 5512   0.503   3.348   8.458 -2.0240  0.0212 -1.1152
   41CHL1  H27B 5513   0.338   3.390   8.490 -0.8094  0.5143  1.7130
   41CHL1  H27C 5514   0.458   3.511   8.537  0.7803 -0.6223  1.1361
   42CHL1    C3 5515   0.368   2.209   9.659 -0.3828 -1.0508  0.7513
   42CHL1    H3 5516   0.285   2.278   9.636 -0.3708 -1.2433  0.1315
   42CHL1    O3 5517   0.348   2.148   9.784 -0.7407 -0.1821  0.4494
   42CHL1   H3' 5518   0.419   2.085   9.798 -1.1490 -0.3114  2.2336
   42CHL1    C4 5519   0.372   2.105   9.553 -0.1229  0.7771 -0.1026
   42CHL1   H4A 5520   0.447   2.029   9.582  1.7618  2.3630 -0.6306
   42CHL1   H4B 5521   0.269   2.063   9.548  0.9946 -2.1085 -0.6652
   42CHL1    C5 5522   0.416   2.172   9.422 -0.4962 -0.1724  0.2692
   42CHL1    C6 5523   0.339   2.170   9.311  0.5684 -0.2764 -0.6002
   42CHL1    H6 5524   0.244   2.115   9.321  0.9184 -0.8042 -0.0825
   42CHL1    C7 5525   0.386   2.226   9.177 -0.2039 -0.6296  0.3425
   42CHL1   H7A 5526   0.351   2.161   9.094 -1.9811  1.4001 -0.6022
   42CHL1   H7B 5527   0.334   2.321   9.152  0.9322  0.0503  0.4673
   42CHL1    C8 5528   0.537   2.260   9.172 -0.5061  0.9460  0.1021
   42CHL1    H8 5529   0.600   2.169   9.165 -1.1884  0.5602 -1.2638
   42CHL1   C14 5530   0.574   2.351   9.054  0.0835 -0.1659  0.1625
   42CHL1   H14 5531   0.509   2.438   9.074 -0.8389 -0.7151 -0.3505
   42CHL1   C15 5532   0.532   2.301   8.910 -0.4356  0.2766 -0.1846
   42CHL1  H15A 5533   0.569   2.196   8.905  1.3839  0.8351  0.5521
   42CHL1  H15B 5534   0.422   2.308   8.905 -0.5987 -0.0928  1.9955
   42CHL1   C16 5535   0.608   2.396   8.816 -0.4461  1.3887 -0.2823
   42CHL1  H16A 5536   0.673   2.329   8.756  0.1208 -2.1028  3.7194
   42CHL1  H16B 5537   0.534   2.456   8.759  0.0431  0.7851 -1.5721
   42CHL1   C17 5538   0.694   2.482   8.909 -0.3319 -1.2841 -0.5997
   42CHL1   H17 5539   0.631   2.565   8.946 -1.4460 -1.8547 -1.1656
   42CHL1   C13 5540   0.714   2.397   9.042 -0.6770 -0.0597  0.3084
   42CHL1   C18 5541   0.814   2.286   9.018  0.2254  0.1466 -0.5156
   42CHL1  H18A 5542   0.797   2.206   9.093 -1.0579  0.8213 -0.0650
   42CHL1  H18B 5543   0.807   2.228   8.924 -0.0884 -2.0686  0.8060
   42CHL1  H18C 5544   0.917   2.326   9.030  0.9450 -1.1914 -1.9248
   42CHL1   C12 5545   0.746   2.478   9.173  0.2623  0.2929  0.9909
   42CHL1  H12A 5546   0.852   2.511   9.170  0.3159  0.3756  2.7422
   42CHL1  H12B 5547   0.678   2.566   9.180  1.3891  1.3781 -0.9102
   42CHL1   C11 5548   0.722   2.394   9.299  0.4771 -0.0058  0.4939
   42CHL1  H11A 5549   0.801   2.317   9.286  0.3890 -0.4184  2.1256
   42CHL1  H11B 5550   0.739   2.435   9.401 -0.3790 -1.5439  1.2921
   42CHL1    C9 5551   0.576   2.336   9.302  0.7123 -0.6401  0.1990
   42CHL1    H9 5552   0.495   2.411   9.296 -1.6504 -3.1184 -4.0922
   42CHL1   C10 5553   0.551   2.245   9.420  0.2277 -0.1710  0.0015
   42CHL1   C19 5554   0.663   2.151   9.445  0.1843  0.5239  0.2730
   42CHL1  H19A 5555   0.757   2.204   9.470  0.5856  0.3538 -0.8204
   42CHL1  H19B 5556   0.635   2.096   9.537 -2.1292  0.6139 -0.3046
   42CHL1  H19C 5557   0.684   2.072   9.369 -0.7411 -1.2088  1.7422
   42CHL1    C1 5558   0.543   2.349   9.547  0.2143  1.0769  0.5700
   42CHL1   H1A 5559   0.649   2.372   9.571  0.4890 -0.0458  0.5037
   42CHL1   H1B 5560   0.489   2.437   9.506 -0.9008 -0.1906 -0.8011
   42CHL1    C2 5561   0.498   2.284   9.680  0.0082  0.3082  0.5489
   42CHL1   H2A 5562   0.475   2.362   9.755 -2.5684 -0.7476  0.9785
   42CHL1   H2B 5563   0.575   2.212   9.717 -0.8298  0.7484  3.3881
   42CHL1   C20 5564   0.822   2.555   8.851 -0.1220  0.3721 -0.4337
   42CHL1   H20 5565   0.860   2.609   8.940  0.5292  0.4665 -0.7578
   42CHL1   C21 5566   0.776   2.657   8.744 -0.4571  0.6042  0.0563
   42CHL1  H21A 5567   0.699   2.729   8.781 -0.2508  1.0185 -0.3023
   42CHL1  H21B 5568   0.723   2.610   8.658 -1.0770  2.9112 -0.9236
   42CHL1  H21C 5569   0.863   2.713   8.703  0.2141 -0.3807  0.1293
   42CHL1   C22 5570   0.931   2.459   8.790  0.8548 -0.6158 -0.3674
   42CHL1  H22A 5571   0.961   2.366   8.841 -1.3383 -0.5112  1.2711
   42CHL1  H22B 5572   0.885   2.425   8.694 -0.5378 -0.3371  0.1704
   42CHL1   C23 5573   1.072   2.526   8.778 -0.3361  0.5460 -0.0102
   42CHL1  H23A 5574   1.059   2.618   8.717  1.2394  0.4763 -0.5126
   42CHL1  H23B 5575   1.120   2.544   8.877  0.0300 -1.9397  0.3191
   42CHL1   C24 5576   1.173   2.446   8.692  1.1316  0.2651  0.1669
   42CHL1  H24A 5577   1.195   2.357   8.755 -1.5741 -0.9951 -0.5180
   42CHL1  H24B 5578   1.108   2.418   8.606  0.2850  0.5409  0.7052
   42CHL1   C25 5579   1.277   2.519   8.616 -0.1771  0.5232  0.2858
   42CHL1   H25 5580   1.228   2.607   8.569 -1.4758  0.6153  1.7328
   42CHL1   C26 5581   1.382   2.577   8.709 -0.1346  0.3328 -0.4413
   42CHL1  H26A 5582   1.337   2.631   8.795 -0.3232 -2.6139  1.4514
   42CHL1  H26B 5583   1.440   2.497   8.759  0.7270  0.2999 -1.4605
   42CHL1  H26C 5584   1.450   2.648   8.656 -1.6233  2.2396  0.1135
   42CHL1   C27 5585   1.337   2.437   8.502 -0.1654 -0.5147  0.2134
   42CHL1  H27A 5586   1.263   2.373   8.449 -0.7215 -1.2629  1.8278
   42CHL1  H27B 5587   1.375   2.498   8.418  1.5316 -2.7449 -0.7560
   42CHL1  H27C 5588   1.419   2.375   8.545 -0.4783 -1.9583 -1.1629
   43CHL1    C3 5589   0.042   2.599   9.872 -0.1759  0.2179 -0.1204
   43CHL1    H3 5590   0.029   2.709   9.868  1.1226  0.3460 -2.6691
   43CHL1    O3 5591   0.050   2.558  10.012  0.0129 -0.3487 -0.1567
   43CHL1   H3' 5592  -0.031   2.509  10.028 -1.6519  2.3321  0.2688
   43CHL1    C4 5593  -0.073   2.529   9.800 -0.0457  0.2168 -0.2162
   43CHL1   H4A 5594  -0.064   2.419   9.813 -0.1828  0.1272 -0.8321
   43CHL1   H4B 5595  -0.164   2.569   9.850  0.1134 -0.2457  0.4589
   43CHL1    C5 5596  -0.084   2.560   9.650 -0.3341 -0.0344  0.2442
   43CHL1    C6 5597  -0.186   2.618   9.586  0.0020 -0.1804 -0.7379
   43CHL1    H6 5598  -0.282   2.632   9.636  0.9719  0.3605  1.0536
   43CHL1    C7 5599  -0.184   2.654   9.444  0.1706 -0.1739 -0.2419
   43CHL1   H7A 5600  -0.284   2.637   9.399 -0.8194  0.2290  1.7041
   43CHL1   H7B 5601  -0.169   2.762   9.424 -0.1954 -0.0408  0.1864
   43CHL1    C8 5602  -0.084   2.570   9.370 -0.8155 -0.3772 -0.3946
   43CHL1    H8 5603  -0.128   2.468   9.367 -1.9389 -0.2589  4.1513
   43CHL1   C14 5604  -0.066   2.632   9.233 -0.4665  0.0361  0.4835
   43CHL1   H14 5605  -0.020   2.733   9.246  0.2134  0.1470 -2.1532
   43CHL1   C15 5606  -0.192   2.654   9.145 -0.0445  0.0233 -0.0321
   43CHL1  H15A 5607  -0.242   2.559   9.116 -0.4698  0.3546 -0.3850
   43CHL1  H15B 5608  -0.254   2.736   9.186  1.2730  1.3571 -0.5937
   43CHL1   C16 5609  -0.134   2.700   9.012 -0.1594  0.4952 -0.2161
   43CHL1  H16A 5610  -0.166   2.649   8.918  1.6402 -0.5182 -0.3288
   43CHL1  H16B 5611  -0.142   2.811   9.006  2.6167  0.7340 -1.2231
   43CHL1   C17 5612   0.022   2.664   9.013  0.4393 -0.4577 -0.3169
   43CHL1   H17 5613   0.070   2.758   9.046  0.3150 -0.4390 -0.1887
   43CHL1   C13 5614   0.041   2.569   9.138  0.0240 -0.3750  0.0382
   43CHL1   C18 5615   0.009   2.420   9.107  0.1832  0.1243 -0.2801
   43CHL1  H18A 5616  -0.093   2.404   9.065 -0.0809 -0.4124  0.5459
   43CHL1  H18B 5617   0.082   2.389   9.029  1.4282 -0.7327  1.1752
   43CHL1  H18C 5618   0.039   2.343   9.181  0.7326 -1.4207 -2.0125
   43CHL1   C12 5619   0.173   2.581   9.208 -0.0778  0.3742 -0.4212
   43CHL1  H12A 5620   0.261   2.546   9.149  0.8704  2.1642 -0.1312
   43CHL1  H12B 5621   0.193   2.690   9.214  0.3049  0.3178 -0.6691
   43CHL1   C11 5622   0.167   2.525   9.352  0.1246 -0.5759 -0.1730
   43CHL1  H11A 5623   0.165   2.415   9.342  1.6309 -0.6082 -0.3335
   43CHL1  H11B 5624   0.262   2.554   9.402  0.2552 -0.7131 -0.3409
   43CHL1    C9 5625   0.051   2.585   9.441 -0.2108  0.0331 -0.2292
   43CHL1    H9 5626   0.068   2.693   9.459 -1.8965  0.3045 -0.0561
   43CHL1   C10 5627   0.043   2.520   9.582 -0.0793 -0.8490  0.6372
   43CHL1   C19 5628   0.040   2.366   9.567  0.0435  0.1177 -0.4346
   43CHL1  H19A 5629  -0.056   2.327   9.525  0.1799 -2.0961  1.1073
   43CHL1  H19B 5630   0.129   2.326   9.513 -1.2043  0.3731 -2.8372
   43CHL1  H19C 5631   0.052   2.327   9.670  1.3314  0.3608 -0.4819
   43CHL1    C1 5632   0.168   2.570   9.652 -0.6032  0.7228  0.4427
   43CHL1   H1A 5633   0.255   2.514   9.611  0.0344  0.9780  1.4477
   43CHL1   H1B 5634   0.184   2.677   9.630 -0.5492  0.4224 -1.1614
   43CHL1    C2 5635   0.172   2.570   9.806  0.0325 -0.0763  0.3591
   43CHL1   H2A 5636   0.252   2.630   9.853  3.5000 -2.4748 -2.0187
   43CHL1   H2B 5637   0.210   2.469   9.833  1.2296  0.7633  1.9759
   43CHL1   C20 5638   0.075   2.613   8.882  0.6125 -0.1861  0.1514
   43CHL1   H20 5639   0.022   2.517   8.865 -0.6464  0.6562 -0.8737
   43CHL1   C21 5640   0.227   2.589   8.884 -1.1107 -0.4448 -0.0155
   43CHL1  H21A 5641   0.273   2.545   8.793  1.6880 -0.8034  1.4369
   43CHL1  H21B 5642   0.251   2.512   8.961  2.2106  0.2563 -0.1932
   43CHL1  H21C 5643   0.272   2.687   8.908 -0.7481 -0.1398 -1.8450
   43CHL1   C22 5644   0.037   2.704   8.763 -0.1405  0.9424  0.6228
   43CHL1  H22A 5645   0.059   2.641   8.674 -3.5997  0.4646 -0.0387
   43CHL1  H22B 5646  -0.071   2.707   8.739 -0.3930  0.2569  1.6383
   43CHL1   C23 5647   0.099   2.844   8.755 -0.1990 -0.4223 -0.5341
   43CHL1  H23A 5648   0.045   2.903   8.832 -2.1950 -0.7498 -1.6308
   43CHL1  H23B 5649   0.207   2.843   8.780 -0.1616  0.3967 -0.6487
   43CHL1   C24 5650   0.079   2.900   8.617 -0.4157  0.6139 -1.0307
   43CHL1  H24A 5651   0.121   2.820   8.552 -0.6423 -2.0180  1.8242
   43CHL1  H24B 5652  -0.030   2.906   8.595 -0.3532 -0.1021 -1.5985
   43CHL1   C25 5653   0.134   3.046   8.591  0.5180 -0.1872 -0.5021
   43CHL1   H25 5654   0.232   3.049   8.642  0.2461 -1.0157  0.1061
   43CHL1   C26 5655   0.153   3.078   8.446 -0.2376  0.6069 -0.0141
   43CHL1  H26A 5656   0.056   3.065   8.394 -0.3030  1.2556 -0.0717
   43CHL1  H26B 5657   0.181   3.186   8.441  0.6562  0.5125  1.9895
   43CHL1  H26C 5658   0.227   3.016   8.391 -0.7844  0.0636 -0.1393
   43CHL1   C27 5659   0.054   3.158   8.666  0.4114 -0.1740 -0.3546
   43CHL1  H27A 5660   0.112   3.253   8.671  1.6749 -0.8740 -1.0415
   43CHL1  H27B 5661  -0.050   3.171   8.629  1.3317  0.9973 -2.7366
   43CHL1  H27C 5662   0.050   3.127   8.773 -0.0325  0.8147 -0.0773
   44CHL1    C3 5663   0.924   3.311  10.109 -1.3273 -1.1623 -0.0344
   44CHL1    H3 5664   0.899   3.418  10.119  1.9861 -0.2468 -0.2970
   44CHL1    O3 5665   0.956   3.248  10.233  0.4754 -0.1355 -0.0426
   44CHL1   H3' 5666   0.969   3.157  10.205  1.5401 -0.4929  1.4470
   44CHL1    C4 5667   0.822   3.223  10.031 -0.6597 -0.1353  0.1750
   44CHL1   H4A 5668   0.863   3.120  10.044 -0.2904  0.3020  3.3086
   44CHL1   H4B 5669   0.732   3.242  10.093  0.3749  0.0426  1.7038
   44CHL1    C5 5670   0.813   3.255   9.885  0.5576 -0.1132  0.8089
   44CHL1    C6 5671   0.694   3.268   9.820 -0.6044  0.9964  0.4942
   44CHL1    H6 5672   0.604   3.242   9.878  0.0700 -2.6956  0.1283
   44CHL1    C7 5673   0.672   3.303   9.672  0.4760  0.2529 -0.7198
   44CHL1   H7A 5674   0.598   3.241   9.618  0.8971 -2.1310  1.2723
   44CHL1   H7B 5675   0.637   3.408   9.661 -0.5744  0.0152  0.2600
   44CHL1    C8 5676   0.808   3.291   9.594  0.4706 -0.0581 -0.2958
   44CHL1    H8 5677   0.821   3.182   9.582 -0.9829 -0.3789  0.8831
   44CHL1   C14 5678   0.792   3.355   9.462 -0.4980 -0.2573  0.4546
   44CHL1   H14 5679   0.768   3.462   9.477  2.6960  1.6280 -4.7990
   44CHL1   C15 5680   0.679   3.313   9.365  0.6775 -0.2583  1.5843
   44CHL1  H15A 5681   0.691   3.207   9.334  0.2621  0.5806 -1.8301
   44CHL1  H15B 5682   0.575   3.321   9.403 -0.5460 -1.9091 -1.0948
   44CHL1   C16 5683   0.709   3.391   9.236  0.2363 -0.4313  0.2067
   44CHL1  H16A 5684   0.683   3.339   9.141  0.8755  2.6934 -1.8405
   44CHL1  H16B 5685   0.654   3.487   9.240 -0.4280 -0.8107  0.2657
   44CHL1   C17 5686   0.859   3.436   9.252  0.5106  0.9111 -0.5685
   44CHL1   H17 5687   0.867   3.542   9.283  0.3925  0.8667 -0.3815
   44CHL1   C13 5688   0.917   3.360   9.371 -0.9467 -0.0801  0.0324
   44CHL1   C18 5689   0.970   3.219   9.327  1.0531 -0.0149 -0.4656
   44CHL1  H18A 5690   0.974   3.143   9.408  1.2579 -0.3653 -0.7994
   44CHL1  H18B 5691   0.898   3.183   9.251 -0.0212  1.4379 -0.1769
   44CHL1  H18C 5692   1.065   3.218   9.270 -0.1945 -2.2627 -2.7069
   44CHL1   C12 5693   1.031   3.431   9.451 -0.1443  0.2943  0.3325
   44CHL1  H12A 5694   1.120   3.421   9.385  0.6274 -2.4346  1.6426
   44CHL1  H12B 5695   0.997   3.536   9.463  1.0021  0.8648 -1.1437
   44CHL1   C11 5696   1.052   3.358   9.583 -0.6074  0.1361 -0.1685
   44CHL1  H11A 5697   1.098   3.261   9.555  0.0402  0.3946  0.0038
   44CHL1  H11B 5698   1.131   3.421   9.628 -1.4845  1.0236  0.1680
   44CHL1    C9 5699   0.926   3.350   9.678 -0.4099 -0.3759 -0.1996
   44CHL1    H9 5700   0.897   3.454   9.704 -1.0023 -0.6730  0.3606
   44CHL1   C10 5701   0.949   3.279   9.815  0.0300 -0.1765 -0.5676
   44CHL1   C19 5702   1.021   3.145   9.781  0.7658 -0.0446  1.1607
   44CHL1  H19A 5703   1.125   3.162   9.746  0.3357 -1.7267 -1.1456
   44CHL1  H19B 5704   1.027   3.077   9.868  1.2024 -0.7270  0.6077
   44CHL1  H19C 5705   0.973   3.097   9.693  1.2290 -0.1643  0.9727
   44CHL1    C1 5706   1.052   3.364   9.899 -0.5113 -0.2905 -0.5808
   44CHL1   H1A 5707   1.154   3.371   9.855  0.8531 -1.2570  2.1776
   44CHL1   H1B 5708   1.022   3.471   9.895 -0.0058 -0.1739 -1.9877
   44CHL1    C2 5709   1.060   3.308  10.041  0.7332  0.3946 -0.1915
   44CHL1   H2A 5710   1.139   3.356  10.103  0.9787 -1.2453  0.8268
   44CHL1   H2B 5711   1.096   3.203  10.037 -3.5695 -1.2742 -4.1706
   44CHL1   C20 5712   0.929   3.431   9.117  0.4012  0.2527  0.3897
   44CHL1   H20 5713   0.915   3.330   9.071  0.7550  1.1977 -1.9054
   44CHL1   C21 5714   1.072   3.460   9.128  0.2555 -0.7061 -0.1617
   44CHL1  H21A 5715   1.084   3.534   9.210  1.2554 -2.3885  1.2744
   44CHL1  H21B 5716   1.114   3.503   9.035 -3.0143  1.4333 -0.8027
   44CHL1  H21C 5717   1.135   3.377   9.167  2.3392  0.8407 -0.1024
   44CHL1   C22 5718   0.871   3.528   9.014  0.0884 -1.0484 -0.4139
   44CHL1  H22A 5719   0.762   3.546   9.028  0.5471  2.3777 -0.3160
   44CHL1  H22B 5720   0.911   3.629   9.039 -1.7609 -0.9842  2.8787
   44CHL1   C23 5721   0.903   3.500   8.864  0.1301 -0.4608  0.7414
   44CHL1  H23A 5722   1.014   3.510   8.857 -0.0982  1.2972 -2.7412
   44CHL1  H23B 5723   0.887   3.395   8.830  1.7157 -0.2034 -1.0047
   44CHL1   C24 5724   0.827   3.596   8.767 -0.7542 -0.4286  0.8259
   44CHL1  H24A 5725   0.718   3.580   8.761 -1.1462  1.4311  2.0869
   44CHL1  H24B 5726   0.844   3.702   8.795  2.4086 -0.3685 -0.8386
   44CHL1   C25 5727   0.885   3.591   8.619 -0.1955 -0.3767 -0.4962
   44CHL1   H25 5728   0.995   3.603   8.632 -0.2462  0.4911 -0.7975
   44CHL1   C26 5729   0.845   3.465   8.538  0.5892 -0.8086  0.4494
   44CHL1  H26A 5730   0.897   3.473   8.440 -3.3087 -0.7280 -1.7986
   44CHL1  H26B 5731   0.880   3.371   8.584  0.1062 -1.4549 -0.4743
   44CHL1  H26C 5732   0.735   3.459   8.526  0.5469 -1.6675  1.2122
   44CHL1   C27 5733   0.831   3.719   8.552  0.0680  0.4027  0.7262
   44CHL1  H27A 5734   0.857   3.710   8.444 -0.9639 -2.4324  0.6388
   44CHL1  H27B 5735   0.720   3.722   8.555  0.0158 -1.1301  1.5402
   44CHL1  H27C 5736   0.877   3.810   8.596 -0.6677  1.0716  0.1465
   45CHL1    C3 5737   3.109   2.434  10.198 -0.2968  0.4508  0.6885
   45CHL1    H3 5738   3.155   2.337  10.221  0.8166  0.9727  0.7073
   45CHL1    O3 5739   3.082   2.502  10.323 -0.6763  0.0432  0.4417
   45CHL1   H3' 5740   3.044   2.587  10.300 -1.2294 -0.9341 -2.9007
   45CHL1    C4 5741   3.211   2.518  10.122  0.0239 -0.2445 -0.2950
   45CHL1   H4A 5742   3.177   2.622  10.101  0.3396 -0.2879 -1.0490
   45CHL1   H4B 5743   3.304   2.535  10.182  0.9513 -1.0750 -1.4565
   45CHL1    C5 5744   3.242   2.453   9.991 -1.1522 -0.3524 -0.6820
   45CHL1    C6 5745   3.366   2.411   9.973 -0.2263 -0.4732 -0.2738
   45CHL1    H6 5746   3.441   2.431  10.052  0.5577 -0.7901 -0.9256
   45CHL1    C7 5747   3.415   2.348   9.845  0.3339 -0.3466  0.4017
   45CHL1   H7A 5748   3.507   2.395   9.804 -1.1448  0.6223 -2.0466
   45CHL1   H7B 5749   3.440   2.245   9.877  0.8932 -1.3491 -2.8970
   45CHL1    C8 5750   3.299   2.343   9.729  0.3323 -0.5164  0.6254
   45CHL1    H8 5751   3.308   2.241   9.687 -0.7117  0.4522 -2.1882
   45CHL1   C14 5752   3.328   2.442   9.617 -0.4191 -0.2741  0.2307
   45CHL1   H14 5753   3.346   2.543   9.662  1.1091  0.1884 -1.2831
   45CHL1   C15 5754   3.460   2.396   9.545 -0.2543 -0.2918  0.5531
   45CHL1  H15A 5755   3.535   2.478   9.544 -0.2628 -0.2745 -0.9988
   45CHL1  H15B 5756   3.503   2.309   9.600  0.7964 -1.0165 -1.3166
   45CHL1   C16 5757   3.425   2.362   9.400 -0.3375  0.5283 -0.2280
   45CHL1  H16A 5758   3.441   2.445   9.327  0.6755  0.7420  0.2332
   45CHL1  H16B 5759   3.487   2.276   9.369  1.9651  1.5944  1.2009
   45CHL1   C17 5760   3.269   2.339   9.409  1.0451 -0.1212  0.9702
   45CHL1   H17 5761   3.245   2.243   9.460 -0.4690  0.3154  1.1393
   45CHL1   C13 5762   3.220   2.450   9.507  0.1708  0.2754  0.7899
   45CHL1   C18 5763   3.227   2.578   9.425  0.0550  0.8323 -0.1125
   45CHL1  H18A 5764   3.202   2.662   9.492 -1.2710  0.4483 -0.0992
   45CHL1  H18B 5765   3.329   2.602   9.387  0.5506 -2.7787 -1.5085
   45CHL1  H18C 5766   3.158   2.572   9.338  1.4114 -4.9765 -1.2603
   45CHL1   C12 5767   3.073   2.433   9.550  0.6661  0.1367 -0.2291
   45CHL1  H12A 5768   3.039   2.537   9.567  0.7995  0.2729 -0.7884
   45CHL1  H12B 5769   3.014   2.388   9.467  2.9896 -0.2803 -1.7378
   45CHL1   C11 5770   3.061   2.325   9.663  0.1925 -0.4761  0.1314
   45CHL1  H11A 5771   2.955   2.314   9.695  0.2774 -3.2066 -0.2969
   45CHL1  H11B 5772   3.081   2.228   9.614 -1.2810 -0.0849 -1.3613
   45CHL1    C9 5773   3.157   2.343   9.782  0.4369  0.7803  0.1420
   45CHL1    H9 5774   3.154   2.240   9.823  2.7235  0.6282  0.0473
   45CHL1   C10 5775   3.122   2.441   9.896 -0.1592 -0.8278 -0.0428
   45CHL1   C19 5776   3.094   2.582   9.838  0.2292  0.5220  0.4874
   45CHL1  H19A 5777   3.065   2.652   9.919  0.9097  0.2741  0.9619
   45CHL1  H19B 5778   3.182   2.623   9.783 -0.5225  1.1786 -0.2574
   45CHL1  H19C 5779   3.006   2.574   9.771 -2.4066  2.7023  3.4083
   45CHL1    C1 5780   3.002   2.390   9.973 -0.4795 -0.1115 -0.3214
   45CHL1   H1A 5781   2.912   2.399   9.908 -1.2546  1.4141  0.9142
   45CHL1   H1B 5782   3.014   2.280   9.984  1.0182 -0.0178 -0.8512
   45CHL1    C2 5783   2.981   2.429  10.120  0.4731  0.2030  0.1099
   45CHL1   H2A 5784   2.905   2.360  10.163 -0.3764 -0.0454 -1.6703
   45CHL1   H2B 5785   2.941   2.532  10.117  0.7373  0.3522  1.4462
   45CHL1   C20 5786   3.204   2.321   9.266 -0.2448  0.5758  0.3757
   45CHL1   H20 5787   3.099   2.358   9.265 -0.7742 -0.8472 -0.8351
   45CHL1   C21 5788   3.195   2.169   9.240 -0.5109  0.0098 -0.6976
   45CHL1  H21A 5789   3.294   2.119   9.238 -1.0719 -1.1609  0.0009
   45CHL1  H21B 5790   3.165   2.153   9.135 -1.3405  0.4837 -0.5367
   45CHL1  H21C 5791   3.128   2.122   9.315  2.0222  2.6962  3.6692
   45CHL1   C22 5792   3.267   2.399   9.143 -0.3795  0.1808  0.2497
   45CHL1  H22A 5793   3.281   2.505   9.172 -2.0828  1.3196 -2.6226
   45CHL1  H22B 5794   3.366   2.355   9.120 -0.7609 -0.5944  0.0545
   45CHL1   C23 5795   3.175   2.410   9.018  0.5298  0.1509 -0.2928
   45CHL1  H23A 5796   3.152   2.311   8.974 -0.9097 -0.2720  1.2938
   45CHL1  H23B 5797   3.074   2.450   9.042 -0.2869 -1.8329 -0.2567
   45CHL1   C24 5798   3.229   2.506   8.911  0.2284  0.4637 -0.5546
   45CHL1  H24A 5799   3.285   2.591   8.955 -0.7336  1.3905 -1.0668
   45CHL1  H24B 5800   3.307   2.449   8.856 -1.2994 -0.3098 -2.0125
   45CHL1   C25 5801   3.130   2.557   8.807  0.0085  0.5865 -0.2943
   45CHL1   H25 5802   3.077   2.467   8.769 -0.3744 -0.0580  1.6282
   45CHL1   C26 5803   3.009   2.642   8.858  0.0045  0.0710  0.1141
   45CHL1  H26A 5804   2.937   2.581   8.916  1.1218 -1.0835  0.3466
   45CHL1  H26B 5805   3.061   2.719   8.920  1.6441 -0.6150 -0.3528
   45CHL1  H26C 5806   2.969   2.696   8.770 -0.3560 -0.2764  0.0616
   45CHL1   C27 5807   3.203   2.627   8.692  0.3540  0.0685  0.1565
   45CHL1  H27A 5808   3.266   2.554   8.638 -0.0143 -0.2692  0.1820
   45CHL1  H27B 5809   3.139   2.671   8.612 -0.7718 -1.7616 -0.0046
   45CHL1  H27C 5810   3.268   2.705   8.737  1.0460 -0.9927  1.0579
   46CHL1    C3 5811   0.545   5.987  10.085 -0.0033 -0.6146 -0.0878
   46CHL1    H3 5812   0.539   6.096  10.104  0.6238 -0.6378  0.2957
   46CHL1    O3 5813   0.598   5.929  10.208 -0.0854 -0.3770 -0.5872
   46CHL1   H3' 5814   0.548   5.973  10.277  3.2221  0.3569  1.5386
   46CHL1    C4 5815   0.414   5.915  10.042 -0.4821 -0.5639 -0.0238
   46CHL1   H4A 5816   0.430   5.806  10.025  0.6976 -0.1992 -1.5463
   46CHL1   H4B 5817   0.341   5.932  10.124 -0.6177 -0.4673 -0.1646
   46CHL1    C5 5818   0.366   5.979   9.910  0.3217  0.3822  0.2689
   46CHL1    C6 5819   0.248   6.034   9.906 -0.5735  0.0312  0.8336
   46CHL1    H6 5820   0.187   6.032   9.997  1.1843 -1.2022  2.0442
   46CHL1    C7 5821   0.193   6.087   9.779 -0.1169  0.6307  0.0768
   46CHL1   H7A 5822   0.091   6.046   9.768 -0.2060  0.6546  0.7847
   46CHL1   H7B 5823   0.186   6.197   9.795 -0.3404  0.4022  1.7569
   46CHL1    C8 5824   0.270   6.041   9.652 -0.5828  0.5664  0.1119
   46CHL1    H8 5825   0.243   5.934   9.642  1.3003  0.2727 -2.8415
   46CHL1   C14 5826   0.235   6.124   9.529  0.6357  0.7125 -0.0857
   46CHL1   H14 5827   0.287   6.221   9.547  0.3593  0.7141  0.7658
   46CHL1   C15 5828   0.091   6.155   9.497  0.1240 -0.1352 -0.6429
   46CHL1  H15A 5829   0.027   6.068   9.521  0.8851 -0.5194  0.0582
   46CHL1  H15B 5830   0.055   6.245   9.552 -0.0519 -1.3268  1.2949
   46CHL1   C16 5831   0.087   6.193   9.345 -0.3956 -0.4001 -0.1610
   46CHL1  H16A 5832   0.033   6.111   9.291 -1.6415  0.0658  0.3450
   46CHL1  H16B 5833   0.050   6.295   9.323 -1.0844 -0.5718  0.1728
   46CHL1   C17 5834   0.238   6.188   9.310 -0.0064 -0.6581  0.5016
   46CHL1   H17 5835   0.277   6.286   9.344  0.0353  0.8947 -3.4875
   46CHL1   C13 5836   0.299   6.081   9.400  0.1590  0.8079 -0.2306
   46CHL1   C18 5837   0.263   5.939   9.354 -1.2023 -0.3749 -0.4634
   46CHL1  H18A 5838   0.152   5.938   9.363 -1.0774 -2.0104  1.5250
   46CHL1  H18B 5839   0.304   5.913   9.255  2.8411 -0.0354  0.9477
   46CHL1  H18C 5840   0.298   5.863   9.427  0.5116  2.5587  2.0845
   46CHL1   C12 5841   0.449   6.104   9.425 -0.0209  0.2404  0.4634
   46CHL1  H12A 5842   0.510   6.071   9.338 -0.8019  1.4091 -0.5663
   46CHL1  H12B 5843   0.459   6.214   9.437 -1.2043  0.4088  0.0708
   46CHL1   C11 5844   0.502   6.023   9.542  0.5691  0.3324  0.1174
   46CHL1  H11A 5845   0.512   5.917   9.509 -1.5852 -0.5129  1.9163
   46CHL1  H11B 5846   0.607   6.051   9.564  1.7155 -2.1402 -1.6742
   46CHL1    C9 5847   0.423   6.048   9.675  0.5280 -0.0695 -0.6136
   46CHL1    H9 5848   0.443   6.154   9.702 -0.5352  0.2936 -1.2199
   46CHL1   C10 5849   0.468   5.968   9.799  0.9485 -0.0219  0.2762
   46CHL1   C19 5850   0.489   5.816   9.744 -0.0080  0.8936 -0.2887
   46CHL1  H19A 5851   0.405   5.777   9.683  0.3251  0.7340 -0.6484
   46CHL1  H19B 5852   0.589   5.805   9.696 -0.1344 -2.4153 -0.0546
   46CHL1  H19C 5853   0.493   5.748   9.832  0.0562  0.2925 -0.7472
   46CHL1    C1 5854   0.602   6.028   9.849 -0.0050  0.1130  1.6498
   46CHL1   H1A 5855   0.676   6.017   9.767 -0.5141  0.3319  1.1580
   46CHL1   H1B 5856   0.584   6.136   9.862 -2.5608 -0.2253  1.3957
   46CHL1    C2 5857   0.652   5.963   9.977  0.0150  0.0562  0.0130
   46CHL1   H2A 5858   0.740   6.023  10.007 -2.1147  3.8258 -0.6668
   46CHL1   H2B 5859   0.690   5.858   9.974 -1.5936 -0.5287 -0.7496
   46CHL1   C20 5860   0.275   6.198   9.158 -0.0472  0.4819 -0.0084
   46CHL1   H20 5861   0.381   6.165   9.153 -0.6645 -1.5510 -0.8796
   46CHL1   C21 5862   0.271   6.341   9.101 -0.1074  0.3334 -0.1079
   46CHL1  H21A 5863   0.167   6.377   9.090 -1.3729 -2.0980  2.6422
   46CHL1  H21B 5864   0.321   6.352   9.002 -1.5157 -0.9590 -0.9887
   46CHL1  H21C 5865   0.322   6.411   9.171 -0.9001 -0.4487  1.2925
   46CHL1   C22 5866   0.191   6.108   9.069 -0.8626 -0.0477 -0.8460
   46CHL1  H22A 5867   0.198   6.005   9.110  2.1036  0.1832 -0.5437
   46CHL1  H22B 5868   0.088   6.149   9.080  0.1924  2.8987 -1.0462
   46CHL1   C23 5869   0.245   6.100   8.926  0.4613  0.2593 -0.5018
   46CHL1  H23A 5870   0.257   6.195   8.870  0.4235 -1.1719 -3.0673
   46CHL1  H23B 5871   0.351   6.068   8.915  0.2912 -1.3146  1.6831
   46CHL1   C24 5872   0.149   6.005   8.847 -0.0396 -0.7068 -0.6734
   46CHL1  H24A 5873   0.144   5.900   8.883  0.3913 -0.6347 -0.4024
   46CHL1  H24B 5874   0.046   6.047   8.848  0.2561  0.1351 -2.4046
   46CHL1   C25 5875   0.180   5.986   8.699  0.7386 -0.3773  0.5289
   46CHL1   H25 5876   0.201   6.087   8.656 -1.7211  0.4445  1.0877
   46CHL1   C26 5877   0.311   5.915   8.666 -0.3473  0.1637  0.2871
   46CHL1  H26A 5878   0.298   5.806   8.684 -0.0079 -0.2184 -1.5163
   46CHL1  H26B 5879   0.343   5.921   8.560  0.4523 -2.1704  0.3491
   46CHL1  H26C 5880   0.395   5.938   8.735  1.5517 -1.3409 -1.3986
   46CHL1   C27 5881   0.065   5.928   8.613  0.3419  0.1284  0.2544
   46CHL1  H27A 5882  -0.028   5.988   8.612  1.0104  1.1888  0.7091
   46CHL1  H27B 5883   0.100   5.924   8.507  0.3490 -0.0450  0.2631
   46CHL1  H27C 5884   0.046   5.824   8.647 -0.0016 -0.7142 -2.2819
   47CHL1    C3 5885   1.181   3.943  10.200  0.0099 -0.4270 -0.7086
   47CHL1    H3 5886   1.128   4.040  10.208 -0.4635 -0.8061  1.3972
   47CHL1    O3 5887   1.182   3.893  10.337 -0.9039  0.0616 -0.1845
   47CHL1   H3' 5888   1.183   3.797  10.336  1.3809  0.0153 -1.0492
   47CHL1    C4 5889   1.124   3.831  10.118 -0.0720 -0.7469 -0.8561
   47CHL1   H4A 5890   1.177   3.735  10.135 -0.5932 -1.2570 -1.9783
   47CHL1   H4B 5891   1.023   3.810  10.159  0.5269 -1.7029  0.1755
   47CHL1    C5 5892   1.138   3.860   9.974  0.1374 -0.2639  0.6474
   47CHL1    C6 5893   1.031   3.872   9.889  0.0250  0.1739 -0.4212
   47CHL1    H6 5894   0.938   3.841   9.939  0.9769  2.0997  2.8401
   47CHL1    C7 5895   1.034   3.875   9.739 -0.9409 -0.1352  1.1112
   47CHL1   H7A 5896   0.972   3.791   9.703  1.6202 -1.7761  0.2860
   47CHL1   H7B 5897   0.993   3.976   9.714 -0.9609 -0.8868 -2.2601
   47CHL1    C8 5898   1.178   3.864   9.683  0.3561 -0.0842  0.1622
   47CHL1    H8 5899   1.202   3.756   9.696  0.2901  0.1665  3.0581
   47CHL1   C14 5900   1.193   3.918   9.544 -0.4960 -0.4846 -0.3406
   47CHL1   H14 5901   1.178   4.028   9.550 -0.1962 -0.5169  2.6244
   47CHL1   C15 5902   1.092   3.873   9.434  0.5574  0.0965  0.3514
   47CHL1  H15A 5903   1.071   3.763   9.435  0.4189  0.1224  0.4595
   47CHL1  H15B 5904   1.001   3.933   9.453 -1.1268 -1.3166 -2.4734
   47CHL1   C16 5905   1.159   3.918   9.304 -0.1495 -0.5921 -0.7420
   47CHL1  H16A 5906   1.169   3.825   9.244  1.1400 -0.8396 -0.1577
   47CHL1  H16B 5907   1.100   3.998   9.254  0.6364  1.6110  1.6276
   47CHL1   C17 5908   1.306   3.963   9.333 -1.2729 -0.9499 -0.4868
   47CHL1   H17 5909   1.307   4.073   9.348  0.1868 -0.8080 -1.3937
   47CHL1   C13 5910   1.334   3.906   9.478  0.0053  0.0998  0.5816
   47CHL1   C18 5911   1.379   3.765   9.468  0.2992  0.4612  0.3327
   47CHL1  H18A 5912   1.382   3.711   9.566  0.4004 -0.8142 -0.3573
   47CHL1  H18B 5913   1.318   3.705   9.397 -0.4950 -0.0584  1.4155
   47CHL1  H18C 5914   1.486   3.762   9.440  0.4809 -3.8762  0.7098
   47CHL1   C12 5915   1.430   3.993   9.565 -0.0898 -0.1140 -0.0412
   47CHL1  H12A 5916   1.531   3.988   9.518 -0.3283 -1.5786 -0.4487
   47CHL1  H12B 5917   1.407   4.102   9.565 -1.8012 -0.4525  0.2736
   47CHL1   C11 5918   1.424   3.939   9.711 -0.3955  0.0753 -1.4052
   47CHL1  H11A 5919   1.479   3.842   9.714  1.3018  0.9775 -1.5849
   47CHL1  H11B 5920   1.489   4.003   9.775  0.0598 -0.8803 -0.8900
   47CHL1    C9 5921   1.282   3.940   9.767 -0.2709  0.1536 -0.0844
   47CHL1    H9 5922   1.250   4.046   9.760  0.1351  0.1602 -3.2383
   47CHL1   C10 5923   1.280   3.894   9.920  0.1867 -0.1449  0.1670
   47CHL1   C19 5924   1.367   3.761   9.918  0.4151 -0.5021  0.3737
   47CHL1  H19A 5925   1.333   3.693   9.999 -3.7787 -1.1799 -1.6812
   47CHL1  H19B 5926   1.359   3.703   9.824 -1.4026 -1.3338  0.9912
   47CHL1  H19C 5927   1.475   3.785   9.929  0.6099 -0.4348 -1.4128
   47CHL1    C1 5928   1.337   4.004  10.014  0.4340  0.1893  0.1034
   47CHL1   H1A 5929   1.446   4.019   9.996  0.3886 -0.2112 -0.5137
   47CHL1   H1B 5930   1.284   4.097   9.985  3.0991  1.0080 -2.6030
   47CHL1    C2 5931   1.327   3.964  10.161 -0.2451  0.2674 -0.4332
   47CHL1   H2A 5932   1.375   4.039  10.227 -2.2754 -0.6710  2.2825
   47CHL1   H2B 5933   1.393   3.875  10.173  0.9751  1.0955 -0.8078
   47CHL1   C20 5934   1.411   3.933   9.219 -0.3986  0.1625  0.9051
   47CHL1   H20 5935   1.429   3.824   9.222  1.2963  0.3895  4.4910
   47CHL1   C21 5936   1.538   4.008   9.245  0.6335 -0.2390  1.0321
   47CHL1  H21A 5937   1.514   4.114   9.270  1.7654  0.1239  0.6670
   47CHL1  H21B 5938   1.602   4.014   9.154 -1.1508  1.2283 -0.2047
   47CHL1  H21C 5939   1.593   3.957   9.327 -0.0588 -0.3267  1.4417
   47CHL1   C22 5940   1.352   3.974   9.080  0.0063  1.0781 -0.0935
   47CHL1  H22A 5941   1.251   3.928   9.078 -1.1550  3.2267  2.5968
   47CHL1  H22B 5942   1.332   4.083   9.070 -0.4588  1.0075  0.0551
   47CHL1   C23 5943   1.426   3.921   8.958  0.2186  1.2924 -0.1918
   47CHL1  H23A 5944   1.533   3.949   8.967  0.4300  0.8332 -1.2038
   47CHL1  H23B 5945   1.425   3.810   8.959  1.2232  1.2670  1.0335
   47CHL1   C24 5946   1.370   3.978   8.825  0.7293 -0.2648  0.8930
   47CHL1  H24A 5947   1.401   4.084   8.831  1.5836 -0.4675  0.1933
   47CHL1  H24B 5948   1.420   3.933   8.737 -2.3547  0.4617 -1.3886
   47CHL1   C25 5949   1.219   3.958   8.803  0.3892  0.1237  0.4888
   47CHL1   H25 5950   1.164   4.014   8.882  1.4876  0.5995  0.9326
   47CHL1   C26 5951   1.189   4.013   8.666 -0.3607 -0.0151 -0.8814
   47CHL1  H26A 5952   1.213   4.122   8.659 -0.4445  0.0180 -0.6396
   47CHL1  H26B 5953   1.080   4.012   8.646 -0.5167  2.6313 -0.5092
   47CHL1  H26C 5954   1.251   3.964   8.588  1.2878  1.4845 -0.5979
   47CHL1   C27 5955   1.174   3.809   8.809 -0.0134 -0.4411 -0.1326
   47CHL1  H27A 5956   1.209   3.754   8.718 -3.1754 -3.2170  0.1345
   47CHL1  H27B 5957   1.222   3.760   8.897  0.5109 -2.2302 -1.3431
   47CHL1  H27C 5958   1.064   3.796   8.810  0.2229 -3.0665 -0.8658
   48CHL1    C3 5959   2.480   4.373  10.005 -0.5322 -0.4881 -0.3587
   48CHL1    H3 5960   2.568   4.306  10.012 -0.7350 -0.7659 -0.4771
   48CHL1    O3 5961   2.391   4.366  10.117 -0.3949  0.0479  0.2847
   48CHL1   H3' 5962   2.388   4.272  10.134  1.8796  0.0552  1.1758
   48CHL1    C4 5963   2.522   4.522   9.975  0.4579 -0.0152 -0.0726
   48CHL1   H4A 5964   2.428   4.581   9.971  0.3297 -0.2807 -1.2278
   48CHL1   H4B 5965   2.571   4.576  10.059 -2.8560  0.5986  1.6190
   48CHL1    C5 5966   2.603   4.531   9.849 -0.2232 -1.3115  0.9013
   48CHL1    C6 5967   2.713   4.612   9.840  0.0019 -0.4302  0.4211
   48CHL1    H6 5968   2.744   4.658   9.935 -0.2925 -0.1944  0.4056
   48CHL1    C7 5969   2.794   4.644   9.722 -0.1989  0.3147 -0.0968
   48CHL1   H7A 5970   2.807   4.753   9.705 -3.6159  1.0393  1.1625
   48CHL1   H7B 5971   2.891   4.589   9.725 -0.1626  0.4088  0.6591
   48CHL1    C8 5972   2.722   4.591   9.588 -0.2483  0.0273 -0.4382
   48CHL1    H8 5973   2.644   4.669   9.571  0.7844  1.2667  0.2869
   48CHL1   C14 5974   2.819   4.588   9.475 -0.4014 -0.2306  1.3433
   48CHL1   H14 5975   2.895   4.507   9.485 -1.5311 -2.1636 -3.2821
   48CHL1   C15 5976   2.891   4.712   9.432  0.0035 -0.4259  0.9768
   48CHL1  H15A 5977   2.806   4.783   9.439  0.4990  0.5781 -1.8564
   48CHL1  H15B 5978   2.967   4.747   9.504  0.9674 -1.4453  0.4834
   48CHL1   C16 5979   2.945   4.684   9.288  0.0258  0.0218 -0.1676
   48CHL1  H16A 5980   2.928   4.774   9.226 -0.7474 -0.8386 -1.2556
   48CHL1  H16B 5981   3.054   4.665   9.282 -0.2730 -1.5333 -1.5424
   48CHL1   C17 5982   2.862   4.569   9.240 -0.0210  0.6876 -0.0642
   48CHL1   H17 5983   2.925   4.480   9.264 -1.9859 -1.2482 -1.6388
   48CHL1   C13 5984   2.748   4.542   9.344  0.2130  0.2558 -0.3065
   48CHL1   C18 5985   2.628   4.636   9.311  0.6267 -0.0763 -0.9887
   48CHL1  H18A 5986   2.546   4.635   9.386 -2.0570  1.5711 -3.7043
   48CHL1  H18B 5987   2.671   4.738   9.305  0.0721  0.6369  3.6090
   48CHL1  H18C 5988   2.570   4.617   9.218 -2.0366  0.5059  0.4661
   48CHL1   C12 5989   2.695   4.392   9.369  0.2049  0.3617  0.7082
   48CHL1  H12A 5990   2.641   4.361   9.277 -1.3746 -0.3004  1.8164
   48CHL1  H12B 5991   2.784   4.328   9.386  1.6866  2.1772  0.0898
   48CHL1   C11 5992   2.590   4.395   9.487  0.1418  0.8564 -0.3746
   48CHL1  H11A 5993   2.497   4.437   9.443 -1.1599 -0.7463  0.7663
   48CHL1  H11B 5994   2.561   4.292   9.515  2.3665 -0.0673 -1.2369
   48CHL1    C9 5995   2.654   4.455   9.614  0.0460  0.2426 -0.0505
   48CHL1    H9 5996   2.727   4.382   9.654 -0.2943 -0.4082 -0.5803
   48CHL1   C10 5997   2.547   4.468   9.721  0.0227  0.4165 -0.2043
   48CHL1   C19 5998   2.430   4.557   9.673 -0.3747 -0.3594  0.7182
   48CHL1  H19A 5999   2.373   4.518   9.586 -0.7295 -0.6748  1.0872
   48CHL1  H19B 6000   2.359   4.575   9.756 -1.0650  0.5834 -0.0498
   48CHL1  H19C 6001   2.466   4.654   9.635  0.5072 -1.2246 -0.7591
   48CHL1    C1 6002   2.490   4.323   9.760  0.1588  0.2810  1.0280
   48CHL1   H1A 6003   2.422   4.302   9.675  1.2948  0.7111 -0.0093
   48CHL1   H1B 6004   2.574   4.252   9.768  0.3024  0.3778  0.3943
   48CHL1    C2 6005   2.405   4.318   9.885  0.5549  0.0773  0.7265
   48CHL1   H2A 6006   2.367   4.215   9.901 -2.6311  0.3875 -3.2289
   48CHL1   H2B 6007   2.319   4.384   9.861  1.1941  0.1130 -1.7391
   48CHL1   C20 6008   2.828   4.569   9.096 -0.8323  0.5339 -0.5565
   48CHL1   H20 6009   2.741   4.502   9.077  0.1712 -0.5683 -1.4368
   48CHL1   C21 6010   2.947   4.495   9.033  0.3228  0.4736 -0.0601
   48CHL1  H21A 6011   3.035   4.562   9.041 -0.2251  0.9185  3.9486
   48CHL1  H21B 6012   2.920   4.468   8.928  2.8701 -1.4533 -0.3369
   48CHL1  H21C 6013   2.969   4.394   9.074 -0.5036  0.1031 -0.5154
   48CHL1   C22 6014   2.788   4.701   9.022 -0.7257  0.0372 -0.8235
   48CHL1  H22A 6015   2.709   4.749   9.084  0.4489  0.7193  0.1862
   48CHL1  H22B 6016   2.875   4.770   9.026 -0.2788 -0.5680  0.4553
   48CHL1   C23 6017   2.764   4.692   8.875 -0.2461  0.0773  0.8179
   48CHL1  H23A 6018   2.847   4.649   8.815 -0.3009  3.3824 -1.8798
   48CHL1  H23B 6019   2.676   4.625   8.860 -1.1089  1.1291  1.0447
   48CHL1   C24 6020   2.726   4.823   8.806 -0.1427 -0.1505  0.0425
   48CHL1  H24A 6021   2.642   4.876   8.857  0.3800 -0.4443  1.2588
   48CHL1  H24B 6022   2.816   4.886   8.821  1.1750 -1.9172 -0.2418
   48CHL1   C25 6023   2.701   4.815   8.653  0.9376 -0.6697 -0.5856
   48CHL1   H25 6024   2.759   4.733   8.604 -0.1352 -1.8741  0.0957
   48CHL1   C26 6025   2.545   4.784   8.630 -1.3130 -0.1766  0.4078
   48CHL1  H26A 6026   2.526   4.732   8.534 -1.5755  0.5291  0.0718
   48CHL1  H26B 6027   2.517   4.726   8.720  3.2485 -2.5667  0.5877
   48CHL1  H26C 6028   2.483   4.876   8.636 -0.8909  0.0989  0.6307
   48CHL1   C27 6029   2.725   4.950   8.579 -0.1561  0.0635  0.5042
   48CHL1  H27A 6030   2.834   4.962   8.562 -0.2890 -0.1507 -0.5512
   48CHL1  H27B 6031   2.685   4.942   8.476  0.4577  1.1254  0.1641
   48CHL1  H27C 6032   2.686   5.038   8.635 -1.5970 -1.5923  2.2314
   49CHL1    C3 6033   0.365   5.139  10.081 -0.0362  0.4546  0.1710
   49CHL1    H3 6034   0.289   5.066  10.050 -1.4737  2.0991 -0.3444
   49CHL1    O3 6035   0.411   5.116  10.213 -0.3932 -0.3786 -0.0046
   49CHL1   H3' 6036   0.496   5.158  10.228 -0.1159 -0.4550 -1.2459
   49CHL1    C4 6037   0.486   5.139   9.981  0.5167 -0.2550  0.3281
   49CHL1   H4A 6038   0.562   5.205  10.028  1.2739  0.5064 -1.8131
   49CHL1   H4B 6039   0.536   5.041   9.991  0.3331 -0.4515 -0.6088
   49CHL1    C5 6040   0.440   5.174   9.845 -0.4359  0.7282 -0.3437
   49CHL1    C6 6041   0.446   5.082   9.749 -0.4968  0.0013  0.3094
   49CHL1    H6 6042   0.481   4.982   9.780 -1.4525 -0.0836  1.1761
   49CHL1    C7 6043   0.451   5.120   9.607 -0.2323  0.3101 -0.3722
   49CHL1   H7A 6044   0.530   5.068   9.549 -0.0188  1.0604 -0.7528
   49CHL1   H7B 6045   0.355   5.084   9.564  0.1388 -0.1302 -0.8473
   49CHL1    C8 6046   0.444   5.276   9.586  0.9686  0.5098 -0.7589
   49CHL1    H8 6047   0.547   5.313   9.606  1.2900 -0.6857 -0.1557
   49CHL1   C14 6048   0.389   5.297   9.446  0.1805  1.1108 -0.2199
   49CHL1   H14 6049   0.288   5.250   9.442 -0.6391  2.8956 -1.7553
   49CHL1   C15 6050   0.473   5.231   9.335  0.7828 -0.2138  0.0509
   49CHL1  H15A 6051   0.581   5.251   9.351 -0.0596  4.7426  1.2079
   49CHL1  H15B 6052   0.455   5.121   9.329  1.2138 -0.5438  3.1731
   49CHL1   C16 6053   0.432   5.311   9.207 -0.2484 -0.4402 -0.0657
   49CHL1  H16A 6054   0.518   5.353   9.152  0.8442 -3.8472 -1.2139
   49CHL1  H16B 6055   0.383   5.235   9.142  0.8728  0.0091 -1.4846
   49CHL1   C17 6056   0.327   5.416   9.256 -0.3467  0.4410  0.0629
   49CHL1   H17 6057   0.228   5.366   9.261 -0.1731  0.1068  0.2030
   49CHL1   C13 6058   0.364   5.438   9.406  0.3451  0.2469  0.3217
   49CHL1   C18 6059   0.478   5.526   9.421 -0.6274  0.0267  0.3692
   49CHL1  H18A 6060   0.451   5.634   9.419 -2.2243 -0.3274  0.9056
   49CHL1  H18B 6061   0.539   5.512   9.513 -0.1741 -0.0290  0.0608
   49CHL1  H18C 6062   0.560   5.499   9.352 -2.2805 -1.3612 -1.1490
   49CHL1   C12 6063   0.253   5.493   9.505 -0.1198  0.5592 -0.1619
   49CHL1  H12A 6064   0.232   5.600   9.483  0.5993  1.2206  2.1513
   49CHL1  H12B 6065   0.162   5.432   9.485 -0.4914  1.5005 -1.5114
   49CHL1   C11 6066   0.308   5.483   9.649  0.7644  0.3786  0.5001
   49CHL1  H11A 6067   0.396   5.547   9.670  1.6932 -0.6463 -0.1237
   49CHL1  H11B 6068   0.223   5.516   9.712 -0.6473 -0.6026 -0.8349
   49CHL1    C9 6069   0.348   5.338   9.687  0.2372 -0.2279 -0.1045
   49CHL1    H9 6070   0.255   5.282   9.662 -0.0332 -0.5750  1.5514
   49CHL1   C10 6071   0.388   5.317   9.833  0.2309  0.3895 -0.0247
   49CHL1   C19 6072   0.495   5.427   9.869  0.2709 -0.0352 -0.1212
   49CHL1  H19A 6073   0.527   5.404   9.973  0.5950  1.1651  0.0626
   49CHL1  H19B 6074   0.583   5.435   9.801  1.1263 -3.2506  0.4222
   49CHL1  H19C 6075   0.453   5.528   9.887  0.6854  0.2719 -0.8658
   49CHL1    C1 6076   0.271   5.326   9.932 -0.3105  0.3095 -0.8379
   49CHL1   H1A 6077   0.229   5.429   9.932  1.1648  0.9452  0.3831
   49CHL1   H1B 6078   0.191   5.263   9.888 -0.1459 -1.2029  0.8877
   49CHL1    C2 6079   0.294   5.278  10.075 -0.6331  0.3520 -0.4961
   49CHL1   H2A 6080   0.210   5.301  10.143 -0.0549 -0.4304  0.5214
   49CHL1   H2B 6081   0.367   5.355  10.108  0.5632 -0.8247 -0.2732
   49CHL1   C20 6082   0.322   5.530   9.156 -0.1486  0.0773  0.2118
   49CHL1   H20 6083   0.416   5.587   9.170  1.1444 -2.3251  2.1188
   49CHL1   C21 6084   0.205   5.620   9.200  0.9453  0.2102 -0.2916
   49CHL1  H21A 6085   0.231   5.671   9.295  0.1680 -0.3173  0.2186
   49CHL1  H21B 6086   0.118   5.551   9.206  1.7734 -0.7406  2.8156
   49CHL1  H21C 6087   0.189   5.691   9.117 -1.2922 -1.7692 -1.7072
   49CHL1   C22 6088   0.310   5.493   9.005 -0.2901  0.7546 -1.0884
   49CHL1  H22A 6089   0.307   5.585   8.942 -0.2966  0.8427 -0.9581
   49CHL1  H22B 6090   0.400   5.433   8.982  0.1120  1.3559 -1.1088
   49CHL1   C23 6091   0.174   5.432   8.969  0.3934 -0.0836 -0.2455
   49CHL1  H23A 6092   0.153   5.341   9.030  0.6305 -0.3110 -0.5012
   49CHL1  H23B 6093   0.099   5.510   8.993 -1.3048 -2.2099  1.8626
   49CHL1   C24 6094   0.166   5.404   8.820  0.1381  0.5191 -0.2416
   49CHL1  H24A 6095   0.170   5.496   8.757 -0.0940  0.6792 -0.0229
   49CHL1  H24B 6096   0.261   5.353   8.792 -0.9730 -0.9479 -1.5780
   49CHL1   C25 6097   0.040   5.321   8.783  0.3348 -0.5317 -0.5342
   49CHL1   H25 6098   0.046   5.232   8.849  0.8174  0.6014  1.0046
   49CHL1   C26 6099  -0.091   5.396   8.797  0.8196 -0.7930  0.5820
   49CHL1  H26A 6100  -0.181   5.342   8.761 -2.2286  3.1226  1.5476
   49CHL1  H26B 6101  -0.108   5.414   8.906 -2.0348 -1.1818  0.2921
   49CHL1  H26C 6102  -0.102   5.488   8.736 -0.4672  1.0414  3.3430
   49CHL1   C27 6103   0.060   5.274   8.635 -0.1069 -0.4909 -0.2379
   49CHL1  H27A 6104  -0.010   5.188   8.633 -1.9605  0.8825  1.1142
   49CHL1  H27B 6105   0.028   5.358   8.569  1.3802 -0.6743 -1.2386
   49CHL1  H27C 6106   0.165   5.246   8.614 -0.7357 -1.9246 -1.6951
   50CHL1    C3 6107   2.334   2.421  10.174  1.2329 -0.4669 -0.8008
   50CHL1    H3 6108   2.347   2.530  10.154  0.0172 -0.1162  0.1678
   50CHL1    O3 6109   2.284   2.408  10.307 -0.6504  0.2061 -0.2843
   50CHL1   H3' 6110   2.210   2.469  10.316  0.4982  1.5790  0.3314
   50CHL1    C4 6111   2.238   2.354  10.073 -0.2121 -0.0214 -0.1460
   50CHL1   H4A 6112   2.227   2.244  10.083  0.0645  0.0225  0.7127
   50CHL1   H4B 6113   2.137   2.394  10.099  0.4186  1.4077  0.2064
   50CHL1    C5 6114   2.282   2.388   9.930  0.3713  0.6624  0.1938
   50CHL1    C6 6115   2.209   2.456   9.837  0.1686 -0.3812  1.4934
   50CHL1    H6 6116   2.115   2.507   9.862  1.2326  3.1939 -0.9952
   50CHL1    C7 6117   2.258   2.503   9.700  0.2130  0.5581  0.0860
   50CHL1   H7A 6118   2.175   2.509   9.627  0.5998 -2.2149 -0.6900
   50CHL1   H7B 6119   2.301   2.606   9.696 -2.2940  1.6749 -0.0280
   50CHL1    C8 6120   2.359   2.399   9.660  0.1911  0.7766 -0.1793
   50CHL1    H8 6121   2.301   2.307   9.638  0.5269 -0.3833  3.1695
   50CHL1   C14 6122   2.428   2.443   9.525  0.1553 -0.0685 -0.2983
   50CHL1   H14 6123   2.488   2.535   9.539  0.1383 -0.1278  0.1961
   50CHL1   C15 6124   2.337   2.472   9.404 -0.6822 -0.1227 -0.1012
   50CHL1  H15A 6125   2.255   2.399   9.421 -1.9737  1.4268  0.6167
   50CHL1  H15B 6126   2.285   2.570   9.415  0.5862  0.5691 -0.0525
   50CHL1   C16 6127   2.424   2.445   9.279  0.3933 -0.1902  0.3521
   50CHL1  H16A 6128   2.380   2.368   9.212  0.6362  1.3582 -1.7237
   50CHL1  H16B 6129   2.429   2.536   9.214  0.4799 -1.0448 -0.8710
   50CHL1   C17 6130   2.568   2.404   9.327 -0.4580  0.4656 -0.0346
   50CHL1   H17 6131   2.625   2.499   9.339 -0.5441  0.3012  2.2810
   50CHL1   C13 6132   2.540   2.351   9.470 -0.2578 -0.5568 -0.1571
   50CHL1   C18 6133   2.480   2.210   9.451  0.7832 -0.4122  0.3697
   50CHL1  H18A 6134   2.406   2.197   9.369 -3.1868 -1.1040  3.7653
   50CHL1  H18B 6135   2.572   2.154   9.425  1.8602  1.5105 -0.1377
   50CHL1  H18C 6136   2.436   2.165   9.542 -0.0179  1.7646  1.1084
   50CHL1   C12 6137   2.649   2.364   9.578  0.4839  0.1954  0.1455
   50CHL1  H12A 6138   2.726   2.288   9.550  0.3898 -0.8401  2.5371
   50CHL1  H12B 6139   2.684   2.469   9.592 -0.2233  0.8416 -2.3934
   50CHL1   C11 6140   2.595   2.314   9.714 -0.9429 -0.4274  0.2234
   50CHL1  H11A 6141   2.578   2.207   9.694 -1.1571 -0.1790 -1.0187
   50CHL1  H11B 6142   2.672   2.328   9.793  0.2386 -0.0025 -0.9677
   50CHL1    C9 6143   2.468   2.383   9.769 -0.2830 -0.6461 -0.0574
   50CHL1    H9 6144   2.508   2.486   9.784  0.7360 -0.9656 -0.4873
   50CHL1   C10 6145   2.423   2.333   9.905  0.2480  0.3410  0.4050
   50CHL1   C19 6146   2.413   2.178   9.889 -0.4694 -0.3346 -0.0497
   50CHL1  H19A 6147   2.336   2.157   9.812 -0.0664  1.1853 -0.9259
   50CHL1  H19B 6148   2.509   2.129   9.862 -0.6521 -0.7387  0.0323
   50CHL1  H19C 6149   2.376   2.124   9.979  1.1310  0.4615  1.1601
   50CHL1    C1 6150   2.528   2.374  10.015 -0.0630 -0.0531 -0.6818
   50CHL1   H1A 6151   2.623   2.317  10.003  0.0177 -0.6256  2.1951
   50CHL1   H1B 6152   2.558   2.480   9.999  0.0906  0.0594  0.2810
   50CHL1    C2 6153   2.480   2.374  10.162  0.2008 -0.0488  0.0494
   50CHL1   H2A 6154   2.549   2.441  10.217  1.2573 -1.8814  1.0252
   50CHL1   H2B 6155   2.498   2.272  10.202  0.6460  0.9522  2.5883
   50CHL1   C20 6156   2.635   2.315   9.225  0.3251 -0.3747 -0.0861
   50CHL1   H20 6157   2.582   2.219   9.207 -1.5479  1.0995 -3.2527
   50CHL1   C21 6158   2.776   2.280   9.275 -0.3504 -0.5189 -0.0639
   50CHL1  H21A 6159   2.779   2.225   9.372 -3.5873  1.0831  1.0626
   50CHL1  H21B 6160   2.830   2.375   9.296  0.3099 -1.2717  1.9594
   50CHL1  H21C 6161   2.839   2.224   9.202  0.3422 -1.6332  1.3292
   50CHL1   C22 6162   2.654   2.392   9.086 -0.0904 -0.6627 -0.0114
   50CHL1  H22A 6163   2.563   2.447   9.055  1.0176  1.3071  0.0607
   50CHL1  H22B 6164   2.724   2.476   9.104 -0.5080 -0.4896  0.8096
   50CHL1   C23 6165   2.704   2.310   8.969 -0.1507 -0.3690  0.1884
   50CHL1  H23A 6166   2.810   2.279   8.986  0.0284  0.5963  0.8781
   50CHL1  H23B 6167   2.638   2.220   8.969 -0.0632 -0.4340  0.2984
   50CHL1   C24 6168   2.692   2.375   8.833 -0.1507 -0.2147 -0.5235
   50CHL1  H24A 6169   2.592   2.419   8.814 -0.8455 -1.3747  0.3549
   50CHL1  H24B 6170   2.758   2.464   8.839 -0.3992 -0.0742  0.2724
   50CHL1   C25 6171   2.712   2.276   8.714  0.2282  0.2367 -0.0417
   50CHL1   H25 6172   2.812   2.229   8.713  0.6411  1.0904 -0.0628
   50CHL1   C26 6173   2.613   2.163   8.732 -0.0207 -0.0260  0.3703
   50CHL1  H26A 6174   2.619   2.099   8.642  0.6350 -0.6385  0.8373
   50CHL1  H26B 6175   2.656   2.107   8.818  0.1952  4.3950  3.4501
   50CHL1  H26C 6176   2.504   2.184   8.743 -0.0766  0.0278 -0.2432
   50CHL1   C27 6177   2.699   2.348   8.577  0.3396  0.0415  0.1760
   50CHL1  H27A 6178   2.713   2.268   8.501  0.2198  0.9541 -0.8271
   50CHL1  H27B 6179   2.596   2.384   8.556  0.9054  0.5969 -1.8069
   50CHL1  H27C 6180   2.776   2.427   8.564 -0.1454  0.3708 -0.7975
   51CHL1    C3 6181   5.355   3.907   9.991  0.2347  0.0473 -0.5114
   51CHL1    H3 6182   5.252   3.883   9.957  0.9121 -0.9136 -2.0218
   51CHL1    O3 6183   5.362   3.914  10.132  0.4960  0.2843 -0.7508
   51CHL1   H3' 6184   5.457   3.925  10.145  0.1781  1.9986  0.5642
   51CHL1    C4 6185   5.450   3.802   9.942 -1.0167 -0.8086 -0.1577
   51CHL1   H4A 6186   5.548   3.816   9.992 -1.9406 -0.3089  1.5973
   51CHL1   H4B 6187   5.414   3.703   9.977  3.6910 -2.2041  1.4950
   51CHL1    C5 6188   5.482   3.793   9.791  0.0319  0.6046  0.5842
   51CHL1    C6 6189   5.464   3.683   9.717 -0.1710  0.1539  0.7243
   51CHL1    H6 6190   5.437   3.585   9.758 -1.7086 -0.0284 -0.6386
   51CHL1    C7 6191   5.487   3.683   9.569 -0.2694 -0.4316  0.2199
   51CHL1   H7A 6192   5.547   3.595   9.536 -0.9533 -0.5366 -0.7810
   51CHL1   H7B 6193   5.387   3.673   9.523  1.1267 -0.2726 -3.1310
   51CHL1    C8 6194   5.551   3.811   9.508  0.0491  1.1928 -0.4721
   51CHL1    H8 6195   5.658   3.808   9.536 -0.4080  2.7467  1.6984
   51CHL1   C14 6196   5.529   3.816   9.365 -0.0022  0.3261  0.4488
   51CHL1   H14 6197   5.418   3.816   9.359  0.0335 -0.3460 -0.2916
   51CHL1   C15 6198   5.574   3.693   9.278  0.6617  0.7316 -0.0524
   51CHL1  H15A 6199   5.672   3.657   9.315  0.1827 -0.2093  0.3476
   51CHL1  H15B 6200   5.503   3.609   9.293  0.7850  0.5463 -0.4711
   51CHL1   C16 6201   5.596   3.752   9.144 -0.4104  1.0974  0.0619
   51CHL1  H16A 6202   5.703   3.739   9.117 -0.7687 -0.3641 -0.7764
   51CHL1  H16B 6203   5.544   3.700   9.061 -2.6666 -0.2719  2.2097
   51CHL1   C17 6204   5.558   3.907   9.147 -0.4367  1.3253  0.4603
   51CHL1   H17 6205   5.448   3.916   9.129 -0.7935 -0.2858  1.6025
   51CHL1   C13 6206   5.579   3.942   9.296 -0.5061  1.2701  0.4630
   51CHL1   C18 6207   5.733   3.958   9.328 -0.4899 -0.3135 -0.1101
   51CHL1  H18A 6208   5.789   3.880   9.272 -0.6118 -1.6005  1.4849
   51CHL1  H18B 6209   5.767   4.058   9.294  0.6713 -1.0286 -1.1796
   51CHL1  H18C 6210   5.764   3.954   9.434 -1.8865 -0.0315  0.3206
   51CHL1   C12 6211   5.500   4.052   9.347 -0.0409 -0.3397 -0.7444
   51CHL1  H12A 6212   5.524   4.156   9.315  0.5553  0.1106  1.0248
   51CHL1  H12B 6213   5.397   4.022   9.318  0.1656 -2.3162  0.4169
   51CHL1   C11 6214   5.506   4.058   9.508 -0.2727  1.0518  0.6746
   51CHL1  H11A 6215   5.606   4.090   9.546  1.1021 -1.4519 -0.5891
   51CHL1  H11B 6216   5.441   4.140   9.544 -0.1433  0.7279  1.6712
   51CHL1    C9 6217   5.487   3.920   9.573  0.3631 -0.3266 -0.2902
   51CHL1    H9 6218   5.380   3.890   9.565  0.8523 -2.5939  0.9482
   51CHL1   C10 6219   5.508   3.928   9.729 -0.1227 -0.0124  0.1099
   51CHL1   C19 6220   5.649   3.975   9.757 -0.1183  0.2150  0.9484
   51CHL1  H19A 6221   5.662   3.946   9.864 -2.1142 -4.0651  0.2258
   51CHL1  H19B 6222   5.714   3.909   9.697 -1.1772  0.2070 -0.2309
   51CHL1  H19C 6223   5.671   4.084   9.745  0.3916  0.0905  0.7454
   51CHL1    C1 6224   5.408   4.030   9.783 -0.5837 -0.2171  0.0273
   51CHL1   H1A 6225   5.434   4.129   9.741  1.6402 -2.0542 -3.3730
   51CHL1   H1B 6226   5.311   3.996   9.741 -0.4403 -1.7072  0.8517
   51CHL1    C2 6227   5.397   4.042   9.932  0.4134 -0.4141  0.0817
   51CHL1   H2A 6228   5.323   4.120   9.961  1.9707  0.5308  1.7731
   51CHL1   H2B 6229   5.497   4.074   9.969  0.3192 -0.5359  0.4559
   51CHL1   C20 6230   5.623   3.996   9.036  0.5924 -0.0717 -0.2944
   51CHL1   H20 6231   5.733   3.997   9.051  0.3136  0.5660  2.0155
   51CHL1   C21 6232   5.572   4.136   9.036  0.4992 -1.0160 -0.0403
   51CHL1  H21A 6233   5.606   4.175   9.135 -0.2543 -2.0227  0.6339
   51CHL1  H21B 6234   5.461   4.138   9.043  0.5199 -0.6410  0.2392
   51CHL1  H21C 6235   5.614   4.199   8.955  2.5701 -1.3923  0.6874
   51CHL1   C22 6236   5.599   3.951   8.887  0.1236 -0.1283  0.2581
   51CHL1  H22A 6237   5.601   3.842   8.908 -0.3399  0.1456  1.8424
   51CHL1  H22B 6238   5.494   3.971   8.854 -0.8850 -0.0240  3.2655
   51CHL1   C23 6239   5.700   3.990   8.778 -0.0612 -0.3288 -0.4827
   51CHL1  H23A 6240   5.700   4.101   8.771 -1.0248 -0.3528 -0.9892
   51CHL1  H23B 6241   5.797   3.946   8.810  1.0393  0.1381 -2.8815
   51CHL1   C24 6242   5.666   3.923   8.644  0.5321 -0.3526 -0.4299
   51CHL1  H24A 6243   5.645   3.814   8.645  0.9070 -0.6023 -4.4148
   51CHL1  H24B 6244   5.564   3.958   8.617  0.6259  1.3037  1.1119
   51CHL1   C25 6245   5.769   3.959   8.539 -0.5121  0.2910 -0.0532
   51CHL1   H25 6246   5.798   4.062   8.566 -2.2757  1.3209 -1.8655
   51CHL1   C26 6247   5.897   3.864   8.538  0.0960  0.3405  0.3855
   51CHL1  H26A 6248   5.882   3.764   8.491  2.5008 -0.3840  1.0213
   51CHL1  H26B 6249   5.979   3.916   8.484 -0.8450  0.4250 -1.0227
   51CHL1  H26C 6250   5.927   3.852   8.644 -1.8805  0.7874  1.0278
   51CHL1   C27 6251   5.707   3.951   8.395  0.3992 -0.5282  0.2701
   51CHL1  H27A 6252   5.610   4.006   8.392 -1.4363 -3.5837 -1.7462
   51CHL1  H27B 6253   5.770   4.004   8.320  0.4511 -0.1262  0.5926
   51CHL1  H27C 6254   5.686   3.847   8.364 -0.3814 -0.0497 -0.9257
   52CHL1    C3 6255   2.091   3.124   9.972  0.1311 -0.1031 -0.5688
   52CHL1    H3 6256   2.200   3.108   9.986 -0.1784 -0.6537  1.6909
   52CHL1    O3 6257   2.025   3.126  10.104  0.1949  0.1940 -0.2654
   52CHL1   H3' 6258   2.065   3.200  10.150 -1.1024  1.3011 -0.8696
   52CHL1    C4 6259   2.053   3.265   9.918 -0.8220  0.5561  0.0556
   52CHL1   H4A 6260   1.944   3.285   9.923 -0.8895  0.5941 -1.1574
   52CHL1   H4B 6261   2.109   3.332   9.986 -0.1262 -2.0191  2.1602
   52CHL1    C5 6262   2.090   3.285   9.771 -0.3202  0.8855  0.1480
   52CHL1    C6 6263   2.172   3.386   9.727  0.3140 -0.3564  0.2653
   52CHL1    H6 6264   2.208   3.460   9.799 -1.0619  1.8197 -1.1780
   52CHL1    C7 6265   2.214   3.413   9.592  0.1297  0.3402  0.6194
   52CHL1   H7A 6266   2.205   3.521   9.569 -0.3149  0.5610  1.7543
   52CHL1   H7B 6267   2.320   3.388   9.574  0.4473  1.4237  0.9406
   52CHL1    C8 6268   2.136   3.330   9.492 -0.1953 -0.2987  0.7847
   52CHL1    H8 6269   2.034   3.374   9.484  0.0998  0.0261 -2.0024
   52CHL1   C14 6270   2.203   3.338   9.351 -0.2382  0.0562  0.1717
   52CHL1   H14 6271   2.306   3.301   9.375  0.5277  1.6810 -0.4681
   52CHL1   C15 6272   2.237   3.474   9.288  0.5195 -0.2644 -0.6435
   52CHL1  H15A 6273   2.150   3.543   9.284  1.5673  1.0426 -1.8798
   52CHL1  H15B 6274   2.306   3.525   9.359  0.6457  0.6330 -1.3927
   52CHL1   C16 6275   2.266   3.438   9.144 -0.0492  0.4641 -0.0604
   52CHL1  H16A 6276   2.200   3.508   9.089 -0.2031  1.2026  1.0334
   52CHL1  H16B 6277   2.374   3.439   9.116 -0.2940  0.5094 -1.0305
   52CHL1   C17 6278   2.235   3.283   9.124 -0.0566  0.0019  0.3493
   52CHL1   H17 6279   2.330   3.227   9.128  0.2259  0.1519 -2.3761
   52CHL1   C13 6280   2.150   3.249   9.245  0.5007 -0.7966  1.0077
   52CHL1   C18 6281   2.004   3.305   9.214  0.6515 -0.5080  0.6159
   52CHL1  H18A 6282   2.005   3.406   9.168  1.0111 -1.1277 -0.7955
   52CHL1  H18B 6283   1.947   3.231   9.155 -1.9933  0.4925  1.7893
   52CHL1  H18C 6284   1.949   3.313   9.310  1.7201 -0.3687  1.2330
   52CHL1   C12 6285   2.159   3.098   9.295  0.1701 -0.8407 -0.3862
   52CHL1  H12A 6286   2.113   3.018   9.233  3.7345 -2.8335 -0.7187
   52CHL1  H12B 6287   2.268   3.082   9.288  0.6400  1.8393 -0.2176
   52CHL1   C11 6288   2.090   3.076   9.429  1.0152 -0.2168 -0.2949
   52CHL1  H11A 6289   1.979   3.068   9.417  0.8474  2.3133 -0.9860
   52CHL1  H11B 6290   2.128   2.982   9.474 -0.3305 -0.4116  0.5157
   52CHL1    C9 6291   2.133   3.183   9.540  0.5679 -0.2871  0.4132
   52CHL1    H9 6292   2.234   3.148   9.568  1.3535  0.1519 -1.7006
   52CHL1   C10 6293   2.052   3.176   9.677 -0.2733  0.2738  0.2293
   52CHL1   C19 6294   1.907   3.209   9.636  0.0184  0.0159 -0.6923
   52CHL1  H19A 6295   1.881   3.123   9.570 -1.9212 -0.1917  0.2828
   52CHL1  H19B 6296   1.830   3.213   9.716  1.6935 -0.0472  1.0249
   52CHL1  H19C 6297   1.891   3.309   9.592  0.2119  1.0715  1.4856
   52CHL1    C1 6298   2.065   3.026   9.734 -0.3908 -0.1123 -0.4513
   52CHL1   H1A 6299   2.001   2.964   9.667  0.3391 -0.3059 -0.9877
   52CHL1   H1B 6300   2.175   3.009   9.727  0.0237  2.4682 -1.1504
   52CHL1    C2 6301   2.027   3.006   9.883 -0.5563  0.0219  0.1633
   52CHL1   H2A 6302   2.063   2.907   9.919 -2.8931 -1.0569 -0.3239
   52CHL1   H2B 6303   1.917   3.000   9.894 -0.3299 -1.0337  2.5642
   52CHL1   C20 6304   2.191   3.260   8.984 -0.0457  0.4949  0.2120
   52CHL1   H20 6305   2.094   3.313   8.983 -0.4382 -0.2098 -1.5523
   52CHL1   C21 6306   2.157   3.114   8.960 -0.4284  0.4499 -0.4197
   52CHL1  H21A 6307   2.241   3.046   8.989 -1.6273 -1.2113 -0.6941
   52CHL1  H21B 6308   2.143   3.092   8.852  1.3589  0.7980 -0.7632
   52CHL1  H21C 6309   2.060   3.087   9.008 -0.8414  1.3487 -0.7406
   52CHL1   C22 6310   2.285   3.319   8.879 -0.2128 -0.9703  0.5169
   52CHL1  H22A 6311   2.223   3.330   8.787 -0.2278 -1.5294  0.4536
   52CHL1  H22B 6312   2.327   3.421   8.891  0.0443 -1.2120  1.8581
   52CHL1   C23 6313   2.388   3.222   8.833 -0.8833 -0.3111  0.6219
   52CHL1  H23A 6314   2.419   3.154   8.915  1.6633  2.0860  1.7861
   52CHL1  H23B 6315   2.353   3.171   8.740  0.1165  0.9152 -0.4703
   52CHL1   C24 6316   2.512   3.306   8.784 -0.1515 -0.0069 -0.2840
   52CHL1  H24A 6317   2.475   3.377   8.707 -0.1986 -1.0005 -1.2041
   52CHL1  H24B 6318   2.557   3.368   8.865  1.3262  0.6452 -1.5483
   52CHL1   C25 6319   2.624   3.213   8.727 -0.1325  0.1833 -0.8502
   52CHL1   H25 6320   2.563   3.127   8.693  0.9870 -0.5770 -0.9615
   52CHL1   C26 6321   2.707   3.282   8.618  0.0389  1.1464 -0.0358
   52CHL1  H26A 6322   2.777   3.361   8.652  1.3900 -0.2676  0.5693
   52CHL1  H26B 6323   2.769   3.216   8.553  1.5827  2.2967  0.2048
   52CHL1  H26C 6324   2.641   3.323   8.539  0.9966  0.5381 -1.1795
   52CHL1   C27 6325   2.719   3.165   8.837  0.2676 -0.0642 -0.5192
   52CHL1  H27A 6326   2.792   3.089   8.802  0.0911 -0.6780  0.4107
   52CHL1  H27B 6327   2.775   3.256   8.868  2.5158 -0.2832 -3.5464
   52CHL1  H27C 6328   2.655   3.122   8.917  0.4965 -0.7959 -0.7223
   53CHL1    C3 6329   1.436   1.113  10.001  0.0367  0.1590  0.0532
   53CHL1    H3 6330   1.509   1.038   9.965 -0.7048  0.0096 -1.1849
   53CHL1    O3 6331   1.419   1.109  10.139  0.0001  0.5112 -0.1709
   53CHL1   H3' 6332   1.358   1.180  10.160 -0.0570 -0.0211  1.5733
   53CHL1    C4 6333   1.481   1.257   9.952 -0.4836  0.0231  0.0011
   53CHL1   H4A 6334   1.413   1.333   9.997  1.0801  1.6735 -0.3137
   53CHL1   H4B 6335   1.580   1.279   9.996 -0.6217 -0.0462  0.3571
   53CHL1    C5 6336   1.492   1.275   9.801 -0.3956  0.4124 -0.4178
   53CHL1    C6 6337   1.602   1.304   9.743  0.2244 -0.5694 -0.2203
   53CHL1    H6 6338   1.694   1.315   9.801 -1.8079 -2.6399  3.7579
   53CHL1    C7 6339   1.620   1.322   9.597  0.4193  0.1497  0.3300
   53CHL1   H7A 6340   1.686   1.407   9.568 -0.3880  0.9858  0.8988
   53CHL1   H7B 6341   1.668   1.233   9.550 -0.2983  0.2791 -0.6937
   53CHL1    C8 6342   1.491   1.339   9.523 -0.5950 -0.0471  0.2503
   53CHL1    H8 6343   1.450   1.440   9.543 -0.2528 -0.1359  1.5013
   53CHL1   C14 6344   1.501   1.308   9.374 -0.2537  0.5194  0.4051
   53CHL1   H14 6345   1.516   1.198   9.369 -1.0271  0.4086  0.3888
   53CHL1   C15 6346   1.621   1.360   9.297  0.9081 -0.1338  0.2402
   53CHL1  H15A 6347   1.643   1.460   9.339 -1.8267  0.3023  0.7973
   53CHL1  H15B 6348   1.706   1.293   9.324  0.6418 -0.4871  0.2244
   53CHL1   C16 6349   1.586   1.362   9.148  0.4534 -0.0568  0.1720
   53CHL1  H16A 6350   1.588   1.470   9.124  1.7612  0.1461  1.1000
   53CHL1  H16B 6351   1.654   1.299   9.087 -0.0595 -0.6255  0.1760
   53CHL1   C17 6352   1.437   1.309   9.140  0.4970  1.3975 -0.1274
   53CHL1   H17 6353   1.445   1.198   9.138 -0.3160  1.3398 -1.5337
   53CHL1   C13 6354   1.374   1.330   9.286 -0.0311 -0.3160 -0.1876
   53CHL1   C18 6355   1.319   1.474   9.293 -0.2534 -0.2830 -0.7892
   53CHL1  H18A 6356   1.401   1.544   9.267  1.6663 -1.9783  0.3349
   53CHL1  H18B 6357   1.225   1.478   9.235 -0.8529 -3.3954 -0.2128
   53CHL1  H18C 6358   1.285   1.489   9.398  0.0990  0.2184 -0.7410
   53CHL1   C12 6359   1.271   1.235   9.334  0.1569  0.9101 -0.2171
   53CHL1  H12A 6360   1.172   1.243   9.284 -0.1134 -1.9977 -0.2896
   53CHL1  H12B 6361   1.296   1.128   9.315 -3.0511 -0.2380  1.3690
   53CHL1   C11 6362   1.258   1.238   9.487  1.1978  0.6152  0.3470
   53CHL1  H11A 6363   1.206   1.333   9.512  3.0876  1.2436  2.0592
   53CHL1  H11B 6364   1.181   1.161   9.512 -1.3479  2.2520 -1.8290
   53CHL1    C9 6365   1.392   1.234   9.574  0.5852  0.3998 -0.2989
   53CHL1    H9 6366   1.433   1.133   9.554  2.9187  0.7957  1.9814
   53CHL1   C10 6367   1.360   1.246   9.725 -0.0464  0.8852 -0.2659
   53CHL1   C19 6368   1.263   1.361   9.754 -0.2049 -0.0799  0.2004
   53CHL1  H19A 6369   1.158   1.334   9.727 -0.5712  1.8496 -0.4277
   53CHL1  H19B 6370   1.258   1.390   9.861  0.9923  2.1133 -0.2939
   53CHL1  H19C 6371   1.293   1.450   9.696 -0.5454  0.3649  0.6984
   53CHL1    C1 6372   1.312   1.103   9.776  0.1594  0.3004 -0.2226
   53CHL1   H1A 6373   1.213   1.081   9.730 -0.0669  0.7257  0.0436
   53CHL1   H1B 6374   1.372   1.015   9.747 -0.3116 -0.2680  0.5026
   53CHL1    C2 6375   1.306   1.093   9.929  0.1245 -0.2066  0.7060
   53CHL1   H2A 6376   1.255   0.999   9.959 -1.0222  0.5255  1.1264
   53CHL1   H2B 6377   1.233   1.166   9.970  0.0902 -0.2021  0.6377
   53CHL1   C20 6378   1.365   1.367   9.026  0.5447  0.3532 -0.4596
   53CHL1   H20 6379   1.358   1.477   9.038 -0.9867  0.0705  1.7053
   53CHL1   C21 6380   1.228   1.297   9.014  0.0594 -0.2903 -0.1413
   53CHL1  H21A 6381   1.242   1.187   9.007  0.8332 -0.2391  0.4217
   53CHL1  H21B 6382   1.178   1.319   8.918 -0.8127  2.3399  0.8049
   53CHL1  H21C 6383   1.151   1.336   9.084 -1.5377 -1.6478 -1.0925
   53CHL1   C22 6384   1.423   1.347   8.882  0.0840  0.3548  0.5046
   53CHL1  H22A 6385   1.347   1.380   8.808  0.5949  1.5972  0.5074
   53CHL1  H22B 6386   1.497   1.429   8.870  2.3658 -1.0341  3.5857
   53CHL1   C23 6387   1.482   1.213   8.844  0.0613  0.5241  0.6411
   53CHL1  H23A 6388   1.569   1.178   8.904  1.3078 -1.7158 -2.2382
   53CHL1  H23B 6389   1.403   1.135   8.841  0.6816 -0.0904 -0.0478
   53CHL1   C24 6390   1.532   1.205   8.696  0.0560 -0.0687  0.4067
   53CHL1  H24A 6391   1.623   1.268   8.693  0.2115 -0.2743  0.7651
   53CHL1  H24B 6392   1.543   1.098   8.669  0.3520  0.2679 -0.9007
   53CHL1   C25 6393   1.434   1.258   8.589 -0.1561  0.5171  0.7877
   53CHL1   H25 6394   1.424   1.368   8.599  0.6248  0.7479 -0.6514
   53CHL1   C26 6395   1.482   1.227   8.440  0.4050 -0.7560 -0.8506
   53CHL1  H26A 6396   1.488   1.118   8.417  2.1432 -1.2233  1.4477
   53CHL1  H26B 6397   1.410   1.267   8.366  1.2416  1.5465 -0.5080
   53CHL1  H26C 6398   1.585   1.268   8.435  0.6985 -1.5223 -1.3356
   53CHL1   C27 6399   1.297   1.197   8.595  0.3440  0.0187  0.0800
   53CHL1  H27A 6400   1.300   1.086   8.586 -0.8090 -0.1452  1.3298
   53CHL1  H27B 6401   1.244   1.210   8.692 -0.0069  1.2701 -0.2648
   53CHL1  H27C 6402   1.241   1.243   8.512  0.5142 -0.8342 -0.5233
   54CHL1    C3 6403   3.828   3.588   9.926 -0.2166 -0.6834  0.5301
   54CHL1    H3 6404   3.887   3.494   9.932  2.0343  0.7404  3.6385
   54CHL1    O3 6405   3.786   3.622  10.056  0.2560 -0.0622  0.3882
   54CHL1   H3' 6406   3.773   3.717  10.046 -1.8593 -0.3684 -0.3392
   54CHL1    C4 6407   3.926   3.700   9.878  0.0429 -0.0705 -0.3492
   54CHL1   H4A 6408   3.876   3.799   9.882  1.0882  0.6055 -2.6212
   54CHL1   H4B 6409   4.002   3.715   9.958  0.2377  0.9853 -0.7133
   54CHL1    C5 6410   3.978   3.672   9.738 -0.1185  0.2758 -0.6316
   54CHL1    C6 6411   4.107   3.679   9.706 -0.3570  0.2164  0.0555
   54CHL1    H6 6412   4.176   3.689   9.791 -1.4369 -0.3282  1.0386
   54CHL1    C7 6413   4.161   3.666   9.564  0.0414  0.5588  0.8746
   54CHL1   H7A 6414   4.237   3.744   9.542  1.5671 -1.5664 -2.0663
   54CHL1   H7B 6415   4.207   3.567   9.542 -1.7500 -0.4136  1.3204
   54CHL1    C8 6416   4.044   3.685   9.460  0.0693  0.0941 -0.0547
   54CHL1    H8 6417   4.020   3.793   9.464 -3.1876 -0.5428  0.0485
   54CHL1   C14 6418   4.095   3.641   9.322 -0.1021 -0.2879  0.5187
   54CHL1   H14 6419   4.114   3.532   9.324 -0.2018 -0.3095  0.3390
   54CHL1   C15 6420   4.232   3.691   9.276  0.0389 -0.4166 -0.0914
   54CHL1  H15A 6421   4.259   3.794   9.311 -0.4649  0.5454 -2.3696
   54CHL1  H15B 6422   4.314   3.621   9.302 -1.5546 -2.2080  0.2931
   54CHL1   C16 6423   4.221   3.696   9.125 -0.6530  0.0217 -0.1705
   54CHL1  H16A 6424   4.232   3.800   9.088  0.7332  0.1264  0.4765
   54CHL1  H16B 6425   4.293   3.636   9.065  0.1467  2.4711 -1.8401
   54CHL1   C17 6426   4.077   3.642   9.086  0.1548 -0.4823  0.5708
   54CHL1   H17 6427   4.081   3.531   9.092 -0.0408 -0.5404 -0.2439
   54CHL1   C13 6428   3.995   3.672   9.214 -0.4960  0.3072  0.5102
   54CHL1   C18 6429   3.955   3.821   9.204 -0.6533 -0.6986 -0.3717
   54CHL1  H18A 6430   3.882   3.830   9.121  0.1073 -1.3350 -1.1301
   54CHL1  H18B 6431   3.917   3.864   9.299  2.2754 -0.9470  1.0383
   54CHL1  H18C 6432   4.043   3.885   9.181 -0.7985  0.3388  1.7016
   54CHL1   C12 6433   3.879   3.577   9.247 -0.0104 -0.3429  0.1815
   54CHL1  H12A 6434   3.804   3.581   9.166  0.3847  1.0146 -0.1330
   54CHL1  H12B 6435   3.924   3.475   9.246  3.1290  0.9275 -0.1471
   54CHL1   C11 6436   3.812   3.626   9.378  0.1164  0.0651 -0.1700
   54CHL1  H11A 6437   3.776   3.731   9.370  0.8881  0.2851 -0.8729
   54CHL1  H11B 6438   3.721   3.566   9.400 -0.4691  0.1984 -2.0351
   54CHL1    C9 6439   3.916   3.615   9.498 -0.5284  0.6387  0.3245
   54CHL1    H9 6440   3.939   3.507   9.508 -1.4594  0.5312  1.4398
   54CHL1   C10 6441   3.864   3.655   9.634 -0.0081 -0.2643  0.0477
   54CHL1   C19 6442   3.801   3.796   9.616  0.2427  0.3890  0.2779
   54CHL1  H19A 6443   3.851   3.871   9.550  0.5951 -0.6525 -0.6634
   54CHL1  H19B 6444   3.705   3.781   9.563  0.6843 -2.0345  0.0587
   54CHL1  H19C 6445   3.780   3.843   9.714 -1.8295  0.4617 -0.1647
   54CHL1    C1 6446   3.772   3.553   9.687 -0.2058 -0.4331  0.4560
   54CHL1   H1A 6447   3.683   3.548   9.620  1.0004 -0.1208 -1.2281
   54CHL1   H1B 6448   3.819   3.453   9.691  0.7951  0.0767  2.5828
   54CHL1    C2 6449   3.715   3.576   9.827 -0.6300 -0.0187 -0.3668
   54CHL1   H2A 6450   3.651   3.487   9.846  0.8622 -1.3899 -1.5064
   54CHL1   H2B 6451   3.645   3.662   9.830 -1.2173 -0.5035  0.0283
   54CHL1   C20 6452   4.032   3.701   8.951 -0.2602  0.3888  0.1183
   54CHL1   H20 6453   4.051   3.810   8.943  0.2896  0.2542 -0.5319
   54CHL1   C21 6454   3.887   3.654   8.923  0.0560 -0.2723  0.1974
   54CHL1  H21A 6455   3.859   3.665   8.816  2.1197 -0.6928 -0.4264
   54CHL1  H21B 6456   3.814   3.718   8.977  0.3123  0.0152  0.2047
   54CHL1  H21C 6457   3.875   3.545   8.944 -0.6818 -0.2689 -0.1772
   54CHL1   C22 6458   4.121   3.661   8.830 -0.0003  0.8103 -0.0938
   54CHL1  H22A 6459   4.110   3.723   8.739  0.2313 -0.4394 -1.0025
   54CHL1  H22B 6460   4.226   3.667   8.867 -0.1553  2.3159  0.1488
   54CHL1   C23 6461   4.110   3.507   8.778  0.3624 -0.2055 -0.0019
   54CHL1  H23A 6462   4.127   3.433   8.859  2.2928  0.1710 -0.0252
   54CHL1  H23B 6463   4.012   3.494   8.726  2.2057 -0.6769 -3.6949
   54CHL1   C24 6464   4.221   3.477   8.670 -0.8152 -0.0984 -0.2629
   54CHL1  H24A 6465   4.195   3.547   8.587  0.9642  1.5610  0.4896
   54CHL1  H24B 6466   4.315   3.501   8.723 -1.0009 -1.2075  0.5877
   54CHL1   C25 6467   4.226   3.332   8.624  0.3223 -0.1419 -0.1853
   54CHL1   H25 6468   4.252   3.273   8.714  0.1086 -0.8645 -0.5893
   54CHL1   C26 6469   4.094   3.284   8.554 -0.3497  0.4203  0.3695
   54CHL1  H26A 6470   4.001   3.272   8.614 -1.4715 -2.7547 -1.7228
   54CHL1  H26B 6471   4.074   3.339   8.460 -0.0315 -0.5157 -0.2572
   54CHL1  H26C 6472   4.115   3.185   8.509  0.6466  0.9671 -0.3936
   54CHL1   C27 6473   4.342   3.317   8.525 -0.3468 -0.4973 -0.8332
   54CHL1  H27A 6474   4.334   3.400   8.451  0.6630 -1.5394 -2.1476
   54CHL1  H27B 6475   4.441   3.326   8.574 -1.8906 -0.7006  2.5949
   54CHL1  H27C 6476   4.345   3.215   8.482 -0.6533 -0.3054 -1.3316
   55CHL1    C3 6477   1.790   0.993   9.935  0.0500 -0.1698  0.2537
   55CHL1    H3 6478   1.714   1.065   9.899 -2.3848 -2.7615 -0.1157
   55CHL1    O3 6479   1.780   0.980  10.074  0.1857  0.0444  0.1060
   55CHL1   H3' 6480   1.737   0.896  10.090  0.0430 -0.3630 -2.1040
   55CHL1    C4 6481   1.766   0.857   9.872 -0.7393  0.2972  0.8264
   55CHL1   H4A 6482   1.846   0.787   9.904 -1.1930 -0.2494  0.7941
   55CHL1   H4B 6483   1.667   0.821   9.908 -0.9752 -1.2034 -1.1031
   55CHL1    C5 6484   1.772   0.889   9.717 -0.0902  0.0207 -0.6305
   55CHL1    C6 6485   1.672   0.852   9.640  0.1877 -0.1786  0.4184
   55CHL1    H6 6486   1.589   0.809   9.699  0.0959 -2.7627 -1.4116
   55CHL1    C7 6487   1.674   0.869   9.496 -0.2041 -0.9912 -0.3426
   55CHL1   H7A 6488   1.643   0.777   9.440 -0.2690 -1.5044  0.5222
   55CHL1   H7B 6489   1.594   0.944   9.477 -0.1762 -0.9594 -0.3343
   55CHL1    C8 6490   1.809   0.902   9.438  0.1779 -0.6910 -0.1487
   55CHL1    H8 6491   1.861   0.804   9.425 -0.2134 -1.0672  1.0210
   55CHL1   C14 6492   1.791   0.962   9.300  0.8622  0.7285 -0.1111
   55CHL1   H14 6493   1.740   1.061   9.302  0.0884  0.3711 -1.1113
   55CHL1   C15 6494   1.699   0.886   9.203  0.5213 -0.1553  0.5654
   55CHL1  H15A 6495   1.713   0.778   9.221  3.0510  0.1308  0.7421
   55CHL1  H15B 6496   1.590   0.899   9.221 -0.3347 -2.4424 -2.4018
   55CHL1   C16 6497   1.746   0.935   9.062 -0.3417  0.0219  0.6611
   55CHL1  H16A 6498   1.785   0.851   9.001 -0.8017  0.1519  0.1837
   55CHL1  H16B 6499   1.663   0.993   9.017 -0.6072 -0.1109  0.9758
   55CHL1   C17 6500   1.871   1.035   9.083 -0.1002  0.8229  0.4087
   55CHL1   H17 6501   1.837   1.136   9.115 -0.5033  1.3107 -1.4777
   55CHL1   C13 6502   1.920   0.983   9.223 -0.8837  0.5643 -0.0321
   55CHL1   C18 6503   2.000   0.851   9.196 -0.6050  0.9123 -0.3838
   55CHL1  H18A 6504   1.941   0.773   9.143 -1.7918  1.0692  0.6383
   55CHL1  H18B 6505   2.092   0.859   9.135 -0.3174 -3.1402 -0.7481
   55CHL1  H18C 6506   2.035   0.809   9.293 -1.8150 -1.2302 -0.8081
   55CHL1   C12 6507   2.001   1.085   9.305  0.6811 -0.3076 -0.7840
   55CHL1  H12A 6508   2.100   1.102   9.259 -0.1923 -0.9646 -3.0405
   55CHL1  H12B 6509   1.941   1.178   9.317 -0.3089 -0.8123 -1.6511
   55CHL1   C11 6510   2.023   1.035   9.448 -0.3539 -0.0827  0.2971
   55CHL1  H11A 6511   2.090   0.946   9.446  1.1283  0.9693  0.8608
   55CHL1  H11B 6512   2.076   1.114   9.506  1.3783  0.1354 -1.4551
   55CHL1    C9 6513   1.891   0.999   9.517  0.1979  0.3779  0.3681
   55CHL1    H9 6514   1.832   1.093   9.514 -0.0827  0.2335  1.1827
   55CHL1   C10 6515   1.899   0.958   9.664  0.0315 -0.1309 -0.5477
   55CHL1   C19 6516   2.019   0.863   9.679  0.1373 -0.2588  0.2152
   55CHL1  H19A 6517   2.114   0.916   9.659  1.3897 -2.0747  1.0386
   55CHL1  H19B 6518   2.031   0.830   9.785  0.1511 -0.5537  0.1220
   55CHL1  H19C 6519   2.003   0.779   9.608 -0.7147 -0.1592  0.2798
   55CHL1    C1 6520   1.931   1.083   9.749  0.2156 -0.0498  0.6072
   55CHL1   H1A 6521   2.026   1.137   9.725 -0.3146  1.3379  1.4772
   55CHL1   H1B 6522   1.855   1.162   9.732  0.0198 -0.6280 -1.4081
   55CHL1    C2 6523   1.924   1.054   9.903  0.8253  0.4365 -0.1307
   55CHL1   H2A 6524   1.957   1.139   9.967  1.2203 -1.7548  2.7924
   55CHL1   H2B 6525   1.997   0.974   9.929  1.8923  1.4374  0.0643
   55CHL1   C20 6526   1.961   1.049   8.964  0.5697 -0.4867  1.4113
   55CHL1   H20 6527   1.997   0.949   8.932 -0.2848 -0.6725  1.0095
   55CHL1   C21 6528   2.088   1.138   9.001  0.3355  0.1049  0.1258
   55CHL1  H21A 6529   2.142   1.164   8.907 -0.5454 -0.9457 -0.7084
   55CHL1  H21B 6530   2.151   1.075   9.067 -0.6352 -0.1252  0.8594
   55CHL1  H21C 6531   2.037   1.229   9.038  2.0997  0.9654  0.5254
   55CHL1   C22 6532   1.889   1.106   8.837 -0.0904  0.3688 -0.6164
   55CHL1  H22A 6533   1.789   1.060   8.819 -0.0091 -1.2231  2.3679
   55CHL1  H22B 6534   1.877   1.213   8.863 -1.4104 -0.0017  0.4135
   55CHL1   C23 6535   1.972   1.096   8.704 -0.1525  0.6124  0.3545
   55CHL1  H23A 6536   2.069   1.146   8.720  0.2975 -0.3009  0.5589
   55CHL1  H23B 6537   1.990   0.992   8.669  0.2842  1.0708 -0.8235
   55CHL1   C24 6538   1.900   1.165   8.591  0.4857 -0.7088  0.1630
   55CHL1  H24A 6539   1.794   1.134   8.578  0.7725 -1.5252 -0.2907
   55CHL1  H24B 6540   1.906   1.273   8.613  1.9995 -1.0106  1.3964
   55CHL1   C25 6541   1.974   1.153   8.453  0.4794 -0.4511 -0.0445
   55CHL1   H25 6542   1.963   1.045   8.430 -0.3202 -0.6338  1.0850
   55CHL1   C26 6543   1.892   1.233   8.357  0.3945  0.3539 -0.4820
   55CHL1  H26A 6544   1.885   1.336   8.399  1.8748  0.4908 -0.5110
   55CHL1  H26B 6545   1.939   1.244   8.257  0.9115 -2.3200 -0.5967
   55CHL1  H26C 6546   1.787   1.199   8.348 -0.1795  2.2522 -1.5535
   55CHL1   C27 6547   2.122   1.201   8.461  0.5843 -0.3314  0.3632
   55CHL1  H27A 6548   2.184   1.141   8.531 -1.9320 -1.3277  1.8512
   55CHL1  H27B 6549   2.162   1.207   8.357 -0.5185 -0.3244 -0.0672
   55CHL1  H27C 6550   2.118   1.308   8.490  2.9871  0.3356 -1.4252
   56CHL1    C3 6551   0.976   5.537   9.980  0.0323  0.0075 -0.1520
   56CHL1    H3 6552   1.076   5.491   9.965 -0.6397 -0.7250 -3.0570
   56CHL1    O3 6553   0.945   5.573  10.117 -0.3561 -0.5688  0.0676
   56CHL1   H3' 6554   0.881   5.643  10.103  0.1295  0.0821  1.0569
   56CHL1    C4 6555   0.991   5.669   9.901 -0.5821  0.1339  0.1562
   56CHL1   H4A 6556   0.903   5.735   9.913  0.7678  1.6670  2.3848
   56CHL1   H4B 6557   1.074   5.731   9.941  0.4242  0.0014 -1.6030
   56CHL1    C5 6558   1.021   5.652   9.759  0.5391  0.4560 -0.0295
   56CHL1    C6 6559   1.125   5.719   9.705  0.0447 -0.0745  0.0240
   56CHL1    H6 6560   1.202   5.772   9.762 -0.1252  1.1581 -0.8601
   56CHL1    C7 6561   1.153   5.711   9.557  0.0988  0.6082 -0.5727
   56CHL1   H7A 6562   1.172   5.813   9.519  1.4286  0.1436 -1.2050
   56CHL1   H7B 6563   1.241   5.648   9.530 -0.8360 -0.0415 -2.3006
   56CHL1    C8 6564   1.039   5.643   9.472  1.6246  0.4844 -0.3089
   56CHL1    H8 6565   0.966   5.724   9.451 -0.5249 -1.2615  0.0897
   56CHL1   C14 6566   1.092   5.586   9.341 -0.2967 -0.4051  0.0532
   56CHL1   H14 6567   1.171   5.518   9.381  0.0577  0.3644  0.6955
   56CHL1   C15 6568   1.167   5.684   9.252 -0.0826  0.8538  0.9684
   56CHL1  H15A 6569   1.101   5.773   9.239  0.5811  1.0245 -2.0090
   56CHL1  H15B 6570   1.265   5.721   9.289  0.3699  1.2929 -0.6085
   56CHL1   C16 6571   1.171   5.611   9.118 -0.3984 -0.1151  0.1591
   56CHL1  H16A 6572   1.132   5.670   9.032 -0.4184  0.8441  0.8182
   56CHL1  H16B 6573   1.267   5.559   9.096 -0.5108 -0.3229  0.1640
   56CHL1   C17 6574   1.078   5.484   9.128 -0.0164  0.2349  0.1580
   56CHL1   H17 6575   1.136   5.393   9.152 -4.2988 -2.7797  0.2046
   56CHL1   C13 6576   0.993   5.515   9.252 -0.2654 -0.3093  0.1269
   56CHL1   C18 6577   0.879   5.618   9.209 -0.3466 -0.0237  0.1436
   56CHL1  H18A 6578   0.809   5.572   9.136 -0.6553 -0.2775  0.5849
   56CHL1  H18B 6579   0.808   5.662   9.283 -1.6773  0.4084 -1.3327
   56CHL1  H18C 6580   0.929   5.699   9.152 -0.8154 -0.0364 -0.2920
   56CHL1   C12 6581   0.933   5.402   9.327  0.4020  0.1653  0.1390
   56CHL1  H12A 6582   0.856   5.348   9.268  1.3377 -0.5505 -0.4650
   56CHL1  H12B 6583   1.007   5.319   9.336  1.2319  0.8932  0.1313
   56CHL1   C11 6584   0.886   5.442   9.466  0.3088  0.9093 -0.0602
   56CHL1  H11A 6585   0.788   5.495   9.462 -0.7548 -0.9119  0.5342
   56CHL1  H11B 6586   0.857   5.344   9.510 -1.1424  0.3272 -2.1467
   56CHL1    C9 6587   0.987   5.520   9.553 -0.2198 -0.3560  0.5049
   56CHL1    H9 6588   1.074   5.454   9.576 -0.0553  0.6681  3.1043
   56CHL1   C10 6589   0.929   5.562   9.684  0.3035  0.7777 -0.5573
   56CHL1   C19 6590   0.793   5.620   9.682 -0.1341  0.3641  0.4814
   56CHL1  H19A 6591   0.791   5.720   9.634 -1.8847  0.7844  1.3554
   56CHL1  H19B 6592   0.720   5.551   9.634 -0.7547  1.3833 -0.0672
   56CHL1  H19C 6593   0.755   5.644   9.783  0.9795  1.0579  0.7564
   56CHL1    C1 6594   0.901   5.428   9.762  0.6182 -1.1302 -0.6718
   56CHL1   H1A 6595   0.829   5.357   9.716  0.1688 -2.9000  2.4564
   56CHL1   H1B 6596   0.998   5.374   9.757  0.9409 -0.5637 -0.6110
   56CHL1    C2 6597   0.867   5.448   9.917 -0.4605 -0.5752  0.3377
   56CHL1   H2A 6598   0.871   5.348   9.965 -0.5141 -1.0057 -0.5354
   56CHL1   H2B 6599   0.768   5.497   9.927 -0.1760 -0.0595  0.6345
   56CHL1   C20 6600   1.012   5.462   8.987  0.2490  0.5880 -0.2569
   56CHL1   H20 6601   0.947   5.547   8.960 -0.0806  0.1332 -0.9241
   56CHL1   C21 6602   0.927   5.328   8.988 -0.3936  0.3221  0.0041
   56CHL1  H21A 6603   0.902   5.283   8.889 -1.8168 -1.0699  0.9373
   56CHL1  H21B 6604   0.833   5.354   9.042  0.0345  0.5422  0.6492
   56CHL1  H21C 6605   0.974   5.250   9.052 -2.1776 -1.4109 -0.6979
   56CHL1   C22 6606   1.117   5.445   8.868  0.3221 -1.0497 -0.1373
   56CHL1  H22A 6607   1.201   5.518   8.872  0.8768 -1.7149  0.6265
   56CHL1  H22B 6608   1.154   5.340   8.871 -1.1133 -1.5607  0.1158
   56CHL1   C23 6609   1.052   5.475   8.727 -0.6352  0.3026 -0.0898
   56CHL1  H23A 6610   0.969   5.406   8.701  0.0953 -0.7357  0.2559
   56CHL1  H23B 6611   0.997   5.571   8.734 -0.8800  0.2182 -0.7718
   56CHL1   C24 6612   1.143   5.477   8.610  0.0839 -0.6312 -0.2142
   56CHL1  H24A 6613   1.200   5.572   8.621 -0.6525 -0.2234  0.2268
   56CHL1  H24B 6614   1.199   5.382   8.603 -1.1510 -1.4790  0.9303
   56CHL1   C25 6615   1.075   5.493   8.469  0.9421 -0.1744 -0.5212
   56CHL1   H25 6616   1.156   5.516   8.396 -1.0315  0.7400 -2.5286
   56CHL1   C26 6617   1.000   5.355   8.430 -0.2696  0.2743  0.3468
   56CHL1  H26A 6618   0.952   5.366   8.331  2.0685  0.1511 -0.8827
   56CHL1  H26B 6619   1.076   5.274   8.434 -1.7337 -1.1438  0.6397
   56CHL1  H26C 6620   0.922   5.343   8.508  0.9290 -1.4228  1.3819
   56CHL1   C27 6621   0.980   5.611   8.450 -0.6200 -0.4113 -0.7388
   56CHL1  H27A 6622   0.935   5.604   8.349 -0.4888 -0.2409 -0.8086
   56CHL1  H27B 6623   0.900   5.611   8.527 -0.0229 -1.0184 -0.0897
   56CHL1  H27C 6624   1.045   5.701   8.453 -1.6094  0.3259 -0.9214
   57CHL1    C3 6625   2.738   1.999  10.175 -0.0328  0.4754 -0.5988
   57CHL1    H3 6626   2.656   2.073  10.160  0.1688  0.8514  0.1196
   57CHL1    O3 6627   2.777   2.001  10.318  0.3752  0.4428  0.7742
   57CHL1   H3' 6628   2.823   1.918  10.333  1.4491  0.6884 -0.8465
   57CHL1    C4 6629   2.676   1.860  10.150 -0.3487 -0.1771  1.0499
   57CHL1   H4A 6630   2.742   1.775  10.177 -0.0815 -0.5768 -0.7763
   57CHL1   H4B 6631   2.591   1.848  10.222  0.3919 -2.1487  1.6758
   57CHL1    C5 6632   2.636   1.864  10.000 -0.4108  0.0156 -0.8108
   57CHL1    C6 6633   2.510   1.848   9.959  0.2662  0.0214  0.5051
   57CHL1    H6 6634   2.429   1.832  10.031 -1.1660  0.1499 -1.0279
   57CHL1    C7 6635   2.466   1.843   9.810 -0.3385  0.5283  0.0241
   57CHL1   H7A 6636   2.387   1.765   9.807 -1.7132  1.9224 -1.9435
   57CHL1   H7B 6637   2.427   1.942   9.780 -0.3642  0.5254  0.0465
   57CHL1    C8 6638   2.583   1.814   9.719 -0.1769 -0.2871  0.3938
   57CHL1    H8 6639   2.612   1.707   9.730  0.2869 -0.1344  0.6905
   57CHL1   C14 6640   2.550   1.838   9.572 -0.5468 -0.2390  0.0338
   57CHL1   H14 6641   2.530   1.944   9.545  2.6308  0.6870  0.8693
   57CHL1   C15 6642   2.418   1.764   9.519 -0.9916  0.3432  0.2704
   57CHL1  H15A 6643   2.403   1.660   9.554  2.1976 -1.1114 -2.2156
   57CHL1  H15B 6644   2.325   1.822   9.537 -2.3341 -1.0445 -1.7985
   57CHL1   C16 6645   2.442   1.767   9.367  0.9309 -0.3336  0.4348
   57CHL1  H16A 6646   2.413   1.664   9.336 -0.3389  0.4772 -1.2843
   57CHL1  H16B 6647   2.367   1.829   9.313  0.3694 -2.4574 -1.3830
   57CHL1   C17 6648   2.585   1.815   9.343  0.3904 -0.6522 -0.0293
   57CHL1   H17 6649   2.576   1.926   9.336  2.7590 -0.4678 -1.0753
   57CHL1   C13 6650   2.656   1.795   9.478 -1.0868  0.4150  0.1019
   57CHL1   C18 6651   2.697   1.647   9.493  0.2477  0.1257 -0.1258
   57CHL1  H18A 6652   2.740   1.636   9.595 -1.2476 -0.6230  0.4581
   57CHL1  H18B 6653   2.610   1.579   9.482  0.9146 -0.7072 -0.3451
   57CHL1  H18C 6654   2.760   1.614   9.409 -1.4283 -1.1258 -0.9564
   57CHL1   C12 6655   2.772   1.888   9.494  0.0230 -0.8545 -0.1610
   57CHL1  H12A 6656   2.854   1.852   9.429 -2.4810 -2.8213 -2.4511
   57CHL1  H12B 6657   2.747   1.993   9.469  2.0194 -0.0388  1.0132
   57CHL1   C11 6658   2.824   1.888   9.649  0.2378 -0.3098  0.1227
   57CHL1  H11A 6659   2.881   1.793   9.653 -0.9865 -1.0621  0.1615
   57CHL1  H11B 6660   2.889   1.978   9.655 -1.5179  1.1583 -1.5170
   57CHL1    C9 6661   2.713   1.894   9.754 -0.0292 -0.1212  0.5172
   57CHL1    H9 6662   2.668   1.996   9.757 -1.7775 -0.8891  2.5978
   57CHL1   C10 6663   2.751   1.885   9.901  0.2309  0.4346  0.2791
   57CHL1   C19 6664   2.852   1.773   9.917 -0.0413  0.3916  0.5560
   57CHL1  H19A 6665   2.887   1.746  10.019  1.4064 -0.1804 -0.0546
   57CHL1  H19B 6666   2.818   1.678   9.869  2.3866  0.2770 -1.1533
   57CHL1  H19C 6667   2.944   1.794   9.859 -0.7288  1.0595 -0.3152
   57CHL1    C1 6668   2.829   2.012   9.937 -0.4943  0.0237  0.3274
   57CHL1   H1A 6669   2.927   2.006   9.885  0.0420  0.6527  1.2377
   57CHL1   H1B 6670   2.778   2.104   9.901  1.3391  0.4682 -1.2691
   57CHL1    C2 6671   2.861   2.024  10.088  0.7271 -0.1610 -0.5020
   57CHL1   H2A 6672   2.888   2.128  10.114 -0.8492 -0.4483  2.8087
   57CHL1   H2B 6673   2.946   1.963  10.125  1.0374  0.9133  0.6146
   57CHL1   C20 6674   2.659   1.768   9.213  0.3588 -0.3189 -0.4187
   57CHL1   H20 6675   2.768   1.759   9.234  0.7988 -0.3259 -2.4836
   57CHL1   C21 6676   2.641   1.880   9.107  0.6092 -0.1759  0.1097
   57CHL1  H21A 6677   2.700   1.973   9.120 -0.1047  0.5766 -1.7958
   57CHL1  H21B 6678   2.534   1.906   9.092  0.4704 -1.4937 -1.4809
   57CHL1  H21C 6679   2.674   1.839   9.010 -0.2252 -2.2695  0.6496
   57CHL1   C22 6680   2.610   1.631   9.157  0.2975 -0.1679  0.0412
   57CHL1  H22A 6681   2.593   1.552   9.233 -0.0529 -1.8991 -1.7443
   57CHL1  H22B 6682   2.515   1.649   9.102 -1.0724 -0.9041  2.0375
   57CHL1   C23 6683   2.697   1.568   9.042 -0.5228  0.2786  0.8211
   57CHL1  H23A 6684   2.760   1.654   9.013  0.8436 -0.6576  0.9037
   57CHL1  H23B 6685   2.760   1.496   9.099 -1.5913 -0.0112  1.6834
   57CHL1   C24 6686   2.621   1.498   8.927 -0.2510  0.9843 -0.1906
   57CHL1  H24A 6687   2.690   1.431   8.872 -0.4698 -0.4082  1.1592
   57CHL1  H24B 6688   2.543   1.428   8.964  0.2557  0.0557 -0.8635
   57CHL1   C25 6689   2.557   1.582   8.822  0.4425  0.3535  0.3774
   57CHL1   H25 6690   2.506   1.670   8.868 -0.0438 -0.6293  1.7926
   57CHL1   C26 6691   2.662   1.646   8.725 -0.1967  0.4363 -0.4952
   57CHL1  H26A 6692   2.616   1.721   8.658 -0.4827  0.6784 -0.0278
   57CHL1  H26B 6693   2.732   1.699   8.793 -1.7068  1.1639  0.5259
   57CHL1  H26C 6694   2.720   1.568   8.670  0.3026 -0.8666  1.7793
   57CHL1   C27 6695   2.449   1.507   8.748  0.1796  0.0423 -0.1608
   57CHL1  H27A 6696   2.399   1.583   8.685  1.1380  1.1384  0.3538
   57CHL1  H27B 6697   2.495   1.423   8.691 -0.2325 -0.2402 -0.0800
   57CHL1  H27C 6698   2.389   1.455   8.825  0.1737 -2.2370 -1.6133
   58CHL1    C3 6699   6.862   6.804   9.928  0.4449  0.3223 -0.3376
   58CHL1    H3 6700   6.875   6.915   9.927  1.5524  0.2126 -2.3800
   58CHL1    O3 6701   6.835   6.758  10.063 -0.0428 -0.6639  0.1802
   58CHL1   H3' 6702   6.753   6.801  10.087  0.5217  0.6494 -0.1396
   58CHL1    C4 6703   6.742   6.761   9.844  0.2477 -0.2592  0.2108
   58CHL1   H4A 6704   6.732   6.651   9.851  0.2812 -0.3836 -1.3153
   58CHL1   H4B 6705   6.644   6.799   9.881  0.0655 -2.0902  1.7286
   58CHL1    C5 6706   6.756   6.793   9.701  0.2441  0.5519  0.5099
   58CHL1    C6 6707   6.656   6.869   9.640  0.5767  0.2566  0.1978
   58CHL1    H6 6708   6.572   6.901   9.703  0.3847 -2.1438  1.2713
   58CHL1    C7 6709   6.655   6.880   9.489  0.1695 -0.4472 -1.0928
   58CHL1   H7A 6710   6.551   6.862   9.453 -0.5905 -1.3704  1.3785
   58CHL1   H7B 6711   6.681   6.984   9.461 -2.8136  0.7206  0.0342
   58CHL1    C8 6712   6.751   6.784   9.416  0.4071 -0.2915  0.2025
   58CHL1    H8 6713   6.703   6.684   9.421 -1.3494  0.4188 -1.3994
   58CHL1   C14 6714   6.786   6.830   9.273  0.1114 -0.3203  0.8795
   58CHL1   H14 6715   6.833   6.930   9.285 -0.1760 -0.0926  0.1701
   58CHL1   C15 6716   6.663   6.854   9.174 -0.9142  0.0561 -0.5481
   58CHL1  H15A 6717   6.601   6.762   9.184 -1.9613  0.9658  2.7677
   58CHL1  H15B 6718   6.615   6.948   9.209  0.4278  0.1906  1.0464
   58CHL1   C16 6719   6.730   6.862   9.029  0.1870 -0.0825 -0.8657
   58CHL1  H16A 6720   6.683   6.792   8.958  0.4119 -3.2642  1.8807
   58CHL1  H16B 6721   6.733   6.966   8.990 -0.1633  0.2520 -0.0397
   58CHL1   C17 6722   6.881   6.826   9.063 -0.3301  0.7717  0.0196
   58CHL1   H17 6723   6.934   6.920   9.089 -0.5333  1.2501 -1.2535
   58CHL1   C13 6724   6.885   6.750   9.193 -0.2004 -0.0466  0.7729
   58CHL1   C18 6725   6.844   6.602   9.181 -0.4369  0.0826 -0.3789
   58CHL1  H18A 6726   6.840   6.557   9.282  1.8955  0.0155 -0.2629
   58CHL1  H18B 6727   6.741   6.595   9.139 -1.6901  1.9200  2.1152
   58CHL1  H18C 6728   6.905   6.535   9.118 -0.9721 -1.5457  0.7721
   58CHL1   C12 6729   7.019   6.765   9.264 -0.4163 -0.4082  0.9003
   58CHL1  H12A 6730   7.105   6.708   9.222  1.4142  1.4986  1.8770
   58CHL1  H12B 6731   7.044   6.873   9.258 -1.9357 -0.0664  0.2507
   58CHL1   C11 6732   7.009   6.714   9.417 -0.7225  0.1944  0.5864
   58CHL1  H11A 6733   7.012   6.603   9.406 -1.8843  0.1424  0.6102
   58CHL1  H11B 6734   7.111   6.741   9.450 -0.2999  2.5926 -2.3234
   58CHL1    C9 6735   6.888   6.778   9.489  0.1339  0.2634  0.1361
   58CHL1    H9 6736   6.917   6.885   9.491  0.2775  0.2193  0.6444
   58CHL1   C10 6737   6.882   6.731   9.643  0.7327 -0.1284  0.2106
   58CHL1   C19 6738   6.877   6.570   9.642  0.4698 -0.2066  0.3370
   58CHL1  H19A 6739   6.976   6.520   9.634  1.0188  0.1478  3.6070
   58CHL1  H19B 6740   6.834   6.538   9.739  0.2369 -1.5382 -0.1769
   58CHL1  H19C 6741   6.811   6.529   9.562  2.1466  0.5905 -1.5525
   58CHL1    C1 6742   7.000   6.781   9.723 -0.1818  0.9641  0.3188
   58CHL1   H1A 6743   7.096   6.740   9.685  0.3615  1.5956  0.9758
   58CHL1   H1B 6744   7.009   6.891   9.718  0.5394  0.9072  0.3044
   58CHL1    C2 6745   6.996   6.743   9.876  0.4293 -0.2134  0.2648
   58CHL1   H2A 6746   7.081   6.788   9.931  2.1745 -1.5613 -1.1932
   58CHL1   H2B 6747   6.989   6.632   9.885 -2.1057 -0.0891  0.5352
   58CHL1   C20 6748   6.963   6.767   8.944  0.1708 -0.0876  0.4405
   58CHL1   H20 6749   7.060   6.724   8.979 -0.2587 -1.4842 -0.0438
   58CHL1   C21 6750   6.995   6.882   8.849 -0.2149  0.6104 -0.4933
   58CHL1  H21A 6751   6.903   6.931   8.810  0.7627  1.4067 -1.9082
   58CHL1  H21B 6752   7.054   6.846   8.762 -2.2775  0.3267 -1.8429
   58CHL1  H21C 6753   7.042   6.960   8.914 -3.4330  2.6598 -0.4230
   58CHL1   C22 6754   6.883   6.659   8.868 -0.3746  0.1571  0.0566
   58CHL1  H22A 6755   6.820   6.591   8.929  2.5235 -2.9892 -0.1880
   58CHL1  H22B 6756   6.814   6.708   8.796 -0.4208 -1.3872 -0.9892
   58CHL1   C23 6757   6.962   6.557   8.785 -0.4651 -0.2043 -0.4104
   58CHL1  H23A 6758   7.039   6.609   8.723  1.1342  0.2870  1.8653
   58CHL1  H23B 6759   7.015   6.488   8.854 -1.3922 -1.3122 -0.7793
   58CHL1   C24 6760   6.864   6.485   8.689 -0.0071 -0.8556  0.7187
   58CHL1  H24A 6761   6.783   6.445   8.753 -1.6953  2.1114  0.6450
   58CHL1  H24B 6762   6.818   6.566   8.629  2.5132 -1.2056 -1.9101
   58CHL1   C25 6763   6.915   6.371   8.601 -0.3791  0.7533  0.0440
   58CHL1   H25 6764   6.964   6.302   8.674  2.1070  0.4884 -1.7480
   58CHL1   C26 6765   6.799   6.299   8.531 -0.1846  0.6862  0.3235
   58CHL1  H26A 6766   6.721   6.265   8.603 -0.1927 -0.7175 -0.3081
   58CHL1  H26B 6767   6.750   6.365   8.457 -2.4080 -2.6102 -1.4322
   58CHL1  H26C 6768   6.835   6.210   8.475 -0.6267  1.0857 -0.6045
   58CHL1   C27 6769   7.016   6.413   8.499  0.1727 -0.0217 -0.2650
   58CHL1  H27A 6770   7.106   6.450   8.553  0.9714 -0.4755 -1.2537
   58CHL1  H27B 6771   7.036   6.330   8.428  0.2016 -0.2209 -0.0299
   58CHL1  H27C 6772   6.972   6.500   8.446 -1.2877 -0.2244  0.5674
   59CHL1    C3 6773   5.525   6.074  10.276  0.4336 -0.2907  0.5253
   59CHL1    H3 6774   5.482   5.972  10.285 -2.4352  0.8470  0.8926
   59CHL1    O3 6775   5.587   6.113  10.398  0.1921 -0.0077  0.0277
   59CHL1   H3' 6776   5.609   6.205  10.379 -0.2067  0.0084 -0.3576
   59CHL1    C4 6777   5.631   6.078  10.172 -0.3804 -0.2910  0.4935
   59CHL1   H4A 6778   5.692   6.170  10.176 -1.5543  0.5557 -0.4096
   59CHL1   H4B 6779   5.704   5.998  10.197  0.4055 -0.2812 -1.6387
   59CHL1    C5 6780   5.587   6.058  10.027 -0.2648  1.1993  0.3727
   59CHL1    C6 6781   5.635   5.955   9.944  0.4381 -0.2695  0.2183
   59CHL1    H6 6782   5.714   5.886   9.979  1.1297  0.7913  0.8018
   59CHL1    C7 6783   5.584   5.935   9.804  0.5119 -0.1780 -0.9046
   59CHL1   H7A 6784   5.680   5.914   9.751  1.6445 -1.5421  1.5203
   59CHL1   H7B 6785   5.518   5.846   9.810 -2.2067  1.7651 -0.1910
   59CHL1    C8 6786   5.503   6.056   9.745  0.0589  0.0331 -0.3362
   59CHL1    H8 6787   5.577   6.135   9.723  0.9935 -1.0497 -1.2485
   59CHL1   C14 6788   5.431   6.016   9.619  0.0811 -0.9034  0.1179
   59CHL1   H14 6789   5.350   5.945   9.647 -0.5973 -1.2428 -2.4446
   59CHL1   C15 6790   5.512   5.942   9.507 -0.3233 -0.3900  0.3677
   59CHL1  H15A 6791   5.596   6.009   9.478 -0.4072 -0.7988 -0.8854
   59CHL1  H15B 6792   5.546   5.848   9.555  1.6057 -0.0793 -0.2988
   59CHL1   C16 6793   5.412   5.941   9.388 -0.1752 -0.0976 -0.0246
   59CHL1  H16A 6794   5.467   5.979   9.300 -0.8880  0.4335 -0.2417
   59CHL1  H16B 6795   5.364   5.841   9.378 -1.3229  0.3143  1.1080
   59CHL1   C17 6796   5.291   6.042   9.426 -0.3908  0.7749  1.0214
   59CHL1   H17 6797   5.215   5.983   9.482 -1.7520  1.9746  0.5063
   59CHL1   C13 6798   5.351   6.134   9.543  0.5043  0.6519  0.2278
   59CHL1   C18 6799   5.445   6.242   9.487  0.1795 -0.0798  0.4068
   59CHL1  H18A 6800   5.518   6.273   9.564 -0.1440  0.9957  0.3035
   59CHL1  H18B 6801   5.501   6.207   9.397  2.2752 -0.6348  1.8572
   59CHL1  H18C 6802   5.395   6.335   9.451  0.4211  0.3936  1.2811
   59CHL1   C12 6803   5.252   6.187   9.648  0.5533  0.2696  0.0642
   59CHL1  H12A 6804   5.208   6.276   9.599  0.6810 -0.3717 -1.2708
   59CHL1  H12B 6805   5.176   6.112   9.678  0.0993  1.4886  2.1483
   59CHL1   C11 6806   5.317   6.229   9.779 -0.8719 -0.0889 -0.5034
   59CHL1  H11A 6807   5.369   6.324   9.752  0.1260 -0.6166 -0.5086
   59CHL1  H11B 6808   5.243   6.248   9.859  0.2231  0.4455  0.4185
   59CHL1    C9 6809   5.404   6.118   9.844 -1.1034 -0.3299 -0.3773
   59CHL1    H9 6810   5.333   6.035   9.864  0.6598 -1.3434  2.2335
   59CHL1   C10 6811   5.474   6.146   9.985  0.1474  0.2988  0.2838
   59CHL1   C19 6812   5.534   6.292   9.971 -0.3766  0.9982  0.3936
   59CHL1  H19A 6813   5.583   6.326  10.065 -1.0688  2.5023  0.2305
   59CHL1  H19B 6814   5.612   6.290   9.892  0.5461  1.3123  1.2743
   59CHL1  H19C 6815   5.466   6.378   9.953  0.3259  1.6902  0.9818
   59CHL1    C1 6816   5.367   6.139  10.101 -0.5510  0.1820  0.6130
   59CHL1   H1A 6817   5.277   6.195  10.068 -0.5151 -0.2611 -0.2816
   59CHL1   H1B 6818   5.318   6.039  10.098 -0.5073  0.1092  1.8158
   59CHL1    C2 6819   5.409   6.167  10.244 -0.4887 -0.4472 -0.2891
   59CHL1   H2A 6820   5.319   6.148  10.307 -0.4527 -0.2190 -0.1674
   59CHL1   H2B 6821   5.447   6.272  10.251  0.0998 -0.6197 -0.8934
   59CHL1   C20 6822   5.230   6.105   9.296  0.0654  0.1222 -0.0533
   59CHL1   H20 6823   5.300   6.179   9.251  0.7762 -0.1562  0.5820
   59CHL1   C21 6824   5.107   6.185   9.342 -0.2908  0.6218  0.3367
   59CHL1  H21A 6825   5.040   6.119   9.403 -2.0550 -1.3252 -3.3744
   59CHL1  H21B 6826   5.041   6.223   9.262  0.0548  0.9221  0.1925
   59CHL1  H21C 6827   5.133   6.269   9.410  1.2694 -0.0799  0.6634
   59CHL1   C22 6828   5.177   5.998   9.192  0.7381 -0.0092  0.2571
   59CHL1  H22A 6829   5.238   5.911   9.160  0.0232 -0.2053 -0.6157
   59CHL1  H22B 6830   5.074   5.972   9.225  0.6824  1.7263  1.5933
   59CHL1   C23 6831   5.168   6.072   9.052  0.7574 -0.0948  0.0780
   59CHL1  H23A 6832   5.103   6.161   9.060  0.0615 -0.3589 -1.9941
   59CHL1  H23B 6833   5.270   6.105   9.022  1.6165 -0.6799  2.1416
   59CHL1   C24 6834   5.116   5.984   8.943 -0.2034 -0.2971  0.4566
   59CHL1  H24A 6835   5.184   5.901   8.914  0.5570  0.5277 -0.1617
   59CHL1  H24B 6836   5.029   5.925   8.980  0.0807 -1.4611 -0.6806
   59CHL1   C25 6837   5.082   6.053   8.819  0.3200  0.0155 -0.0149
   59CHL1   H25 6838   5.004   6.130   8.837  2.2962  2.2182 -0.3856
   59CHL1   C26 6839   5.197   6.118   8.743 -0.0306 -0.2164  1.0882
   59CHL1  H26A 6840   5.169   6.156   8.643  0.6412 -0.2293  0.8902
   59CHL1  H26B 6841   5.241   6.202   8.801  1.3471  1.0057 -1.5985
   59CHL1  H26C 6842   5.274   6.040   8.726 -1.4642 -1.1370 -1.8491
   59CHL1   C27 6843   5.012   5.957   8.718  0.4797 -0.6048  0.0980
   59CHL1  H27A 6844   5.076   5.872   8.686 -1.4705 -1.4263 -1.8595
   59CHL1  H27B 6845   4.923   5.916   8.770  0.7046  0.5302  1.4248
   59CHL1  H27C 6846   4.976   6.015   8.630  0.8406  2.8904  2.0507
   60CHL1    C3 6847   4.995   3.667  10.212  0.7355  0.4466  0.1455
   60CHL1    H3 6848   5.088   3.728  10.209  0.3408  1.1228  1.1335
   60CHL1    O3 6849   4.943   3.662  10.346  0.1249 -0.1206  0.2112
   60CHL1   H3' 6850   5.020   3.647  10.400  1.0512  1.2732 -0.6678
   60CHL1    C4 6851   4.895   3.741  10.124 -0.3763  0.3261 -0.1710
   60CHL1   H4A 6852   4.796   3.693  10.140  0.3589 -0.6067  1.9090
   60CHL1   H4B 6853   4.881   3.847  10.153 -0.3249 -0.0112  1.1607
   60CHL1    C5 6854   4.937   3.733   9.974  0.8676 -0.2751 -0.3922
   60CHL1    C6 6855   4.947   3.846   9.906 -0.5613 -0.7872 -0.0302
   60CHL1    H6 6856   4.940   3.946   9.950 -1.0480  1.1589 -4.0268
   60CHL1    C7 6857   5.000   3.850   9.764 -1.1533  0.3909 -0.8542
   60CHL1   H7A 6858   4.954   3.935   9.708 -1.2317 -0.6660 -2.4592
   60CHL1   H7B 6859   5.111   3.860   9.766 -0.9588 -1.6107 -0.3409
   60CHL1    C8 6860   4.986   3.713   9.693 -0.1694  0.1387 -0.3351
   60CHL1    H8 6861   4.878   3.705   9.665 -0.1749  1.2405 -0.6734
   60CHL1   C14 6862   5.062   3.711   9.560 -0.8008 -0.1239 -0.3762
   60CHL1   H14 6863   5.168   3.714   9.594 -0.8210  0.0036 -0.3228
   60CHL1   C15 6864   5.050   3.841   9.475  0.8913 -0.1138  0.2405
   60CHL1  H15A 6865   4.945   3.868   9.449  0.6410 -1.6402 -0.3947
   60CHL1  H15B 6866   5.107   3.922   9.526  1.1104 -2.1591  3.5772
   60CHL1   C16 6867   5.114   3.799   9.344 -0.0228  0.2669 -0.5011
   60CHL1  H16A 6868   5.048   3.820   9.257  1.6420 -0.1677 -1.9123
   60CHL1  H16B 6869   5.204   3.860   9.325  1.2884 -0.6520  2.2637
   60CHL1   C17 6870   5.141   3.644   9.349  0.4390 -0.1492  0.7507
   60CHL1   H17 6871   5.247   3.635   9.380  0.7722 -4.5586 -0.9012
   60CHL1   C13 6872   5.052   3.590   9.467  0.2178  0.0183  0.4326
   60CHL1   C18 6873   4.909   3.555   9.426 -0.1468  0.8893  0.1802
   60CHL1  H18A 6874   4.871   3.647   9.377 -1.8048  0.1676  0.0393
   60CHL1  H18B 6875   4.899   3.470   9.356  1.1275  1.0143 -0.1600
   60CHL1  H18C 6876   4.846   3.535   9.516 -0.1497 -1.9888 -0.3818
   60CHL1   C12 6877   5.110   3.479   9.549 -0.4201  0.0285  0.2090
   60CHL1  H12A 6878   5.110   3.379   9.500  0.8119 -0.6679  1.5626
   60CHL1  H12B 6879   5.217   3.497   9.571  0.0682 -0.9253 -1.2679
   60CHL1   C11 6880   5.038   3.462   9.687  0.1327  0.2595 -0.4109
   60CHL1  H11A 6881   4.935   3.421   9.681  0.4631 -1.0536  1.7096
   60CHL1  H11B 6882   5.090   3.378   9.739 -0.2703 -0.6001 -1.3580
   60CHL1    C9 6883   5.032   3.599   9.772 -0.2096  0.7660  0.0541
   60CHL1    H9 6884   5.139   3.615   9.794  0.3171  0.3062 -1.9871
   60CHL1   C10 6885   4.970   3.588   9.915  1.3565 -0.5414  0.2931
   60CHL1   C19 6886   4.830   3.519   9.911  0.0624  0.7665  0.3067
   60CHL1  H19A 6887   4.785   3.510  10.012  2.8262  1.7166  1.7365
   60CHL1  H19B 6888   4.767   3.584   9.845 -0.8867 -1.1872 -0.7863
   60CHL1  H19C 6889   4.837   3.416   9.871 -0.8531  0.6526  0.4055
   60CHL1    C1 6890   5.062   3.514  10.017 -0.4768  0.3860  0.3382
   60CHL1   H1A 6891   5.066   3.407   9.988  1.4915  0.1902  1.1840
   60CHL1   H1B 6892   5.166   3.552  10.006 -0.5437  0.2744 -0.8375
   60CHL1    C2 6893   5.025   3.523  10.164 -0.1935  0.5161  0.5550
   60CHL1   H2A 6894   5.118   3.491  10.215 -0.5517 -1.5336 -0.0129
   60CHL1   H2B 6895   4.944   3.449  10.185  0.4175 -0.5794 -0.8495
   60CHL1   C20 6896   5.116   3.584   9.211 -0.4914  0.4010  0.9301
   60CHL1   H20 6897   5.014   3.623   9.189 -0.8036  0.5307  2.5127
   60CHL1   C21 6898   5.129   3.435   9.212  0.4831 -0.2172  0.2877
   60CHL1  H21A 6899   5.108   3.390   9.113  3.8453 -0.5427 -0.4127
   60CHL1  H21B 6900   5.053   3.393   9.280  0.0837  1.2515  0.7826
   60CHL1  H21C 6901   5.227   3.390   9.240  0.3842 -2.7713 -2.8415
   60CHL1   C22 6902   5.216   3.641   9.108 -0.0399 -0.2386 -0.3416
   60CHL1  H22A 6903   5.268   3.734   9.141 -2.3310  2.3667 -3.4096
   60CHL1  H22B 6904   5.305   3.575   9.100 -0.1821 -0.6921  1.3223
   60CHL1   C23 6905   5.152   3.676   8.974 -0.2575 -0.1147  0.0876
   60CHL1  H23A 6906   5.115   3.577   8.938  0.2610  0.0777 -1.0274
   60CHL1  H23B 6907   5.064   3.742   8.990 -1.2269 -1.2927 -0.2069
   60CHL1   C24 6908   5.254   3.726   8.874  0.5163  0.4498 -0.5195
   60CHL1  H24A 6909   5.303   3.823   8.896  2.2280  0.0867 -2.4783
   60CHL1  H24B 6910   5.326   3.641   8.871 -1.1877 -1.1236  0.5237
   60CHL1   C25 6911   5.207   3.753   8.730  0.6534  0.5425  0.6047
   60CHL1   H25 6912   5.141   3.667   8.706  0.5195 -0.3692  3.8049
   60CHL1   C26 6913   5.114   3.884   8.727 -0.6915 -0.0054 -0.1284
   60CHL1  H26A 6914   5.160   3.969   8.781 -3.3443  0.5239  1.5407
   60CHL1  H26B 6915   5.085   3.919   8.626 -3.0451 -0.7098  0.2164
   60CHL1  H26C 6916   5.024   3.860   8.789 -1.1123  2.2071  0.1999
   60CHL1   C27 6917   5.327   3.779   8.638 -0.4717 -0.0216 -0.2088
   60CHL1  H27A 6918   5.378   3.864   8.687 -0.6080 -1.0447  1.7679
   60CHL1  H27B 6919   5.389   3.689   8.621  1.3667  1.2895 -0.8017
   60CHL1  H27C 6920   5.296   3.807   8.534 -0.3077  1.1759  0.0520
   61CHL1    C3 6921   2.123   4.752  10.190 -0.1867 -0.7838  0.0473
   61CHL1    H3 6922   2.120   4.862  10.206  0.9660 -1.0233  2.3650
   61CHL1    O3 6923   2.142   4.695  10.317 -0.2169 -0.2324 -0.0277
   61CHL1   H3' 6924   2.142   4.599  10.307 -1.7504 -0.3334  0.7119
   61CHL1    C4 6925   1.985   4.704  10.154  0.8013  0.2584  0.2101
   61CHL1   H4A 6926   1.990   4.593  10.148  1.7046  0.3209 -0.4340
   61CHL1   H4B 6927   1.913   4.729  10.235  0.2711 -0.5233 -0.0040
   61CHL1    C5 6928   1.941   4.751  10.016  0.0912 -0.1854  0.1842
   61CHL1    C6 6929   1.828   4.818  10.002 -1.0235 -0.0965  0.4570
   61CHL1    H6 6930   1.768   4.850  10.089  1.2156 -0.2391  2.1341
   61CHL1    C7 6931   1.775   4.871   9.873 -0.0249 -0.3420 -0.0148
   61CHL1   H7A 6932   1.668   4.849   9.853  0.3786 -1.2917 -1.2554
   61CHL1   H7B 6933   1.797   4.980   9.871 -0.5550 -0.1912 -3.2061
   61CHL1    C8 6934   1.842   4.812   9.747 -0.5494 -0.3715 -0.3198
   61CHL1    H8 6935   1.807   4.707   9.742  2.4990 -1.6087  1.2612
   61CHL1   C14 6936   1.823   4.911   9.639 -0.7867  0.4661  1.0673
   61CHL1   H14 6937   1.889   4.996   9.667  0.0269  0.4227 -0.5858
   61CHL1   C15 6938   1.682   4.963   9.604  0.1906 -0.1680 -0.1010
   61CHL1  H15A 6939   1.618   4.876   9.632 -0.1254  0.0915 -0.0153
   61CHL1  H15B 6940   1.659   5.048   9.672  0.8322 -0.6690  0.7783
   61CHL1   C16 6941   1.686   5.007   9.463  0.4283  0.3914 -0.0679
   61CHL1  H16A 6942   1.612   4.946   9.408 -0.3710  0.0654  1.3109
   61CHL1  H16B 6943   1.671   5.114   9.435  1.3813  0.1619 -1.5585
   61CHL1   C17 6944   1.830   4.981   9.417 -0.5214 -0.1258  0.1736
   61CHL1   H17 6945   1.889   5.072   9.443 -1.1809  0.3638 -0.0189
   61CHL1   C13 6946   1.889   4.862   9.506  0.5900 -0.6031  0.5100
   61CHL1   C18 6947   1.827   4.730   9.467  0.4577  0.6871 -0.0260
   61CHL1  H18A 6948   1.865   4.702   9.367 -1.4596 -0.4058 -0.5012
   61CHL1  H18B 6949   1.859   4.647   9.534 -0.1389  0.5278  0.0657
   61CHL1  H18C 6950   1.716   4.726   9.466  0.3576 -1.0370  3.1695
   61CHL1   C12 6951   2.042   4.847   9.518 -0.3491  0.3874 -0.3249
   61CHL1  H12A 6952   2.078   4.809   9.420 -0.7610  1.7774 -1.0424
   61CHL1  H12B 6953   2.070   4.953   9.533 -3.4593  1.2149  0.3736
   61CHL1   C11 6954   2.080   4.765   9.644 -0.1874  1.0551 -0.2069
   61CHL1  H11A 6955   2.061   4.659   9.617 -0.3965  1.3612 -1.3239
   61CHL1  H11B 6956   2.189   4.773   9.662 -0.3195  2.6602  0.0295
   61CHL1    C9 6957   2.000   4.810   9.770  0.3248  0.0953  0.3762
   61CHL1    H9 6958   2.042   4.913   9.782  0.4936 -0.0969  1.6238
   61CHL1   C10 6959   2.037   4.730   9.898 -0.6770  0.1115  0.0206
   61CHL1   C19 6960   2.033   4.578   9.856 -0.2498 -0.1405 -0.6076
   61CHL1  H19A 6961   1.946   4.551   9.792 -0.1377 -3.2116  0.3581
   61CHL1  H19B 6962   2.125   4.541   9.806 -0.4901 -0.5478 -0.7565
   61CHL1  H19C 6963   2.023   4.506   9.940 -0.1587  0.5754  0.0274
   61CHL1    C1 6964   2.187   4.757   9.936  0.1438  0.9218 -0.0573
   61CHL1   H1A 6965   2.260   4.706   9.869  0.7890  3.1549 -1.1694
   61CHL1   H1B 6966   2.204   4.865   9.916  1.3866  1.1763  2.0310
   61CHL1    C2 6967   2.229   4.711  10.083  0.9470  0.0781  0.0042
   61CHL1   H2A 6968   2.334   4.740  10.104  0.8195  2.0224 -1.8085
   61CHL1   H2B 6969   2.226   4.600  10.082 -0.0474  0.0808  0.5193
   61CHL1   C20 6970   1.853   4.973   9.264 -0.0677 -0.0643  0.0753
   61CHL1   H20 6971   1.938   4.903   9.251  1.0127  1.1140  0.5872
   61CHL1   C21 6972   1.885   5.110   9.210  0.3300 -0.2137 -0.2697
   61CHL1  H21A 6973   1.905   5.102   9.101 -0.0038 -0.0346 -0.3464
   61CHL1  H21B 6974   1.981   5.136   9.258  0.5232  1.5137 -1.4859
   61CHL1  H21C 6975   1.807   5.181   9.244 -0.5912 -1.2858 -0.0576
   61CHL1   C22 6976   1.738   4.902   9.186 -0.0021 -0.2891  0.1141
   61CHL1  H22A 6977   1.694   4.824   9.253 -0.8825 -0.6907 -0.8974
   61CHL1  H22B 6978   1.658   4.978   9.174 -0.9178 -1.1691  0.4391
   61CHL1   C23 6979   1.782   4.857   9.048 -0.1448  0.7451 -0.0908
   61CHL1  H23A 6980   1.802   4.952   8.994  0.8335  0.4384 -0.2814
   61CHL1  H23B 6981   1.866   4.784   9.051 -1.6588 -1.0380  1.0985
   61CHL1   C24 6982   1.667   4.795   8.970  0.3460 -0.0323  0.6370
   61CHL1  H24A 6983   1.647   4.691   9.005 -0.6018 -0.2966 -0.6010
   61CHL1  H24B 6984   1.575   4.854   8.987  1.8622  2.5487  0.3874
   61CHL1   C25 6985   1.687   4.796   8.818  0.8170  0.0040 -0.0091
   61CHL1   H25 6986   1.707   4.902   8.792 -0.1444  0.3665  0.6506
   61CHL1   C26 6987   1.798   4.692   8.776 -0.0398 -0.3538  0.2906
   61CHL1  H26A 6988   1.805   4.691   8.666 -0.8789  1.4993  0.1754
   61CHL1  H26B 6989   1.890   4.711   8.836 -0.5602 -0.1774  1.0569
   61CHL1  H26C 6990   1.753   4.595   8.808 -0.1401  0.2890  2.2819
   61CHL1   C27 6991   1.562   4.756   8.742 -0.3943 -0.4107 -0.1682
   61CHL1  H27A 6992   1.589   4.757   8.634  2.2795 -1.0451  0.4417
   61CHL1  H27B 6993   1.542   4.651   8.771  0.5256 -0.3434  0.7745
   61CHL1  H27C 6994   1.469   4.812   8.764 -1.4987 -1.4595 -1.9250
   62CHL1    C3 6995   2.515   2.777  10.083 -0.8753 -0.4736 -0.1506
   62CHL1    H3 6996   2.524   2.666  10.083 -1.8183 -0.6335  2.9016
   62CHL1    O3 6997   2.514   2.815  10.224 -0.7127 -0.0680  0.2586
   62CHL1   H3' 6998   2.515   2.911  10.227 -1.1088 -0.0338 -0.4403
   62CHL1    C4 6999   2.641   2.836  10.020 -0.6976 -0.5489  0.0738
   62CHL1   H4A 7000   2.636   2.941  10.055 -0.2157 -0.8357  1.0678
   62CHL1   H4B 7001   2.729   2.790  10.072 -0.3053 -0.6516 -0.6744
   62CHL1    C5 7002   2.659   2.826   9.872 -0.2184 -0.6576  0.1863
   62CHL1    C6 7003   2.772   2.772   9.823 -0.4472 -0.3347 -0.4635
   62CHL1    H6 7004   2.846   2.730   9.892  1.3102  2.9814 -0.1141
   62CHL1    C7 7005   2.793   2.759   9.679  0.3391  0.0540 -0.0434
   62CHL1   H7A 7006   2.888   2.801   9.640 -1.0608  1.0224 -2.6672
   62CHL1   H7B 7007   2.795   2.649   9.663  1.5848 -0.0168  0.5294
   62CHL1    C8 7008   2.688   2.837   9.589  0.7800  0.1912 -0.1867
   62CHL1    H8 7009   2.718   2.943   9.583 -1.0137  0.6797 -1.4830
   62CHL1   C14 7010   2.690   2.788   9.441 -0.3796  0.2265 -0.8379
   62CHL1   H14 7011   2.653   2.684   9.439 -1.0808  0.4782 -2.2289
   62CHL1   C15 7012   2.832   2.777   9.372 -0.2871  0.4597  0.3733
   62CHL1  H15A 7013   2.882   2.871   9.401  0.6699 -0.4997  1.9427
   62CHL1  H15B 7014   2.893   2.688   9.401 -1.7653 -1.0838 -0.9752
   62CHL1   C16 7015   2.790   2.778   9.219 -0.5173 -0.8215 -0.0196
   62CHL1  H16A 7016   2.835   2.873   9.183  1.4051 -1.3477  0.8493
   62CHL1  H16B 7017   2.828   2.691   9.161 -0.1920 -1.8705  1.6909
   62CHL1   C17 7018   2.635   2.794   9.216  0.1910  0.0262 -0.0040
   62CHL1   H17 7019   2.589   2.695   9.237 -0.2164  0.7114  2.7566
   62CHL1   C13 7020   2.600   2.863   9.352 -0.2629 -0.4577  1.1143
   62CHL1   C18 7021   2.640   3.015   9.347 -0.3397 -0.5020 -0.1164
   62CHL1  H18A 7022   2.625   3.056   9.449 -0.2613 -2.3669  0.6951
   62CHL1  H18B 7023   2.746   3.028   9.319 -0.0220 -2.4814 -0.0291
   62CHL1  H18C 7024   2.569   3.070   9.282  0.5719 -0.7467 -1.3550
   62CHL1   C12 7025   2.456   2.856   9.406 -0.1761 -0.5485 -0.0630
   62CHL1  H12A 7026   2.377   2.914   9.353  1.0526  1.3957  0.1721
   62CHL1  H12B 7027   2.439   2.746   9.400  1.1615 -1.0023  2.7383
   62CHL1   C11 7028   2.441   2.899   9.554  0.1391  0.2705 -0.0943
   62CHL1  H11A 7029   2.458   3.009   9.558  0.3628  0.2006  1.2006
   62CHL1  H11B 7030   2.340   2.860   9.582  1.6605 -3.4943  0.7309
   62CHL1    C9 7031   2.545   2.833   9.647 -0.5050 -0.1183 -0.6875
   62CHL1    H9 7032   2.513   2.727   9.643 -2.4340  0.3708  0.2032
   62CHL1   C10 7033   2.537   2.874   9.799 -0.5133  0.4564  0.1960
   62CHL1   C19 7034   2.553   3.027   9.805 -0.6120  0.6451  0.6277
   62CHL1  H19A 7035   2.648   3.054   9.755 -1.1516 -1.3103 -1.6831
   62CHL1  H19B 7036   2.468   3.084   9.761  1.4470  1.7767 -2.1414
   62CHL1  H19C 7037   2.560   3.082   9.901  0.9718 -0.9912  1.4969
   62CHL1    C1 7038   2.410   2.818   9.862 -0.1716  0.2838  0.2490
   62CHL1   H1A 7039   2.323   2.868   9.816 -1.1215  0.7995  2.4778
   62CHL1   H1B 7040   2.390   2.711   9.837 -4.0102  0.2088  2.8143
   62CHL1    C2 7041   2.394   2.826  10.014  0.3047 -0.1097 -0.1216
   62CHL1   H2A 7042   2.294   2.797  10.052 -0.7047  1.1733 -1.6488
   62CHL1   H2B 7043   2.401   2.934  10.039  0.2172 -0.1295 -0.0130
   62CHL1   C20 7044   2.585   2.852   9.080 -0.8042  0.4814  0.1752
   62CHL1   H20 7045   2.642   2.946   9.063  1.7435 -0.6377  1.9703
   62CHL1   C21 7046   2.435   2.889   9.073 -0.4781 -0.0470 -0.4784
   62CHL1  H21A 7047   2.377   2.818   9.135 -1.9435  1.9336  0.5441
   62CHL1  H21B 7048   2.394   2.883   8.969  0.7004 -1.2952 -0.9026
   62CHL1  H21C 7049   2.405   2.991   9.103 -1.0037 -0.2047 -0.4554
   62CHL1   C22 7050   2.610   2.754   8.966  0.1809  0.6776 -0.4148
   62CHL1  H22A 7051   2.707   2.704   8.988 -0.7391 -1.2601 -0.5219
   62CHL1  H22B 7052   2.528   2.679   8.979  0.0655  0.8331 -0.2469
   62CHL1   C23 7053   2.618   2.822   8.826  0.3361  0.6869  0.3744
   62CHL1  H23A 7054   2.528   2.878   8.793 -0.0511 -0.1284  0.0376
   62CHL1  H23B 7055   2.699   2.898   8.836 -0.5209  1.5021  1.3510
   62CHL1   C24 7056   2.656   2.743   8.703 -0.0649  0.0665  0.3199
   62CHL1  H24A 7057   2.729   2.669   8.741 -1.3762 -1.7812 -0.5786
   62CHL1  H24B 7058   2.562   2.692   8.671  0.3613 -0.5294  0.0167
   62CHL1   C25 7059   2.695   2.829   8.579 -0.0534  0.0262 -0.0567
   62CHL1   H25 7060   2.643   2.926   8.592  0.2655  0.7022 -3.0546
   62CHL1   C26 7061   2.853   2.846   8.586 -0.2960 -0.0455  0.1504
   62CHL1  H26A 7062   2.887   2.868   8.690  0.8438 -1.1684  0.0445
   62CHL1  H26B 7063   2.916   2.756   8.570 -0.5247 -0.8892  3.2866
   62CHL1  H26C 7064   2.885   2.927   8.518 -2.4135  0.7881  0.0817
   62CHL1   C27 7065   2.657   2.765   8.441  0.1661  0.4626 -0.1354
   62CHL1  H27A 7066   2.704   2.829   8.364 -2.1200  4.3174  1.3841
   62CHL1  H27B 7067   2.697   2.662   8.433 -0.9924  0.0486 -0.9397
   62CHL1  H27C 7068   2.547   2.756   8.428  0.1725 -0.3373  0.2895
   63CHL1    C3 7069   3.774   2.785  10.201  0.4845  0.2873 -0.2699
   63CHL1    H3 7070   3.692   2.843  10.153  0.4644  0.3777 -0.1256
   63CHL1    O3 7071   3.759   2.787  10.341  0.1554  0.3670 -0.3924
   63CHL1   H3' 7072   3.762   2.881  10.361  0.5585  0.4440 -0.7746
   63CHL1    C4 7073   3.770   2.639  10.144  0.0028  0.0306 -0.2314
   63CHL1   H4A 7074   3.841   2.584  10.210 -1.2177  0.2207  1.3038
   63CHL1   H4B 7075   3.667   2.607  10.170  0.3587  1.3923  3.4386
   63CHL1    C5 7076   3.797   2.626   9.997  0.0309  0.3526  0.1262
   63CHL1    C6 7077   3.715   2.555   9.917 -0.2533 -0.1018 -0.3927
   63CHL1    H6 7078   3.627   2.504   9.960 -0.5693  0.6125 -0.1828
   63CHL1    C7 7079   3.750   2.533   9.772  0.1302  0.3080  0.2031
   63CHL1   H7A 7080   3.726   2.429   9.738  1.9578  0.4788 -1.8575
   63CHL1   H7B 7081   3.690   2.602   9.709  0.0472 -1.5981 -1.9871
   63CHL1    C8 7082   3.894   2.572   9.728  0.1708 -0.0660  0.3767
   63CHL1    H8 7083   3.955   2.487   9.764  1.0827 -0.2148 -1.3939
   63CHL1   C14 7084   3.901   2.588   9.579 -0.5912  0.5297 -0.2461
   63CHL1   H14 7085   3.843   2.678   9.548  1.6115  1.6286 -1.4314
   63CHL1   C15 7086   3.845   2.477   9.499 -0.4282 -0.5691  0.1314
   63CHL1  H15A 7087   3.894   2.383   9.533 -0.0403 -0.7680 -0.9229
   63CHL1  H15B 7088   3.734   2.469   9.503 -0.5352 -1.4244 -2.5755
   63CHL1   C16 7089   3.898   2.523   9.352  0.1739 -0.0338  0.5606
   63CHL1  H16A 7090   3.936   2.437   9.291 -0.7833 -0.3065  0.3349
   63CHL1  H16B 7091   3.812   2.575   9.305  1.3187  2.4353  1.0230
   63CHL1   C17 7092   4.017   2.619   9.372  0.3126  1.0131 -0.5018
   63CHL1   H17 7093   3.995   2.723   9.338 -1.4692  0.9544  0.3532
   63CHL1   C13 7094   4.041   2.617   9.527  0.4700 -0.0835  0.1755
   63CHL1   C18 7095   4.134   2.506   9.564 -0.0685 -0.4575  0.1778
   63CHL1  H18A 7096   4.238   2.541   9.545 -0.6575  2.4462  1.7827
   63CHL1  H18B 7097   4.129   2.487   9.673  1.4890 -2.3012 -0.0069
   63CHL1  H18C 7098   4.110   2.413   9.508 -2.1282  0.5087 -0.6150
   63CHL1   C12 7099   4.080   2.746   9.585 -0.7849 -0.2152 -0.2595
   63CHL1  H12A 7100   4.174   2.786   9.540 -1.6539  1.1574 -0.9229
   63CHL1  H12B 7101   4.004   2.820   9.553 -0.9169 -0.6797 -1.0567
   63CHL1   C11 7102   4.080   2.735   9.736 -0.1079  0.5074 -1.3005
   63CHL1  H11A 7103   4.164   2.674   9.776  0.6904  1.7223 -1.0779
   63CHL1  H11B 7104   4.089   2.841   9.770 -1.3594  0.1871  0.1454
   63CHL1    C9 7105   3.942   2.697   9.802 -0.5157  0.5056  0.8836
   63CHL1    H9 7106   3.870   2.774   9.767  2.4647  1.9917 -2.6475
   63CHL1   C10 7107   3.937   2.692   9.958  0.0599  0.5913  0.1280
   63CHL1   C19 7108   4.044   2.598  10.010  0.1308 -0.3669  0.2501
   63CHL1  H19A 7109   4.144   2.647  10.007  0.4038 -0.9377 -0.1205
   63CHL1  H19B 7110   4.022   2.567  10.114 -1.8707 -0.6948 -0.2191
   63CHL1  H19C 7111   4.057   2.505   9.950  0.4994  0.5628 -1.1497
   63CHL1    C1 7112   3.945   2.835  10.010  0.8345 -0.1496 -0.7610
   63CHL1   H1A 7113   4.049   2.872   9.998  0.5641  0.8131 -0.2493
   63CHL1   H1B 7114   3.880   2.899   9.947  0.0739 -0.6704 -0.5228
   63CHL1    C2 7115   3.909   2.850  10.159  0.0577  0.1395  0.3763
   63CHL1   H2A 7116   3.897   2.959  10.177  1.9738  0.6923 -1.3082
   63CHL1   H2B 7117   3.990   2.811  10.224  0.1650  0.5220  0.4711
   63CHL1   C20 7118   4.146   2.591   9.279  0.0055 -0.6087 -0.0961
   63CHL1   H20 7119   4.189   2.492   9.302 -0.1912 -0.2412  2.0280
   63CHL1   C21 7120   4.263   2.699   9.309  0.2781 -0.1917 -0.6320
   63CHL1  H21A 7121   4.214   2.799   9.314 -1.1899 -0.8338 -1.5886
   63CHL1  H21B 7122   4.339   2.705   9.229 -0.6614 -1.4635 -1.6747
   63CHL1  H21C 7123   4.314   2.685   9.407  0.2961  0.6455 -0.5117
   63CHL1   C22 7124   4.115   2.575   9.127  0.4307 -0.0350 -0.4919
   63CHL1  H22A 7125   4.038   2.497   9.108 -0.3577 -0.3973  3.4624
   63CHL1  H22B 7126   4.066   2.671   9.097  1.1204  0.1458 -1.0749
   63CHL1   C23 7127   4.238   2.550   9.029 -0.1749 -0.3095 -0.1875
   63CHL1  H23A 7128   4.289   2.648   9.035  0.8225 -0.9067  3.6324
   63CHL1  H23B 7129   4.305   2.472   9.071 -0.0404 -1.1078 -1.8435
   63CHL1   C24 7130   4.180   2.518   8.894  0.0675  0.1839 -0.0665
   63CHL1  H24A 7131   4.104   2.439   8.913 -0.1542  0.2609 -0.6158
   63CHL1  H24B 7132   4.131   2.611   8.859 -0.5741 -0.2163 -0.2442
   63CHL1   C25 7133   4.273   2.474   8.789  0.3737 -0.0217 -0.0515
   63CHL1   H25 7134   4.330   2.392   8.838 -0.1628 -0.7086 -0.5508
   63CHL1   C26 7135   4.204   2.410   8.666 -0.4808  0.1806  0.0736
   63CHL1  H26A 7136   4.277   2.373   8.592  1.2982  1.3588  1.1680
   63CHL1  H26B 7137   4.141   2.325   8.699 -1.5051  1.4731  1.6261
   63CHL1  H26C 7138   4.135   2.481   8.614 -0.2308  0.2583 -0.1540
   63CHL1   C27 7139   4.359   2.591   8.748 -0.2706  0.3607  0.3711
   63CHL1  H27A 7140   4.289   2.671   8.719 -2.0616 -1.4080 -0.4042
   63CHL1  H27B 7141   4.424   2.628   8.831 -0.8833  1.3993  0.4032
   63CHL1  H27C 7142   4.435   2.574   8.669  2.0256 -1.9547  2.8148
   64CHL1    C3 7143   2.641   3.454   9.918  0.1469 -0.5352 -0.0366
   64CHL1    H3 7144   2.675   3.556   9.947  1.0212 -0.6954 -0.4700
   64CHL1    O3 7145   2.579   3.389  10.024 -0.1585 -0.1022 -0.8600
   64CHL1   H3' 7146   2.493   3.428  10.044  0.1113 -0.5089  1.2349
   64CHL1    C4 7147   2.540   3.462   9.800  0.3321 -0.5690 -0.0856
   64CHL1   H4A 7148   2.504   3.357   9.791  2.3009 -1.1767 -1.4792
   64CHL1   H4B 7149   2.445   3.510   9.832  1.6876  1.0013  1.7776
   64CHL1    C5 7150   2.600   3.506   9.669  0.0434 -0.8195 -0.0422
   64CHL1    C6 7151   2.543   3.601   9.600 -0.2583  0.5353  0.4434
   64CHL1    H6 7152   2.442   3.636   9.626 -0.9942 -0.0736 -1.3611
   64CHL1    C7 7153   2.595   3.637   9.464 -0.1161 -0.5340  0.0334
   64CHL1   H7A 7154   2.509   3.623   9.395 -0.9018  4.4346 -0.3549
   64CHL1   H7B 7155   2.629   3.743   9.460 -0.6889 -0.3768 -0.9716
   64CHL1    C8 7156   2.710   3.554   9.401  0.2232  0.0271 -0.1661
   64CHL1    H8 7157   2.667   3.458   9.366  0.7950 -1.8566  3.7333
   64CHL1   C14 7158   2.782   3.618   9.282 -0.6375  0.0431  0.1696
   64CHL1   H14 7159   2.835   3.701   9.331  3.3456 -2.1290 -0.0305
   64CHL1   C15 7160   2.694   3.669   9.162 -0.2226  0.3349  0.0355
   64CHL1  H15A 7161   2.605   3.601   9.164  0.2458 -0.2726  0.7722
   64CHL1  H15B 7162   2.655   3.772   9.174  1.3020  0.9613 -0.1517
   64CHL1   C16 7163   2.790   3.659   9.046 -0.0292  0.8121  0.8086
   64CHL1  H16A 7164   2.749   3.589   8.971  0.4226 -1.2688  2.4076
   64CHL1  H16B 7165   2.812   3.755   8.993 -1.8268  0.8992  0.1404
   64CHL1   C17 7166   2.922   3.594   9.088  0.3600 -0.0330  0.5763
   64CHL1   H17 7167   2.988   3.678   9.118 -0.5609  0.8093  0.3096
   64CHL1   C13 7168   2.887   3.527   9.220  0.1919  0.0193 -0.4447
   64CHL1   C18 7169   2.837   3.386   9.181 -0.0110  0.0518 -0.2701
   64CHL1  H18A 7170   2.746   3.380   9.117 -0.9139 -0.5631  1.0392
   64CHL1  H18B 7171   2.920   3.335   9.128  0.5982  0.9365 -0.1900
   64CHL1  H18C 7172   2.805   3.318   9.262  0.2264 -0.7120 -0.8030
   64CHL1   C12 7173   2.998   3.520   9.327 -0.1607  0.2493  0.1054
   64CHL1  H12A 7174   3.086   3.456   9.302 -0.3542  0.0176  0.0170
   64CHL1  H12B 7175   3.038   3.619   9.358 -2.3264  0.8380  1.1822
   64CHL1   C11 7176   2.940   3.457   9.457 -0.6411 -0.3305 -0.6669
   64CHL1  H11A 7177   2.928   3.349   9.437 -0.6115 -0.2985 -0.8675
   64CHL1  H11B 7178   3.020   3.470   9.533 -0.7612 -0.5040 -0.5112
   64CHL1    C9 7179   2.809   3.521   9.509 -1.0664  0.0310 -0.3372
   64CHL1    H9 7180   2.839   3.620   9.550 -0.1551 -0.2492 -0.3023
   64CHL1   C10 7181   2.737   3.452   9.633 -0.1148 -0.1364 -0.1926
   64CHL1   C19 7182   2.696   3.308   9.585 -0.2865 -0.2375 -0.4277
   64CHL1  H19A 7183   2.638   3.309   9.491  2.2425 -1.2732 -2.1064
   64CHL1  H19B 7184   2.785   3.245   9.561 -0.1842 -0.3677  0.2629
   64CHL1  H19C 7185   2.636   3.257   9.663  2.1679 -0.0041  1.7903
   64CHL1    C1 7186   2.831   3.455   9.758  0.2249  0.2695  0.2499
   64CHL1   H1A 7187   2.935   3.418   9.744  0.1267  0.3271 -0.6998
   64CHL1   H1B 7188   2.844   3.562   9.786 -1.2051  0.6385 -0.4436
   64CHL1    C2 7189   2.765   3.381   9.878 -0.5866 -0.3028  0.5425
   64CHL1   H2A 7190   2.841   3.376   9.959 -0.9860 -1.3455  0.8785
   64CHL1   H2B 7191   2.747   3.274   9.853  4.5802 -0.9443 -1.7691
   64CHL1   C20 7192   2.994   3.517   8.976  0.0351 -0.6387 -0.1576
   64CHL1   H20 7193   2.929   3.431   8.948  0.5856 -1.0578 -0.1534
   64CHL1   C21 7194   3.142   3.480   9.021  0.5599 -0.5480  0.4452
   64CHL1  H21A 7195   3.188   3.568   9.070  1.3209 -0.1927 -0.8749
   64CHL1  H21B 7196   3.199   3.432   8.939  0.1544 -0.7640  0.2864
   64CHL1  H21C 7197   3.114   3.409   9.102 -1.9458  0.1036  0.2306
   64CHL1   C22 7198   2.995   3.586   8.835  1.2423 -0.1257 -0.2615
   64CHL1  H22A 7199   2.891   3.617   8.810  0.0701 -2.5677  1.1959
   64CHL1  H22B 7200   3.061   3.674   8.848 -0.8629  1.5468 -0.3388
   64CHL1   C23 7201   3.040   3.494   8.722 -0.2818 -0.0846  0.5664
   64CHL1  H23A 7202   3.149   3.475   8.725 -0.0516  0.4769 -2.0416
   64CHL1  H23B 7203   2.983   3.399   8.727 -2.7186  1.1994 -0.9133
   64CHL1   C24 7204   3.015   3.551   8.583  0.2290  0.1821 -0.1770
   64CHL1  H24A 7205   2.906   3.565   8.570  0.0812 -2.0277 -1.9822
   64CHL1  H24B 7206   3.046   3.658   8.576 -4.2288  1.5516 -3.0311
   64CHL1   C25 7207   3.082   3.481   8.462  0.8861 -0.0611 -0.0936
   64CHL1   H25 7208   3.191   3.460   8.471  1.2748  2.1757  1.1356
   64CHL1   C26 7209   3.006   3.348   8.435  0.1536  0.2784  0.6461
   64CHL1  H26A 7210   2.901   3.362   8.403 -0.3223 -1.1831  1.4668
   64CHL1  H26B 7211   3.045   3.298   8.344 -1.5010 -0.8080  0.4849
   64CHL1  H26C 7212   2.994   3.281   8.523 -1.0291  0.8189  0.9224
   64CHL1   C27 7213   3.063   3.575   8.341 -0.1480 -0.1310 -0.4418
   64CHL1  H27A 7214   3.133   3.660   8.355  2.7029 -2.2793 -0.7361
   64CHL1  H27B 7215   3.101   3.511   8.259 -0.6452  0.1145 -0.8665
   64CHL1  H27C 7216   2.959   3.609   8.324  0.2111  1.0636 -0.3869
   65CHL1    C3 7217   6.099   6.300  10.146 -0.2937  0.0504  0.2934
   65CHL1    H3 7218   6.133   6.401  10.115  0.8587 -0.4815 -0.2696
   65CHL1    O3 7219   6.103   6.274  10.285  0.0301 -0.1443  0.2572
   65CHL1   H3' 7220   6.120   6.180  10.298 -0.4229 -0.3514 -0.5595
   65CHL1    C4 7221   5.955   6.288  10.086 -0.4755  0.9253 -0.0800
   65CHL1   H4A 7222   5.926   6.185  10.116 -3.3500  1.0149 -2.1560
   65CHL1   H4B 7223   5.895   6.360  10.145  4.1621  4.7840  0.6140
   65CHL1    C5 7224   5.957   6.299   9.939  0.0619  0.2762  0.2457
   65CHL1    C6 7225   5.877   6.389   9.878  0.2582  0.0778 -0.2238
   65CHL1    H6 7226   5.813   6.450   9.944 -1.0600 -2.7183  1.2677
   65CHL1    C7 7227   5.855   6.392   9.733  0.0676  0.7075  0.5940
   65CHL1   H7A 7228   5.748   6.403   9.704  0.4701  0.6351 -1.0443
   65CHL1   H7B 7229   5.895   6.490   9.698 -2.4715  2.0643  1.2594
   65CHL1    C8 7230   5.912   6.273   9.651 -0.3180  0.3344  0.4900
   65CHL1    H8 7231   5.841   6.189   9.665  0.4136 -0.0355  2.3189
   65CHL1   C14 7232   5.919   6.310   9.502 -0.5171  0.1850  0.4568
   65CHL1   H14 7233   6.001   6.385   9.499  0.2946 -0.7106 -0.5337
   65CHL1   C15 7234   5.796   6.362   9.428  0.6326  0.2440  0.0435
   65CHL1  H15A 7235   5.705   6.309   9.462  0.4357  0.4723 -0.1279
   65CHL1  H15B 7236   5.776   6.468   9.454  0.7312 -0.2112  2.1653
   65CHL1   C16 7237   5.822   6.337   9.279 -0.3061 -0.5622  0.1564
   65CHL1  H16A 7238   5.758   6.255   9.239 -2.7148  0.5894  1.4351
   65CHL1  H16B 7239   5.795   6.417   9.208  0.0420 -1.7512 -1.3782
   65CHL1   C17 7240   5.964   6.275   9.274  0.4825 -0.4133 -0.5388
   65CHL1   H17 7241   6.026   6.367   9.280 -1.3143  0.8318 -0.6246
   65CHL1   C13 7242   5.976   6.208   9.411 -0.8625  0.2718  0.5303
   65CHL1   C18 7243   5.889   6.076   9.408  0.1662  0.5799 -0.3294
   65CHL1  H18A 7244   5.925   6.006   9.330  0.7379  3.1727 -2.5419
   65CHL1  H18B 7245   5.884   6.012   9.500 -0.0377 -1.4398 -1.6768
   65CHL1  H18C 7246   5.785   6.088   9.371  0.8517 -0.2802 -2.7026
   65CHL1   C12 7247   6.116   6.167   9.467 -0.6207  0.2171  0.3203
   65CHL1  H12A 7248   6.162   6.083   9.411 -1.3351 -0.1398  0.2609
   65CHL1  H12B 7249   6.178   6.259   9.456 -0.3196 -0.0761 -0.4677
   65CHL1   C11 7250   6.118   6.137   9.615 -0.4355 -0.2568  0.1336
   65CHL1  H11A 7251   6.078   6.034   9.630  0.5585 -0.5095  1.1637
   65CHL1  H11B 7252   6.222   6.117   9.647 -0.7286  2.0954  3.0140
   65CHL1    C9 7253   6.047   6.233   9.709 -0.1739  0.4506 -0.5133
   65CHL1    H9 7254   6.102   6.330   9.702 -1.3187  1.2185  0.5708
   65CHL1   C10 7255   6.052   6.203   9.853  0.1246  0.0908 -0.0944
   65CHL1   C19 7256   5.993   6.055   9.869 -0.4164 -0.6274 -0.2050
   65CHL1  H19A 7257   5.939   6.049   9.966  1.2070  2.1595  0.9945
   65CHL1  H19B 7258   5.920   6.039   9.786  0.5451 -1.1332 -0.9810
   65CHL1  H19C 7259   6.062   5.971   9.844 -1.5799 -1.2910 -1.3756
   65CHL1    C1 7260   6.190   6.220   9.914  0.3371  0.0790 -0.2411
   65CHL1   H1A 7261   6.248   6.135   9.872 -3.1201 -2.5321 -0.2232
   65CHL1   H1B 7262   6.237   6.316   9.887  0.0119 -0.0701 -1.3907
   65CHL1    C2 7263   6.186   6.195  10.070 -0.5267  0.7305 -0.5134
   65CHL1   H2A 7264   6.288   6.184  10.113 -0.3599 -3.2124 -1.6195
   65CHL1   H2B 7265   6.129   6.102  10.087 -0.2375  0.5198 -0.7059
   65CHL1   C20 7266   6.000   6.196   9.147 -0.7545 -0.3056  0.2200
   65CHL1   H20 7267   5.958   6.093   9.159 -1.4528  0.2293  2.9783
   65CHL1   C21 7268   6.158   6.173   9.132  0.6105  0.1298  0.5133
   65CHL1  H21A 7269   6.203   6.271   9.156 -0.6489  1.0838 -0.8701
   65CHL1  H21B 7270   6.193   6.147   9.030  1.1183 -0.2358  0.7718
   65CHL1  H21C 7271   6.193   6.099   9.208 -2.3040  0.7746  2.6571
   65CHL1   C22 7272   5.937   6.251   9.014  1.0662  0.2256  0.6463
   65CHL1  H22A 7273   5.967   6.182   8.932  2.0269  1.7107 -0.3048
   65CHL1  H22B 7274   5.826   6.254   9.020  0.9943  0.8935 -0.7524
   65CHL1   C23 7275   5.988   6.388   8.969  0.4023 -0.3875 -0.3748
   65CHL1  H23A 7276   5.974   6.452   9.059  0.1060  0.8305 -1.2663
   65CHL1  H23B 7277   6.096   6.386   8.944  0.4355 -1.7060 -0.1870
   65CHL1   C24 7278   5.918   6.431   8.838 -0.0790  0.1261  0.1837
   65CHL1  H24A 7279   5.929   6.353   8.759  2.0426  0.3512  0.1873
   65CHL1  H24B 7280   5.813   6.426   8.873 -0.0222  1.9610  0.7399
   65CHL1   C25 7281   5.963   6.563   8.779  0.0589  0.1857 -0.0633
   65CHL1   H25 7282   5.893   6.596   8.698  0.2922 -3.1830 -1.8228
   65CHL1   C26 7283   5.963   6.668   8.886  0.2831 -0.1527  0.5254
   65CHL1  H26A 7284   5.987   6.765   8.839 -0.3588 -0.6273 -0.8282
   65CHL1  H26B 7285   5.875   6.692   8.950  1.2584  1.9696  1.1726
   65CHL1  H26C 7286   6.041   6.648   8.963  0.1161 -1.7332  0.3173
   65CHL1   C27 7287   6.104   6.546   8.720  0.0144  0.1630  0.4738
   65CHL1  H27A 7288   6.179   6.530   8.800  1.2743 -0.4331 -0.7890
   65CHL1  H27B 7289   6.106   6.457   8.653 -1.4963  0.2280  0.3132
   65CHL1  H27C 7290   6.114   6.638   8.659  1.8172 -0.5928 -0.4586
   66CHL1    C3 7291   4.110   5.285  10.599 -0.4395  0.1928  0.3382
   66CHL1    H3 7292   4.006   5.325  10.589 -1.1522 -2.1129 -3.5661
   66CHL1    O3 7293   4.162   5.329  10.722 -0.1567  0.5206  0.0406
   66CHL1   H3' 7294   4.255   5.307  10.714  0.2461  2.5897 -2.2878
   66CHL1    C4 7295   4.111   5.128  10.608  0.4855 -0.4788 -0.1383
   66CHL1   H4A 7296   4.213   5.093  10.638  0.0360 -1.0912  0.7132
   66CHL1   H4B 7297   4.035   5.106  10.685  0.3797  0.5403  0.0569
   66CHL1    C5 7298   4.075   5.060  10.475  0.3372 -0.1751  0.8759
   66CHL1    C6 7299   3.964   4.978  10.449 -0.3171 -0.6630  0.5185
   66CHL1    H6 7300   3.906   4.955  10.539  0.7382  2.2575  2.0700
   66CHL1    C7 7301   3.930   4.913  10.318  0.3806  0.3859  1.5491
   66CHL1   H7A 7302   3.888   4.811  10.329  1.9889 -0.6885 -1.2731
   66CHL1   H7B 7303   3.846   4.962  10.266  0.2211 -2.1512 -0.7761
   66CHL1    C8 7304   4.054   4.917  10.225  0.3718 -0.1326 -0.1180
   66CHL1    H8 7305   4.134   4.856  10.271  2.1900  2.6018  0.5882
   66CHL1   C14 7306   4.024   4.860  10.085  0.1764 -0.1656  0.4816
   66CHL1   H14 7307   3.950   4.925  10.034  0.9097 -0.6916 -1.3531
   66CHL1   C15 7308   3.969   4.716  10.063 -0.0308 -0.7199  0.0620
   66CHL1  H15A 7309   4.042   4.648  10.112  1.0740  0.9838  0.8728
   66CHL1  H15B 7310   3.861   4.700  10.085 -0.6726 -0.7703 -2.7279
   66CHL1   C16 7311   3.974   4.699   9.912 -0.4497  0.2585 -0.6126
   66CHL1  H16A 7312   4.011   4.600   9.878  1.1869  0.7267 -0.2538
   66CHL1  H16B 7313   3.869   4.701   9.876 -0.4219  0.1041 -0.7039
   66CHL1   C17 7314   4.071   4.811   9.854 -0.0864  0.8150  0.0304
   66CHL1   H17 7315   4.016   4.897   9.808  1.6197 -0.0304 -4.0865
   66CHL1   C13 7316   4.141   4.870   9.981  0.4169  0.1448  0.0624
   66CHL1   C18 7317   4.259   4.774  10.015  0.1761  0.2616  0.0524
   66CHL1  H18A 7318   4.230   4.666  10.010  1.4544 -0.0342 -1.9373
   66CHL1  H18B 7319   4.356   4.783   9.962  0.1236  1.8177  0.1731
   66CHL1  H18C 7320   4.290   4.805  10.117  2.2110  2.7812 -1.2157
   66CHL1   C12 7321   4.173   5.017   9.967  0.0794  0.6752 -0.6230
   66CHL1  H12A 7322   4.249   5.019   9.886 -1.5847 -1.1245 -2.3480
   66CHL1  H12B 7323   4.081   5.067   9.932 -0.3488  0.9351  0.8288
   66CHL1   C11 7324   4.223   5.079  10.103 -0.0480  0.2975  0.0693
   66CHL1  H11A 7325   4.307   5.016  10.138 -1.5557 -1.4842  0.6524
   66CHL1  H11B 7326   4.264   5.181  10.085  0.4398 -0.1646 -1.4806
   66CHL1    C9 7327   4.117   5.068  10.216 -0.1035  0.1687 -0.1230
   66CHL1    H9 7328   4.028   5.128  10.188 -0.6634 -0.8405 -0.5827
   66CHL1   C10 7329   4.163   5.120  10.357  0.3490  0.2716  0.5621
   66CHL1   C19 7330   4.298   5.062  10.380 -0.1672  0.0946  0.4338
   66CHL1  H19A 7331   4.365   5.118  10.312 -1.8367  0.8484 -0.6529
   66CHL1  H19B 7332   4.337   5.084  10.482 -1.0971 -0.1746  0.8610
   66CHL1  H19C 7333   4.322   4.955  10.360 -2.1231 -0.2244 -0.4739
   66CHL1    C1 7334   4.160   5.277  10.361 -0.0421 -0.5617 -0.2812
   66CHL1   H1A 7335   4.217   5.326  10.278 -1.6280  1.1104 -0.4366
   66CHL1   H1B 7336   4.054   5.302  10.342 -0.2639 -0.7452  0.6677
   66CHL1    C2 7337   4.205   5.333  10.493  0.0926 -1.0772  0.8169
   66CHL1   H2A 7338   4.206   5.444  10.482  3.1252 -1.1743 -1.2368
   66CHL1   H2B 7339   4.304   5.291  10.520  0.3748 -0.0829  1.3838
   66CHL1   C20 7340   4.146   4.748   9.732  0.3264  0.0344  0.0545
   66CHL1   H20 7341   4.176   4.655   9.784 -1.0891  0.0657  0.9926
   66CHL1   C21 7342   4.269   4.828   9.692  0.6112  0.0708  0.0179
   66CHL1  H21A 7343   4.244   4.913   9.626  0.7155  1.1519  1.3166
   66CHL1  H21B 7344   4.342   4.762   9.639 -0.9033 -0.6322 -1.2638
   66CHL1  H21C 7345   4.320   4.869   9.782  0.9437  1.4086 -0.7612
   66CHL1   C22 7346   4.058   4.711   9.608  0.2376  0.1904  0.4295
   66CHL1  H22A 7347   3.966   4.661   9.646  0.4158 -0.3986  0.0934
   66CHL1  H22B 7348   4.019   4.806   9.563 -0.6574  0.0561  0.8927
   66CHL1   C23 7349   4.127   4.619   9.512 -0.1107 -0.0539  0.1563
   66CHL1  H23A 7350   4.205   4.676   9.457  2.0019 -0.6436  2.3533
   66CHL1  H23B 7351   4.178   4.541   9.571  0.1509  0.9521  1.2966
   66CHL1   C24 7352   4.033   4.544   9.411 -0.2125 -0.2824 -0.3649
   66CHL1  H24A 7353   4.092   4.460   9.370  1.8071  0.5884  0.5921
   66CHL1  H24B 7354   3.947   4.503   9.466  0.9868 -1.5573  0.6190
   66CHL1   C25 7355   3.995   4.645   9.303 -0.6335  0.3425  0.3366
   66CHL1   H25 7356   3.971   4.745   9.345 -0.2632  0.8189 -0.5513
   66CHL1   C26 7357   4.106   4.647   9.196  1.0258  0.1026 -0.9342
   66CHL1  H26A 7358   4.086   4.731   9.126  0.9726 -0.5807 -1.7503
   66CHL1  H26B 7359   4.206   4.673   9.237  0.2012  3.0779 -0.5687
   66CHL1  H26C 7360   4.106   4.549   9.144 -2.2678 -0.8988  0.6903
   66CHL1   C27 7361   3.868   4.591   9.235  0.8239  0.2589  0.4175
   66CHL1  H27A 7362   3.838   4.658   9.152  0.7495 -2.5695 -2.0164
   66CHL1  H27B 7363   3.873   4.488   9.194 -1.7698 -1.5632  4.0825
   66CHL1  H27C 7364   3.782   4.591   9.306 -1.0349  2.3301 -1.6718
   67CHL1    C3 7365   1.633   4.514  10.301  0.4559  0.1086  0.4599
   67CHL1    H3 7366   1.676   4.614  10.283  1.4050 -0.3303  0.2565
   67CHL1    O3 7367   1.657   4.485  10.441  0.1195 -0.5863 -0.3751
   67CHL1   H3' 7368   1.636   4.392  10.451 -0.6786 -0.2361  1.5305
   67CHL1    C4 7369   1.482   4.514  10.277  0.8563  0.2886  0.2192
   67CHL1   H4A 7370   1.429   4.423  10.310 -0.0910  0.9498  0.5499
   67CHL1   H4B 7371   1.441   4.597  10.337 -0.6757 -0.1951 -0.1257
   67CHL1    C5 7372   1.458   4.543  10.127  0.1584 -0.3854  0.6677
   67CHL1    C6 7373   1.382   4.645  10.088  0.3885  0.5637  0.1497
   67CHL1    H6 7374   1.331   4.709  10.161 -0.2516 -0.8839  1.0085
   67CHL1    C7 7375   1.349   4.669   9.949  0.2079 -0.4651  0.4989
   67CHL1   H7A 7376   1.239   4.686   9.942  0.1407 -1.1629 -0.2929
   67CHL1   H7B 7377   1.410   4.759   9.927  0.1966  0.3372  3.3382
   67CHL1    C8 7378   1.377   4.559   9.849  0.2096  0.7198  0.4964
   67CHL1    H8 7379   1.297   4.483   9.852  1.9287 -1.1844  0.3295
   67CHL1   C14 7380   1.383   4.610   9.701  0.2994  0.0092 -0.8562
   67CHL1   H14 7381   1.454   4.695   9.701 -1.7742  1.9013  1.6607
   67CHL1   C15 7382   1.261   4.686   9.649 -0.7688 -0.2280 -0.1855
   67CHL1  H15A 7383   1.170   4.628   9.673 -0.0511 -0.4509  2.2979
   67CHL1  H15B 7384   1.256   4.780   9.709 -0.8296 -0.7138  0.5785
   67CHL1   C16 7385   1.284   4.696   9.495 -0.2878 -0.0422 -0.0447
   67CHL1  H16A 7386   1.192   4.654   9.448  0.9938 -1.2385 -1.5860
   67CHL1  H16B 7387   1.307   4.793   9.448  3.4872  0.3086  2.1242
   67CHL1   C17 7388   1.411   4.599   9.473  0.2931  1.2953 -0.3859
   67CHL1   H17 7389   1.496   4.670   9.484  1.9303 -0.3878 -1.7090
   67CHL1   C13 7390   1.425   4.509   9.597  0.0987  0.6723  1.5392
   67CHL1   C18 7391   1.313   4.406   9.587 -0.0537  0.4527 -0.2652
   67CHL1  H18A 7392   1.215   4.453   9.565 -0.7059 -1.0028 -0.6281
   67CHL1  H18B 7393   1.338   4.320   9.521 -0.5919 -0.1624  0.3161
   67CHL1  H18C 7394   1.294   4.361   9.686 -0.4673  1.1170 -0.0344
   67CHL1   C12 7395   1.560   4.449   9.630  0.2107  0.0025 -0.5435
   67CHL1  H12A 7396   1.591   4.371   9.557 -0.0581 -0.4026 -0.2255
   67CHL1  H12B 7397   1.629   4.536   9.636 -1.4634  1.4082 -0.7575
   67CHL1   C11 7398   1.565   4.393   9.769  0.2479  0.0649 -0.2538
   67CHL1  H11A 7399   1.494   4.308   9.770  0.7703 -0.3967 -1.1584
   67CHL1  H11B 7400   1.662   4.349   9.798 -0.8309 -0.9395  2.0992
   67CHL1    C9 7401   1.513   4.492   9.878 -0.0601 -0.2056  0.4109
   67CHL1    H9 7402   1.590   4.572   9.875  0.8000 -1.0088  0.8670
   67CHL1   C10 7403   1.525   4.450  10.031 -0.2059  0.0376 -0.2253
   67CHL1   C19 7404   1.464   4.312  10.045  0.4322  0.2534  0.1484
   67CHL1  H19A 7405   1.456   4.291  10.154 -1.6756 -0.0998 -0.0315
   67CHL1  H19B 7406   1.362   4.301  10.004  0.0265 -0.3664  1.2815
   67CHL1  H19C 7407   1.525   4.236   9.991 -1.8128 -0.9921 -0.7585
   67CHL1    C1 7408   1.680   4.438  10.070  0.3780 -0.4387  0.4979
   67CHL1   H1A 7409   1.722   4.357  10.006 -0.1890  1.2793 -2.2276
   67CHL1   H1B 7410   1.718   4.540  10.050 -0.6210 -0.5341 -2.3115
   67CHL1    C2 7411   1.703   4.402  10.215 -0.1351  1.1494 -0.0370
   67CHL1   H2A 7412   1.813   4.393  10.232 -0.1023 -0.8185 -0.9650
   67CHL1   H2B 7413   1.656   4.306  10.246  0.0951  1.6891  2.1583
   67CHL1   C20 7414   1.430   4.529   9.336 -0.7287  0.2987 -0.7142
   67CHL1   H20 7415   1.489   4.437   9.353  1.4878  1.5830 -1.1065
   67CHL1   C21 7416   1.521   4.620   9.256 -0.0999  0.0616 -0.1689
   67CHL1  H21A 7417   1.613   4.644   9.313 -0.7185  3.0516 -0.2717
   67CHL1  H21B 7418   1.476   4.718   9.228 -3.0410 -0.9692  0.5236
   67CHL1  H21C 7419   1.547   4.565   9.163 -0.1445 -0.1339 -0.0659
   67CHL1   C22 7420   1.295   4.501   9.259 -0.5063  0.1300 -0.2690
   67CHL1  H22A 7421   1.227   4.442   9.324 -1.3912  1.1056 -0.2853
   67CHL1  H22B 7422   1.247   4.597   9.232  2.2078  1.6377 -0.0535
   67CHL1   C23 7423   1.313   4.428   9.131  0.1233  0.0259 -0.0256
   67CHL1  H23A 7424   1.381   4.491   9.071  0.7005  0.8451  1.4360
   67CHL1  H23B 7425   1.368   4.334   9.152 -1.7717 -1.0072  0.6401
   67CHL1   C24 7426   1.171   4.424   9.067 -0.6113  0.2368 -0.0794
   67CHL1  H24A 7427   1.097   4.367   9.127  1.1246 -1.0197  0.9665
   67CHL1  H24B 7428   1.126   4.524   9.052 -1.4178 -0.0369  0.4113
   67CHL1   C25 7429   1.168   4.369   8.921 -0.2972  0.7147 -0.7986
   67CHL1   H25 7430   1.235   4.281   8.916  0.9837  1.6169  0.0420
   67CHL1   C26 7431   1.027   4.321   8.872  0.7457  0.0592 -0.1877
   67CHL1  H26A 7432   0.967   4.414   8.880  0.1494 -0.2281 -1.1432
   67CHL1  H26B 7433   1.024   4.290   8.765  0.7532  0.9791 -0.4612
   67CHL1  H26C 7434   1.000   4.231   8.932 -0.2603  0.7754  0.4806
   67CHL1   C27 7435   1.232   4.473   8.822  0.4608 -0.0007 -0.0639
   67CHL1  H27A 7436   1.192   4.461   8.719  0.0968  1.1880 -0.0775
   67CHL1  H27B 7437   1.207   4.577   8.850  2.0453  0.3433  0.1622
   67CHL1  H27C 7438   1.342   4.465   8.829  0.4483 -1.3308 -1.0103
   68CHL1    C3 7439   5.893   5.668  10.147  0.8400 -0.4520  0.7766
   68CHL1    H3 7440   5.823   5.754  10.156  1.4221  0.0916  0.2003
   68CHL1    O3 7441   5.944   5.662  10.280 -0.8626 -0.2214  0.1116
   68CHL1   H3' 7442   5.990   5.579  10.290  0.1775  0.4758  1.3515
   68CHL1    C4 7443   5.802   5.548  10.110 -0.4933 -0.1731  0.8734
   68CHL1   H4A 7444   5.839   5.444  10.124 -2.6689 -0.9136  1.6391
   68CHL1   H4B 7445   5.715   5.560  10.178  0.3663 -0.6245  2.0794
   68CHL1    C5 7446   5.752   5.555   9.963  0.2327  0.2864  0.3159
   68CHL1    C6 7447   5.620   5.539   9.934 -0.0562  0.0289 -0.5346
   68CHL1    H6 7448   5.553   5.530  10.021  3.3859  0.4828  2.4106
   68CHL1    C7 7449   5.560   5.537   9.799 -0.6047 -0.2103  0.6310
   68CHL1   H7A 7450   5.490   5.451   9.796 -0.2167 -0.6018 -3.9381
   68CHL1   H7B 7451   5.499   5.624   9.770 -1.5143 -0.6589  1.1724
   68CHL1    C8 7452   5.672   5.518   9.692  0.3206 -0.1155  0.0162
   68CHL1    H8 7453   5.718   5.416   9.689  0.7408  0.0827 -0.4705
   68CHL1   C14 7454   5.620   5.542   9.549  0.6975 -0.5320  0.3883
   68CHL1   H14 7455   5.600   5.651   9.552 -3.0713 -1.0965  1.1460
   68CHL1   C15 7456   5.484   5.492   9.500  0.2234  0.8200  0.0202
   68CHL1  H15A 7457   5.466   5.383   9.514 -1.6402  0.7047 -2.4287
   68CHL1  H15B 7458   5.400   5.534   9.561 -0.2424 -0.6294  0.4126
   68CHL1   C16 7459   5.482   5.518   9.350  0.2939 -0.2038 -0.0245
   68CHL1  H16A 7460   5.457   5.426   9.293  0.4728  0.2876 -0.9025
   68CHL1  H16B 7461   5.399   5.588   9.325  1.7119  0.6598 -2.5842
   68CHL1   C17 7462   5.625   5.558   9.306 -1.0125 -0.4159  0.7377
   68CHL1   H17 7463   5.615   5.669   9.307  1.8362 -0.0571  2.8725
   68CHL1   C13 7464   5.718   5.525   9.431  0.2185 -0.1605  0.3329
   68CHL1   C18 7465   5.763   5.381   9.415 -0.6829 -0.2422  0.0905
   68CHL1  H18A 7466   5.810   5.355   9.512  0.1079 -0.4759 -0.3514
   68CHL1  H18B 7467   5.679   5.308   9.407 -0.4613 -0.2847 -2.8286
   68CHL1  H18C 7468   5.827   5.372   9.325 -0.0806  1.4906  0.3132
   68CHL1   C12 7469   5.832   5.625   9.456  0.6470  0.2582  0.2106
   68CHL1  H12A 7470   5.913   5.600   9.384  0.3519  0.2309 -0.1147
   68CHL1  H12B 7471   5.810   5.732   9.440 -0.4355  0.1563  0.9045
   68CHL1   C11 7472   5.890   5.617   9.602 -0.1252 -0.5277  0.1762
   68CHL1  H11A 7473   5.962   5.533   9.591 -0.4039 -0.9229  1.1951
   68CHL1  H11B 7474   5.937   5.714   9.626  0.3047 -1.3225  2.9025
   68CHL1    C9 7475   5.792   5.606   9.718  0.5178  0.1254 -0.2251
   68CHL1    H9 7476   5.749   5.708   9.726 -2.1164 -1.0087  1.5009
   68CHL1   C10 7477   5.861   5.586   9.856 -0.1448 -0.6046  0.6426
   68CHL1   C19 7478   5.951   5.459   9.849 -0.6516 -0.1512 -0.0590
   68CHL1  H19A 7479   6.050   5.470   9.800  0.2035  1.2630  1.8944
   68CHL1  H19B 7480   5.968   5.416   9.950  0.8553 -0.9285 -0.6208
   68CHL1  H19C 7481   5.893   5.381   9.795  1.5233 -0.8000 -1.6042
   68CHL1    C1 7482   5.943   5.713   9.895 -0.3718 -1.0247  0.6905
   68CHL1   H1A 7483   6.030   5.717   9.826 -0.2228 -1.6195  0.8459
   68CHL1   H1B 7484   5.867   5.793   9.880  0.3518 -0.3048  0.7780
   68CHL1    C2 7485   5.995   5.700  10.041 -0.2879 -0.7575  0.7203
   68CHL1   H2A 7486   6.048   5.796  10.060 -2.1662  0.4717  0.0359
   68CHL1   H2B 7487   6.073   5.622  10.045  2.2902  1.7008  1.7607
   68CHL1   C20 7488   5.666   5.507   9.159  0.0697  0.2995 -0.8090
   68CHL1   H20 7489   5.671   5.396   9.157  0.3867  0.3151 -1.0518
   68CHL1   C21 7490   5.798   5.570   9.114 -0.4572 -0.2617  0.2431
   68CHL1  H21A 7491   5.828   5.526   9.017  0.6921  3.5221 -1.3079
   68CHL1  H21B 7492   5.880   5.568   9.189 -0.6370  0.8695  0.5034
   68CHL1  H21C 7493   5.774   5.676   9.089  0.3207 -0.4985 -1.6243
   68CHL1   C22 7494   5.554   5.540   9.056 -0.2575  0.1533  0.1731
   68CHL1  H22A 7495   5.464   5.476   9.069  0.4382 -0.5885  1.5766
   68CHL1  H22B 7496   5.523   5.642   9.087  1.2103  1.0837 -1.2859
   68CHL1   C23 7497   5.581   5.562   8.907 -0.2706 -0.1735  1.0276
   68CHL1  H23A 7498   5.668   5.631   8.902  1.6264 -2.5301 -0.7537
   68CHL1  H23B 7499   5.613   5.473   8.849 -0.4020  1.3874 -1.6181
   68CHL1   C24 7500   5.460   5.619   8.828  0.0109  0.0396  0.1365
   68CHL1  H24A 7501   5.375   5.548   8.833  1.5557 -1.8463  0.7887
   68CHL1  H24B 7502   5.434   5.716   8.874 -2.8111 -0.9740  0.8733
   68CHL1   C25 7503   5.495   5.663   8.686 -0.1725  0.8094 -0.0605
   68CHL1   H25 7504   5.582   5.733   8.689  1.9400 -1.6270 -1.1894
   68CHL1   C26 7505   5.527   5.552   8.587  0.3460  0.4729 -0.0982
   68CHL1  H26A 7506   5.613   5.490   8.620 -1.1305 -1.4565  0.3434
   68CHL1  H26B 7507   5.442   5.482   8.570  0.9326  0.0478 -1.3842
   68CHL1  H26C 7508   5.561   5.602   8.494 -1.0420  2.5639  0.4668
   68CHL1   C27 7509   5.365   5.741   8.645  0.2527 -0.5332  0.7347
   68CHL1  H27A 7510   5.366   5.840   8.696  2.0094 -1.1277  1.9592
   68CHL1  H27B 7511   5.381   5.752   8.536  2.3189 -1.8710  0.8348
   68CHL1  H27C 7512   5.276   5.679   8.670  0.6332 -2.2136 -1.7233
   69CHL1    C3 7513   6.087   3.647   6.760 -0.5103  1.2924 -0.0440
   69CHL1    H3 7514   5.982   3.621   6.786 -0.5477  0.9953 -0.4855
   69CHL1    O3 7515   6.124   3.621   6.625 -0.7744 -0.4166 -0.3982
   69CHL1   H3' 7516   6.155   3.530   6.625  3.0882  0.7225 -1.3873
   69CHL1    C4 7517   6.091   3.797   6.776 -0.8138 -0.1977 -0.5441
   69CHL1   H4A 7518   6.183   3.837   6.728 -0.9424 -1.8212 -2.2520
   69CHL1   H4B 7519   6.009   3.851   6.724  0.6701  2.9578  0.1235
   69CHL1    C5 7520   6.084   3.840   6.917 -0.4398  0.2683 -0.4342
   69CHL1    C6 7521   5.993   3.928   6.953 -0.3412 -0.8841 -0.8078
   69CHL1    H6 7522   5.924   3.972   6.880 -2.2951 -1.1741  0.7555
   69CHL1    C7 7523   5.977   3.976   7.104  0.0123  0.8008 -0.3870
   69CHL1   H7A 7524   5.972   4.087   7.103 -2.8226  0.7489 -0.4745
   69CHL1   H7B 7525   5.879   3.949   7.149  0.7777 -0.2824  0.6866
   69CHL1    C8 7526   6.092   3.931   7.195 -0.1045  0.3229  0.0028
   69CHL1    H8 7527   6.182   3.994   7.176 -0.5362  0.9373 -0.0420
   69CHL1   C14 7528   6.058   3.951   7.342  0.2443 -0.2662  0.3581
   69CHL1   H14 7529   5.979   3.877   7.367 -0.3670  0.2152 -0.1419
   69CHL1   C15 7530   5.998   4.087   7.370  0.0385 -0.1682 -0.1596
   69CHL1  H15A 7531   6.049   4.162   7.306  1.4758 -1.0680 -0.1160
   69CHL1  H15B 7532   5.889   4.083   7.349  0.2003  3.1355 -2.2595
   69CHL1   C16 7533   6.033   4.099   7.518 -0.8359  0.0047  0.3602
   69CHL1  H16A 7534   6.112   4.176   7.527 -0.1698 -0.5674 -0.4359
   69CHL1  H16B 7535   5.950   4.106   7.591 -1.9790 -2.1947 -0.6262
   69CHL1   C17 7536   6.111   3.969   7.572 -0.0737 -0.3473 -0.2146
   69CHL1   H17 7537   6.032   3.905   7.616 -0.6995  0.0610 -0.7238
   69CHL1   C13 7538   6.167   3.911   7.445 -0.1206  0.1787  0.6652
   69CHL1   C18 7539   6.298   3.990   7.408 -0.1603  0.0036  0.8233
   69CHL1  H18A 7540   6.384   3.987   7.479  1.2274  2.2473 -0.6239
   69CHL1  H18B 7541   6.329   3.963   7.305 -1.0303  0.1491  0.5133
   69CHL1  H18C 7542   6.285   4.101   7.408  2.3769  0.3800  0.5413
   69CHL1   C12 7543   6.186   3.759   7.431 -0.1029 -0.1284  0.6559
   69CHL1  H12A 7544   6.265   3.729   7.503 -1.3681  0.3761  2.3239
   69CHL1  H12B 7545   6.089   3.707   7.445  1.2336 -2.4992  1.6994
   69CHL1   C11 7546   6.220   3.720   7.280  0.3484  0.3789  0.6174
   69CHL1  H11A 7547   6.325   3.751   7.266  0.3961 -0.4739 -1.2499
   69CHL1  H11B 7548   6.222   3.609   7.280  1.1681  0.3865 -0.0074
   69CHL1    C9 7549   6.123   3.785   7.172  0.7444  0.5800  0.4067
   69CHL1    H9 7550   6.028   3.727   7.178  0.5017  0.8143 -0.8354
   69CHL1   C10 7551   6.168   3.762   7.023  0.2924  0.5740  0.2018
   69CHL1   C19 7552   6.313   3.817   7.005 -0.1500  0.4668 -0.3201
   69CHL1  H19A 7553   6.382   3.752   7.062 -0.4487  0.5328  0.1202
   69CHL1  H19B 7554   6.342   3.789   6.902 -1.1190 -0.5893 -0.3119
   69CHL1  H19C 7555   6.326   3.927   7.021  0.8505  0.3410 -0.1743
   69CHL1    C1 7556   6.178   3.611   6.993 -0.5655  0.3143  0.3079
   69CHL1   H1A 7557   6.263   3.566   7.049  0.4725 -0.8119 -2.0242
   69CHL1   H1B 7558   6.085   3.562   7.029  0.0468 -2.2268 -1.2537
   69CHL1    C2 7559   6.191   3.569   6.845 -0.6968  0.4938  0.2608
   69CHL1   H2A 7560   6.175   3.459   6.840 -1.9613  0.6949 -0.6853
   69CHL1   H2B 7561   6.296   3.587   6.814  0.1086 -0.7834  2.0772
   69CHL1   C20 7562   6.211   4.001   7.684 -0.4557 -0.2379 -0.1084
   69CHL1   H20 7563   6.294   4.063   7.644 -0.8065  0.7693  0.6814
   69CHL1   C21 7564   6.272   3.870   7.743  0.2074 -0.9557  0.5291
   69CHL1  H21A 7565   6.204   3.823   7.817  0.1575 -1.0494  0.4230
   69CHL1  H21B 7566   6.363   3.895   7.802  0.4102 -1.4881  0.4479
   69CHL1  H21C 7567   6.321   3.816   7.660  3.2224  0.2227  1.3971
   69CHL1   C22 7568   6.139   4.079   7.799 -0.1886  0.2505 -0.3971
   69CHL1  H22A 7569   6.126   4.184   7.764  0.8339  0.5671  0.1362
   69CHL1  H22B 7570   6.043   4.024   7.806 -0.0711  0.0630 -0.2534
   69CHL1   C23 7571   6.201   4.083   7.941  0.7590 -0.1653 -0.5515
   69CHL1  H23A 7572   6.198   3.987   7.997 -1.1627  0.5703  0.7252
   69CHL1  H23B 7573   6.305   4.121   7.932  1.0634 -1.1699 -1.4953
   69CHL1   C24 7574   6.119   4.186   8.024 -0.0334 -0.3126 -0.3836
   69CHL1  H24A 7575   6.147   4.280   7.972 -1.0394 -0.1780 -0.7071
   69CHL1  H24B 7576   6.008   4.179   8.024 -0.0894  0.4575 -0.5918
   69CHL1   C25 7577   6.169   4.186   8.170 -0.1937 -0.6380  0.5408
   69CHL1   H25 7578   6.280   4.184   8.174 -0.1745  0.1001  0.6343
   69CHL1   C26 7579   6.123   4.317   8.232  0.2266  0.6365 -0.4071
   69CHL1  H26A 7580   6.014   4.322   8.209  0.3473 -0.0644 -1.1884
   69CHL1  H26B 7581   6.163   4.309   8.335 -1.8747 -1.6559  0.3267
   69CHL1  H26C 7582   6.173   4.400   8.178  0.2536  1.0350  0.2291
   69CHL1   C27 7583   6.112   4.061   8.239 -0.3879 -0.3112 -0.1962
   69CHL1  H27A 7584   6.154   4.045   8.341 -0.1636 -0.3483 -0.2946
   69CHL1  H27B 7585   6.002   4.071   8.255 -0.2205 -0.6267  1.3396
   69CHL1  H27C 7586   6.127   3.970   8.177 -1.6195 -1.0635  0.5430
   70CHL1    C3 7587   4.288   6.761   7.082 -0.1938 -0.2620  0.2319
   70CHL1    H3 7588   4.288   6.653   7.108 -0.8475 -0.0622  1.1060
   70CHL1    O3 7589   4.262   6.777   6.943 -0.1411 -0.0172  0.3839
   70CHL1   H3' 7590   4.195   6.845   6.931  0.4628  1.0034  2.4338
   70CHL1    C4 7591   4.186   6.837   7.159 -0.3243 -0.7184  0.5011
   70CHL1   H4A 7592   4.180   6.941   7.122 -1.8595 -0.2064  2.0447
   70CHL1   H4B 7593   4.085   6.792   7.144 -0.5595 -0.3435  0.9245
   70CHL1    C5 7594   4.224   6.844   7.306  0.1811 -0.1922  0.1591
   70CHL1    C6 7595   4.136   6.807   7.398 -0.3134 -0.1086 -0.3483
   70CHL1    H6 7596   4.033   6.778   7.372 -0.8122  0.7343  0.6339
   70CHL1    C7 7597   4.168   6.815   7.544 -0.6971 -0.3894  0.0102
   70CHL1   H7A 7598   4.085   6.862   7.600  1.3314  1.4892  1.6099
   70CHL1   H7B 7599   4.183   6.714   7.588  0.5702  0.2291  1.0832
   70CHL1    C8 7600   4.297   6.896   7.582  0.2309  0.3332 -0.0956
   70CHL1    H8 7601   4.266   7.003   7.577  1.2643  0.6654  0.3427
   70CHL1   C14 7602   4.338   6.860   7.720  0.1847 -0.3197 -0.3313
   70CHL1   H14 7603   4.365   6.752   7.717  0.6082 -0.2291  0.0799
   70CHL1   C15 7604   4.225   6.867   7.834 -0.5022 -0.3969  0.6132
   70CHL1  H15A 7605   4.176   6.967   7.829 -1.5773 -0.9688 -2.9344
   70CHL1  H15B 7606   4.155   6.781   7.829 -0.1990 -0.6670  1.0341
   70CHL1   C16 7607   4.306   6.869   7.970 -0.6818 -0.5372 -0.2878
   70CHL1  H16A 7608   4.269   6.950   8.036  0.8986  1.1079 -1.3038
   70CHL1  H16B 7609   4.302   6.767   8.015 -0.0352 -0.0189  1.0097
   70CHL1   C17 7610   4.455   6.894   7.927 -0.5453 -0.2439 -0.3873
   70CHL1   H17 7611   4.494   6.790   7.920  1.8882  0.2881  3.1367
   70CHL1   C13 7612   4.452   6.950   7.782 -0.8550  0.2139  0.5548
   70CHL1   C18 7613   4.413   7.101   7.786 -0.3966  0.5118  0.9464
   70CHL1  H18A 7614   4.400   7.142   7.683  0.0176 -0.3144  0.5555
   70CHL1  H18B 7615   4.317   7.116   7.839 -0.7092  0.4326  0.4151
   70CHL1  H18C 7616   4.493   7.153   7.843 -0.8981  0.6177  1.5564
   70CHL1   C12 7617   4.575   6.926   7.686 -0.4284  0.1858  0.5082
   70CHL1  H12A 7618   4.662   6.990   7.713 -0.3451  0.0800  0.4892
   70CHL1  H12B 7619   4.612   6.823   7.700 -0.2461  0.1209 -0.3819
   70CHL1   C11 7620   4.544   6.937   7.542  0.8742 -0.2005 -0.0292
   70CHL1  H11A 7621   4.527   7.046   7.532 -1.0645 -0.6529 -3.0793
   70CHL1  H11B 7622   4.630   6.916   7.475 -0.6331 -0.8975 -1.8425
   70CHL1    C9 7623   4.413   6.868   7.490  0.2867 -0.3783 -0.3344
   70CHL1    H9 7624   4.437   6.760   7.501 -1.6760 -0.9981 -1.7017
   70CHL1   C10 7625   4.368   6.893   7.342  0.3540 -0.4614  0.0134
   70CHL1   C19 7626   4.372   7.051   7.318 -0.2054  0.3294  0.1696
   70CHL1  H19A 7627   4.475   7.091   7.332 -0.3114  0.5665  0.2837
   70CHL1  H19B 7628   4.347   7.077   7.212 -1.6457  0.2590  0.4665
   70CHL1  H19C 7629   4.297   7.104   7.381 -1.0679 -0.4429 -0.1913
   70CHL1    C1 7630   4.470   6.828   7.251 -0.4905  0.5310  0.3857
   70CHL1   H1A 7631   4.570   6.874   7.268  0.2621 -1.2494  1.0971
   70CHL1   H1B 7632   4.479   6.722   7.282 -1.5894  0.8678  1.9972
   70CHL1    C2 7633   4.423   6.824   7.103 -0.5161  0.1566 -0.3342
   70CHL1   H2A 7634   4.495   6.761   7.047  1.3094  0.7084  1.2688
   70CHL1   H2B 7635   4.409   6.928   7.066 -0.7006  0.4307  0.4824
   70CHL1   C20 7636   4.543   6.975   8.021  0.3858 -0.2942 -0.3018
   70CHL1   H20 7637   4.496   7.075   8.033  0.3185 -0.5392  1.8289
   70CHL1   C21 7638   4.682   6.995   7.970 -0.1966  0.1752 -0.3486
   70CHL1  H21A 7639   4.727   6.900   7.932 -1.6647 -0.9388  0.5630
   70CHL1  H21B 7640   4.751   7.034   8.047 -0.8445 -0.2769  0.4720
   70CHL1  H21C 7641   4.680   7.074   7.892  0.3424  0.3674 -0.1730
   70CHL1   C22 7642   4.541   6.911   8.163 -0.1917  0.0691 -0.1241
   70CHL1  H22A 7643   4.582   6.987   8.232  1.6836  0.3188 -1.4316
   70CHL1  H22B 7644   4.438   6.888   8.198 -0.9096 -1.5329 -2.8956
   70CHL1   C23 7645   4.606   6.773   8.182 -0.2795  0.5930 -0.4651
   70CHL1  H23A 7646   4.539   6.689   8.156 -0.9786  0.5700  1.3042
   70CHL1  H23B 7647   4.694   6.752   8.117 -1.1769 -0.4198 -1.4051
   70CHL1   C24 7648   4.640   6.759   8.338 -0.7165 -0.7292 -0.1160
   70CHL1  H24A 7649   4.733   6.817   8.357 -0.5183 -1.2149  0.4342
   70CHL1  H24B 7650   4.564   6.820   8.391 -0.7768  0.6899 -1.7634
   70CHL1   C25 7651   4.643   6.617   8.405 -0.3048  0.0674  0.9996
   70CHL1   H25 7652   4.538   6.583   8.414 -0.6437  0.1800 -1.6868
   70CHL1   C26 7653   4.734   6.514   8.336 -0.1128 -0.1589  0.0003
   70CHL1  H26A 7654   4.738   6.415   8.386 -1.7154 -0.8260 -1.1188
   70CHL1  H26B 7655   4.693   6.504   8.233  0.8229  0.6626 -0.4681
   70CHL1  H26C 7656   4.838   6.553   8.330 -0.1018 -0.3561 -1.1641
   70CHL1   C27 7657   4.680   6.633   8.554 -0.1621 -0.0046  0.5872
   70CHL1  H27A 7658   4.742   6.724   8.568  1.0303 -0.5722 -0.7196
   70CHL1  H27B 7659   4.590   6.658   8.613  0.5018  1.0769  1.1778
   70CHL1  H27C 7660   4.717   6.539   8.599  2.0149  1.3160  1.7653
   71CHL1    C3 7661   2.940   3.866   6.788 -0.2654 -0.3633 -0.2563
   71CHL1    H3 7662   3.034   3.810   6.805 -0.6055 -0.6451  0.7955
   71CHL1    O3 7663   2.952   3.930   6.661  0.1368 -1.1823  0.4040
   71CHL1   H3' 7664   2.904   3.874   6.599 -3.2974  2.1788 -0.4170
   71CHL1    C4 7665   2.823   3.771   6.791  1.1830 -0.2664 -0.6035
   71CHL1   H4A 7666   2.734   3.822   6.749 -0.1033 -2.3856 -0.6135
   71CHL1   H4B 7667   2.844   3.682   6.728  2.3257 -1.3851  1.2326
   71CHL1    C5 7668   2.799   3.716   6.936 -0.0974 -0.2582 -0.6095
   71CHL1    C6 7669   2.790   3.585   6.956 -0.0014 -0.3065  0.8709
   71CHL1    H6 7670   2.782   3.522   6.867 -0.6326  2.5444 -1.2320
   71CHL1    C7 7671   2.760   3.517   7.085  0.0204 -0.4126  0.2707
   71CHL1   H7A 7672   2.671   3.452   7.079  1.0718 -1.9766  0.9029
   71CHL1   H7B 7673   2.847   3.452   7.109 -0.2794 -1.1664 -0.5872
   71CHL1    C8 7674   2.728   3.616   7.199  0.0998 -0.1179  0.2948
   71CHL1    H8 7675   2.619   3.638   7.199  0.0272 -0.4248 -0.8925
   71CHL1   C14 7676   2.766   3.550   7.335  0.2817  0.7759  0.1152
   71CHL1   H14 7677   2.875   3.527   7.341 -0.0809 -0.8168  1.1833
   71CHL1   C15 7678   2.700   3.412   7.366 -0.4837  0.3301 -0.3411
   71CHL1  H15A 7679   2.600   3.394   7.319 -0.3111  1.0815 -1.0167
   71CHL1  H15B 7680   2.759   3.324   7.331  0.5120  0.9178 -0.1712
   71CHL1   C16 7681   2.684   3.406   7.528 -0.3297 -0.4483  0.6649
   71CHL1  H16A 7682   2.578   3.420   7.558 -1.1101  1.4081 -2.5112
   71CHL1  H16B 7683   2.722   3.312   7.572  1.3024 -0.4549 -0.6372
   71CHL1   C17 7684   2.760   3.536   7.578 -0.5388  0.3738  0.1100
   71CHL1   H17 7685   2.866   3.506   7.572 -0.3557  0.6354  1.6080
   71CHL1   C13 7686   2.747   3.628   7.460 -0.4114 -0.3500  0.7436
   71CHL1   C18 7687   2.602   3.687   7.467 -0.6230 -0.5283 -0.1264
   71CHL1  H18A 7688   2.585   3.764   7.545 -0.1002 -0.4154 -0.1189
   71CHL1  H18B 7689   2.580   3.747   7.377  1.9226  0.9569  0.1414
   71CHL1  H18C 7690   2.529   3.603   7.466 -1.3732  0.1098 -1.5547
   71CHL1   C12 7691   2.848   3.744   7.443  0.4270  0.4081 -0.0281
   71CHL1  H12A 7692   2.837   3.816   7.527  1.7793 -0.4962  0.9801
   71CHL1  H12B 7693   2.952   3.709   7.458 -0.2989 -1.3278  1.3387
   71CHL1   C11 7694   2.822   3.827   7.309 -0.4487 -0.7400 -0.5627
   71CHL1  H11A 7695   2.729   3.886   7.326  0.2994 -0.1066  1.5145
   71CHL1  H11B 7696   2.904   3.902   7.307 -1.2137  0.1194 -1.6315
   71CHL1    C9 7697   2.814   3.742   7.181  0.3117 -0.0922 -0.0173
   71CHL1    H9 7698   2.918   3.703   7.179 -0.1967 -1.5304 -0.2686
   71CHL1   C10 7699   2.801   3.821   7.051 -0.4811  0.3371  0.0777
   71CHL1   C19 7700   2.665   3.890   7.034  0.0409 -0.5444  0.1091
   71CHL1  H19A 7701   2.581   3.817   7.034  0.6152 -1.2200 -0.4590
   71CHL1  H19B 7702   2.658   3.964   7.116  0.1879 -1.7646  1.2504
   71CHL1  H19C 7703   2.661   3.944   6.936  1.3346 -0.9123 -0.1573
   71CHL1    C1 7704   2.925   3.910   7.034 -0.5688  0.0566  0.1813
   71CHL1   H1A 7705   2.925   3.993   7.108  2.7447  0.8531 -0.5378
   71CHL1   H1B 7706   3.017   3.852   7.060 -0.7445 -0.6415 -0.7072
   71CHL1    C2 7707   2.935   3.974   6.897 -0.7781 -0.2201 -0.3860
   71CHL1   H2A 7708   3.026   4.037   6.887 -0.4367 -0.6801 -0.2233
   71CHL1   H2B 7709   2.860   4.047   6.860 -0.6212 -0.3980 -1.0778
   71CHL1   C20 7710   2.737   3.594   7.723  0.5324  0.3232 -0.4040
   71CHL1   H20 7711   2.638   3.644   7.732  0.3749 -0.3623  2.3710
   71CHL1   C21 7712   2.845   3.693   7.753  0.4980  0.0805 -0.5673
   71CHL1  H21A 7713   2.859   3.704   7.863 -0.8224  0.1884 -0.4006
   71CHL1  H21B 7714   2.822   3.796   7.721 -0.0712 -0.0642 -0.6293
   71CHL1  H21C 7715   2.945   3.665   7.714  0.6329 -1.1114  0.5273
   71CHL1   C22 7716   2.720   3.483   7.825 -0.1535 -0.0364  0.0743
   71CHL1  H22A 7717   2.651   3.400   7.797 -1.1997  0.8698 -0.1184
   71CHL1  H22B 7718   2.819   3.440   7.848  0.1971  1.0661  0.7366
   71CHL1   C23 7719   2.658   3.538   7.955 -0.0249  0.0080 -0.0032
   71CHL1  H23A 7720   2.738   3.597   8.004 -0.4677 -0.1370  0.9194
   71CHL1  H23B 7721   2.564   3.593   7.934 -0.5850 -0.5070  1.0489
   71CHL1   C24 7722   2.613   3.422   8.048  0.2519 -0.0017 -0.1453
   71CHL1  H24A 7723   2.525   3.365   8.014  1.4228 -0.6997 -2.1794
   71CHL1  H24B 7724   2.694   3.346   8.057 -0.5086 -0.7361  0.7079
   71CHL1   C25 7725   2.587   3.483   8.185 -0.3931  0.2619 -0.7224
   71CHL1   H25 7726   2.525   3.573   8.170  1.2645  1.5906 -0.0220
   71CHL1   C26 7727   2.507   3.386   8.283  0.1234 -0.2618 -0.2448
   71CHL1  H26A 7728   2.466   3.435   8.373 -0.4653  1.7661 -1.5425
   71CHL1  H26B 7729   2.424   3.335   8.230  0.9354 -4.6155  2.2224
   71CHL1  H26C 7730   2.561   3.293   8.312 -1.4214 -0.9285  0.6201
   71CHL1   C27 7731   2.717   3.529   8.255  0.0982 -0.4156 -0.3090
   71CHL1  H27A 7732   2.783   3.440   8.260 -1.4484 -1.5306  1.0185
   71CHL1  H27B 7733   2.765   3.611   8.197  0.2109 -0.1382  0.1679
   71CHL1  H27C 7734   2.700   3.573   8.356 -0.6356  1.8348 -1.3452
   72CHL1    C3 7735   4.254   2.835   6.859  0.0538  0.3135 -0.5764
   72CHL1    H3 7736   4.196   2.775   6.785  1.6911 -0.8036 -1.0028
   72CHL1    O3 7737   4.362   2.906   6.794  0.4076 -0.3025 -0.2880
   72CHL1   H3' 7738   4.362   2.992   6.837 -2.4965 -1.0655  1.5182
   72CHL1    C4 7739   4.153   2.936   6.916  0.5718 -0.0685 -0.2981
   72CHL1   H4A 7740   4.212   3.010   6.973  0.6928 -0.6031  0.2856
   72CHL1   H4B 7741   4.120   2.981   6.820 -0.4083 -0.5099 -0.1862
   72CHL1    C5 7742   4.049   2.862   6.999  0.3442  0.0172  0.3444
   72CHL1    C6 7743   3.920   2.867   6.969 -0.0632 -0.3425  0.2075
   72CHL1    H6 7744   3.898   2.928   6.880 -0.3252  1.7218  1.5979
   72CHL1    C7 7745   3.811   2.812   7.052 -0.2490 -0.3059  0.4161
   72CHL1   H7A 7746   3.729   2.887   7.051  0.3431  0.6134  4.5818
   72CHL1   H7B 7747   3.786   2.714   7.005  1.1262  0.1340 -1.3566
   72CHL1    C8 7748   3.856   2.773   7.197 -0.0514 -0.5263 -0.4825
   72CHL1    H8 7749   3.856   2.865   7.260 -1.3122  0.0505 -1.2790
   72CHL1   C14 7750   3.755   2.669   7.253  0.0678  0.5559  0.2327
   72CHL1   H14 7751   3.760   2.580   7.186  3.4312  0.8510 -0.0983
   72CHL1   C15 7752   3.605   2.714   7.260  0.1095  0.2178  0.0141
   72CHL1  H15A 7753   3.600   2.822   7.284  3.6643  0.2751  0.9181
   72CHL1  H15B 7754   3.558   2.688   7.162 -0.1141  2.0459 -0.3978
   72CHL1   C16 7755   3.540   2.619   7.366 -0.5603 -0.4423  0.2528
   72CHL1  H16A 7756   3.479   2.680   7.437 -1.7273 -1.1187 -0.1377
   72CHL1  H16B 7757   3.466   2.546   7.327  0.6919 -0.3625 -2.4289
   72CHL1   C17 7758   3.656   2.534   7.414  0.6395 -0.3791  0.4636
   72CHL1   H17 7759   3.663   2.447   7.345 -0.6759  0.4374 -0.7666
   72CHL1   C13 7760   3.783   2.618   7.392  0.5855 -0.1248  0.1287
   72CHL1   C18 7761   3.787   2.737   7.494 -0.4784 -0.0839  0.5142
   72CHL1  H18A 7762   3.858   2.816   7.461 -0.4843  0.0378  0.7957
   72CHL1  H18B 7763   3.687   2.781   7.515 -0.2630 -0.2900  2.1003
   72CHL1  H18C 7764   3.816   2.701   7.595  0.9711 -1.6643 -0.4188
   72CHL1   C12 7765   3.921   2.550   7.389  0.6494 -0.9922 -0.1293
   72CHL1  H12A 7766   3.957   2.517   7.489  1.5358 -0.3125 -0.2107
   72CHL1  H12B 7767   3.920   2.464   7.318  1.7993  0.6000 -2.1805
   72CHL1   C11 7768   4.034   2.641   7.326 -0.8829 -0.7589  0.1401
   72CHL1  H11A 7769   4.038   2.723   7.400 -0.1366 -2.1680  1.7406
   72CHL1  H11B 7770   4.126   2.578   7.329  0.2081  0.8076  0.3742
   72CHL1    C9 7771   3.996   2.703   7.188  0.7065  0.0360  0.4957
   72CHL1    H9 7772   3.975   2.619   7.118  1.0715  1.2606 -1.1389
   72CHL1   C10 7773   4.106   2.784   7.112  0.1632  0.4413 -0.5756
   72CHL1   C19 7774   4.168   2.881   7.223 -0.7466  0.5841  0.4872
   72CHL1  H19A 7775   4.223   2.833   7.307 -1.9272 -1.2493  0.2753
   72CHL1  H19B 7776   4.242   2.948   7.174 -0.2026 -0.8998 -0.8106
   72CHL1  H19C 7777   4.094   2.954   7.261 -0.4971  0.7499  0.6555
   72CHL1    C1 7778   4.212   2.680   7.057 -0.3612  0.2568  0.3636
   72CHL1   H1A 7779   4.253   2.630   7.148 -1.6301 -1.2748  0.1255
   72CHL1   H1B 7780   4.174   2.600   6.991 -2.3744 -0.2845  2.0969
   72CHL1    C2 7781   4.318   2.749   6.965 -0.9420 -0.5254  0.1299
   72CHL1   H2A 7782   4.374   2.665   6.918 -0.9858  0.2725 -1.4127
   72CHL1   H2B 7783   4.389   2.807   7.028  0.1656  0.0088 -1.5300
   72CHL1   C20 7784   3.636   2.483   7.562 -0.6648  0.2475  0.1837
   72CHL1   H20 7785   3.681   2.554   7.635  2.1691  0.9754 -2.1202
   72CHL1   C21 7786   3.727   2.351   7.575 -0.2513 -1.2853 -0.0213
   72CHL1  H21A 7787   3.691   2.276   7.502  0.2134  1.0703 -2.8811
   72CHL1  H21B 7788   3.701   2.315   7.676  0.0706 -0.1927  0.4710
   72CHL1  H21C 7789   3.836   2.372   7.563 -0.4971 -1.2622 -3.1647
   72CHL1   C22 7790   3.489   2.461   7.604 -0.5513  0.7664 -0.5021
   72CHL1  H22A 7791   3.416   2.544   7.592 -3.3560 -1.6833 -1.7051
   72CHL1  H22B 7792   3.446   2.385   7.535 -2.1078  2.0905 -1.0414
   72CHL1   C23 7793   3.457   2.416   7.748 -0.0984 -0.1172  0.0598
   72CHL1  H23A 7794   3.347   2.400   7.761  0.0980 -0.0458  2.0050
   72CHL1  H23B 7795   3.510   2.318   7.746  2.4942  1.1802  1.4330
   72CHL1   C24 7796   3.520   2.512   7.851  0.8111  0.5936 -0.4328
   72CHL1  H24A 7797   3.628   2.531   7.836  0.7402  0.4910 -1.1484
   72CHL1  H24B 7798   3.467   2.609   7.838  0.7519  0.8818  1.6056
   72CHL1   C25 7799   3.502   2.475   8.007 -0.1258 -0.0394 -0.0543
   72CHL1   H25 7800   3.399   2.435   8.014 -0.0910 -0.1615 -0.2454
   72CHL1   C26 7801   3.589   2.351   8.039 -0.3352  0.0373 -0.4763
   72CHL1  H26A 7802   3.684   2.344   7.982  0.0780 -3.0005  0.4160
   72CHL1  H26B 7803   3.598   2.356   8.149  1.6440  2.0104 -0.6518
   72CHL1  H26C 7804   3.540   2.255   8.012  1.8804 -1.8656  1.7807
   72CHL1   C27 7805   3.513   2.595   8.100  0.2555 -0.0028  0.4544
   72CHL1  H27A 7806   3.470   2.575   8.200  1.2254 -1.4749  0.6053
   72CHL1  H27B 7807   3.618   2.629   8.116  0.1521  0.0596  1.0052
   72CHL1  H27C 7808   3.448   2.669   8.049  1.0530  1.1966  1.1346
   73CHL1    C3 7809   2.253   2.708   6.872  0.5965 -0.5703 -0.1840
   73CHL1    H3 7810   2.160   2.681   6.926  1.3107  1.1429  2.0619
   73CHL1    O3 7811   2.225   2.766   6.744  0.0141 -0.7820  0.0295
   73CHL1   H3' 7812   2.307   2.772   6.695 -0.4464 -1.1857 -0.8031
   73CHL1    C4 7813   2.316   2.814   6.968  0.6506  0.0042 -0.0233
   73CHL1   H4A 7814   2.407   2.838   6.908  0.3538 -1.1308 -0.9670
   73CHL1   H4B 7815   2.255   2.906   6.978 -0.3941 -0.8437  1.8486
   73CHL1    C5 7816   2.337   2.739   7.103 -0.2164  0.9333  0.4854
   73CHL1    C6 7817   2.283   2.782   7.218 -0.0552 -0.0076  0.0714
   73CHL1    H6 7818   2.236   2.881   7.221  0.2804  0.1340  1.1327
   73CHL1    C7 7819   2.314   2.716   7.353  0.1974 -0.2252  0.0985
   73CHL1   H7A 7820   2.343   2.802   7.417  1.1881 -1.1668  0.9422
   73CHL1   H7B 7821   2.229   2.676   7.411  1.2111 -0.6134  1.3484
   73CHL1    C8 7822   2.428   2.611   7.350  0.2759 -0.0148  0.4941
   73CHL1    H8 7823   2.530   2.654   7.354 -0.0254  0.7202  0.3947
   73CHL1   C14 7824   2.420   2.514   7.479 -0.3145  0.1814  0.4612
   73CHL1   H14 7825   2.317   2.472   7.477 -0.4318  0.4719  0.3626
   73CHL1   C15 7826   2.431   2.587   7.613 -0.4253  0.1921  0.0345
   73CHL1  H15A 7827   2.509   2.665   7.606  0.5025 -0.8375 -2.2678
   73CHL1  H15B 7828   2.333   2.631   7.641 -0.3430 -0.0021  0.6530
   73CHL1   C16 7829   2.469   2.476   7.708  0.4812 -0.1744 -0.2083
   73CHL1  H16A 7830   2.570   2.490   7.752  1.0308  0.6389 -1.6850
   73CHL1  H16B 7831   2.392   2.462   7.787  0.1970  1.2246 -0.2114
   73CHL1   C17 7832   2.471   2.345   7.615 -0.5334  0.2123 -0.2337
   73CHL1   H17 7833   2.369   2.303   7.619 -0.7314  0.6835 -0.3383
   73CHL1   C13 7834   2.517   2.402   7.478 -0.1301  0.8556 -0.5730
   73CHL1   C18 7835   2.664   2.446   7.490 -0.4887  1.3988 -0.5225
   73CHL1  H18A 7836   2.682   2.503   7.583  0.0698 -0.1134  0.3322
   73CHL1  H18B 7837   2.743   2.368   7.493 -1.3565  0.5177  0.5123
   73CHL1  H18C 7838   2.690   2.506   7.400  0.5996 -0.0252 -1.2110
   73CHL1   C12 7839   2.493   2.316   7.358  0.6602  0.6669  0.0987
   73CHL1  H12A 7840   2.569   2.235   7.356 -1.0493 -0.9955 -0.6865
   73CHL1  H12B 7841   2.389   2.277   7.349  1.7153 -1.8901 -2.8404
   73CHL1   C11 7842   2.512   2.396   7.230 -0.6148 -0.7181  0.1194
   73CHL1  H11A 7843   2.617   2.434   7.227 -2.2965  4.7247  0.1558
   73CHL1  H11B 7844   2.490   2.331   7.143 -0.2976 -1.6597  0.7287
   73CHL1    C9 7845   2.413   2.526   7.227  1.0775  0.2599 -0.3868
   73CHL1    H9 7846   2.313   2.477   7.224  0.7718  0.7101  1.3463
   73CHL1   C10 7847   2.418   2.601   7.096  0.2414  0.2019  0.8682
   73CHL1   C19 7848   2.558   2.639   7.054 -0.2989  0.3897 -0.1123
   73CHL1  H19A 7849   2.618   2.549   7.027  0.7064  1.1467 -0.4794
   73CHL1  H19B 7850   2.569   2.702   6.964  1.2944 -0.7297 -0.7595
   73CHL1  H19C 7851   2.600   2.690   7.144  1.8060 -1.6403  0.1434
   73CHL1    C1 7852   2.346   2.511   6.985 -0.4976  0.2276 -0.2489
   73CHL1   H1A 7853   2.413   2.424   6.964  0.1329  0.7429 -0.4069
   73CHL1   H1B 7854   2.251   2.461   7.015 -1.0301  1.0090 -0.6208
   73CHL1    C2 7855   2.336   2.584   6.844 -0.2871 -0.6928 -0.1541
   73CHL1   H2A 7856   2.280   2.507   6.785 -2.6389  0.8366 -0.0416
   73CHL1   H2B 7857   2.431   2.603   6.790 -0.3748  0.1427 -0.0177
   73CHL1   C20 7858   2.560   2.226   7.682  0.7761  0.0392 -0.3222
   73CHL1   H20 7859   2.665   2.264   7.671  0.6871  0.3701 -0.0717
   73CHL1   C21 7860   2.524   2.096   7.608 -0.6254 -0.7677  0.5815
   73CHL1  H21A 7861   2.577   2.011   7.659 -0.4388 -0.4588  0.9076
   73CHL1  H21B 7862   2.568   2.103   7.506  0.3506 -0.8994  0.9763
   73CHL1  H21C 7863   2.421   2.056   7.601 -1.5469  1.4492  0.9533
   73CHL1   C22 7864   2.518   2.204   7.827 -0.2405  0.0099 -0.2701
   73CHL1  H22A 7865   2.524   2.301   7.880  1.9130 -0.5492  0.6280
   73CHL1  H22B 7866   2.410   2.178   7.828  0.0983 -1.4682  0.5534
   73CHL1   C23 7867   2.600   2.119   7.918 -0.8130 -0.5534 -0.7496
   73CHL1  H23A 7868   2.609   2.018   7.874  0.7476 -1.4811  1.4798
   73CHL1  H23B 7869   2.693   2.178   7.908 -1.7143  1.5879  2.0257
   73CHL1   C24 7870   2.547   2.097   8.061  0.3230  0.6474  0.1255
   73CHL1  H24A 7871   2.449   2.045   8.056  1.2338 -1.2873  1.2668
   73CHL1  H24B 7872   2.609   2.017   8.106 -2.3993 -0.2533  2.5454
   73CHL1   C25 7873   2.538   2.214   8.145  0.8716  0.6002 -0.3418
   73CHL1   H25 7874   2.455   2.283   8.117 -0.1301  0.2647  1.6147
   73CHL1   C26 7875   2.509   2.156   8.289  0.6194 -1.0394  0.0362
   73CHL1  H26A 7876   2.595   2.096   8.324  0.3618 -1.3574  0.1244
   73CHL1  H26B 7877   2.483   2.231   8.366  0.5681 -1.0398  0.0197
   73CHL1  H26C 7878   2.431   2.077   8.289 -1.2490  0.6952  1.0441
   73CHL1   C27 7879   2.672   2.294   8.169  0.6564 -0.1972 -0.4204
   73CHL1  H27A 7880   2.644   2.380   8.234 -1.1470 -1.6523  0.8144
   73CHL1  H27B 7881   2.748   2.242   8.230  1.1919  1.5449  0.4705
   73CHL1  H27C 7882   2.710   2.328   8.070 -0.6158 -0.8063 -1.1406
   74CHL1    C3 7883   3.183   2.753   6.791 -0.9027  0.0755 -0.2175
   74CHL1    H3 7884   3.278   2.804   6.818  0.9443 -3.2251  0.0651
   74CHL1    O3 7885   3.197   2.704   6.655  0.3191 -0.3579  0.0189
   74CHL1   H3' 7886   3.139   2.742   6.588  1.3592 -1.0585 -1.3401
   74CHL1    C4 7887   3.163   2.632   6.878 -0.5000  0.0461  0.1344
   74CHL1   H4A 7888   3.074   2.572   6.847 -1.0435 -0.5255  2.6312
   74CHL1   H4B 7889   3.255   2.570   6.867  0.4831  1.1563  1.7162
   74CHL1    C5 7890   3.143   2.678   7.023 -1.4316  0.0317 -0.3104
   74CHL1    C6 7891   3.229   2.652   7.122 -0.1917  0.4741  0.1778
   74CHL1    H6 7892   3.319   2.594   7.099 -1.3864 -0.9937 -1.0738
   74CHL1    C7 7893   3.207   2.690   7.265  0.2693  0.4166 -0.2950
   74CHL1   H7A 7894   3.223   2.602   7.330 -1.8503  0.8296  0.8872
   74CHL1   H7B 7895   3.285   2.769   7.273  1.8488 -0.9197 -1.8519
   74CHL1    C8 7896   3.056   2.728   7.284  0.6141  0.3217 -0.1839
   74CHL1    H8 7897   2.988   2.641   7.285  1.6420 -0.4984  0.5961
   74CHL1   C14 7898   3.049   2.796   7.418 -0.3444  0.6141 -0.0314
   74CHL1   H14 7899   3.110   2.888   7.408 -0.6961  0.6480 -2.2041
   74CHL1   C15 7900   3.103   2.727   7.546 -0.1234  0.2421 -0.5497
   74CHL1  H15A 7901   3.043   2.636   7.566 -1.6520  1.1198 -1.0370
   74CHL1  H15B 7902   3.212   2.705   7.536  0.0110 -0.1917  1.5352
   74CHL1   C16 7903   3.069   2.830   7.654 -0.4616 -0.0865  0.1677
   74CHL1  H16A 7904   3.050   2.775   7.748  1.2837  0.7577  1.0583
   74CHL1  H16B 7905   3.156   2.897   7.671 -0.2078 -0.4448  0.2879
   74CHL1   C17 7906   2.952   2.921   7.602  0.1032 -0.3107 -0.7411
   74CHL1   H17 7907   3.003   3.016   7.575  1.8275 -0.8269  0.5175
   74CHL1   C13 7908   2.920   2.863   7.463 -0.1119  0.6295  0.0603
   74CHL1   C18 7909   2.813   2.751   7.457 -0.6161 -0.2280 -0.0633
   74CHL1  H18A 7910   2.710   2.781   7.488 -0.2108  0.1404  0.9712
   74CHL1  H18B 7911   2.795   2.724   7.351 -0.9242 -2.8409  0.5978
   74CHL1  H18C 7912   2.848   2.662   7.513  0.0649 -2.1128 -3.2790
   74CHL1   C12 7913   2.897   2.975   7.360  0.0694 -0.2890 -0.8022
   74CHL1  H12A 7914   2.809   3.030   7.400 -0.9489 -0.5091 -2.6459
   74CHL1  H12B 7915   2.982   3.046   7.351 -0.2663  0.1372 -0.6347
   74CHL1   C11 7916   2.893   2.925   7.213  0.0968  0.2395 -0.0511
   74CHL1  H11A 7917   2.803   2.862   7.199  1.2329 -1.5333  0.3150
   74CHL1  H11B 7918   2.875   3.001   7.134 -0.2859  1.0802  0.8308
   74CHL1    C9 7919   3.021   2.837   7.185  0.3169 -0.2563 -0.0337
   74CHL1    H9 7920   3.100   2.914   7.199  1.3981 -1.5747  1.3021
   74CHL1   C10 7921   3.026   2.773   7.049 -0.0824 -0.0536 -0.3392
   74CHL1   C19 7922   2.890   2.697   7.022  0.4491 -0.3477  0.1669
   74CHL1  H19A 7923   2.810   2.774   7.016 -0.2243 -1.0953 -0.5567
   74CHL1  H19B 7924   2.881   2.638   6.929  0.8470 -1.1245  0.6051
   74CHL1  H19C 7925   2.864   2.632   7.109  0.5435  2.0489  2.1089
   74CHL1    C1 7926   3.038   2.887   6.943 -0.1187  0.6842 -0.2828
   74CHL1   H1A 7927   2.940   2.940   6.943 -0.7712 -0.4593 -1.5941
   74CHL1   H1B 7928   3.118   2.949   6.987 -1.1476  0.2524  2.4611
   74CHL1    C2 7929   3.066   2.851   6.797  0.1866  0.0626  0.1003
   74CHL1   H2A 7930   3.085   2.940   6.734 -2.2943  1.6821  1.4591
   74CHL1   H2B 7931   2.977   2.802   6.752  0.2841  0.6510 -0.7536
   74CHL1   C20 7932   2.830   2.949   7.691 -0.0665  0.7111  0.7276
   74CHL1   H20 7933   2.743   2.963   7.623  0.1703 -2.1962 -0.3006
   74CHL1   C21 7934   2.852   3.096   7.753 -0.3824  0.2503 -0.0765
   74CHL1  H21A 7935   2.929   3.101   7.833  0.2519  3.2605 -0.7623
   74CHL1  H21B 7936   2.756   3.132   7.796 -0.3915  1.7039 -1.2271
   74CHL1  H21C 7937   2.887   3.164   7.673  0.4612  3.2144  2.5999
   74CHL1   C22 7938   2.786   2.847   7.799 -0.3708 -0.0121 -1.0057
   74CHL1  H22A 7939   2.772   2.756   7.738 -0.8415 -1.0577  0.6132
   74CHL1  H22B 7940   2.870   2.834   7.872 -0.5325  0.0932 -0.8002
   74CHL1   C23 7941   2.653   2.891   7.866  0.4357 -0.3936 -0.1727
   74CHL1  H23A 7942   2.681   2.973   7.936 -0.1920 -0.2374 -0.1011
   74CHL1  H23B 7943   2.591   2.930   7.783  0.7208 -0.1586 -0.2808
   74CHL1   C24 7944   2.586   2.777   7.948  0.6833 -0.4311  0.3959
   74CHL1  H24A 7945   2.593   2.687   7.883 -2.8951 -0.1997 -0.5141
   74CHL1  H24B 7946   2.650   2.761   8.037  2.2736  2.6384 -0.0872
   74CHL1   C25 7947   2.440   2.793   7.992 -0.0665 -0.3224 -0.0084
   74CHL1   H25 7948   2.379   2.825   7.904 -2.6479  2.4808  2.5760
   74CHL1   C26 7949   2.387   2.654   8.037 -1.5263 -0.1568 -0.0590
   74CHL1  H26A 7950   2.417   2.634   8.142  1.6329 -0.7803 -0.9692
   74CHL1  H26B 7951   2.279   2.638   8.016 -1.6527 -1.7098  1.5019
   74CHL1  H26C 7952   2.439   2.570   7.986 -0.4602  0.4398  0.0099
   74CHL1   C27 7953   2.418   2.898   8.099  0.0992 -0.6096 -0.6399
   74CHL1  H27A 7954   2.458   2.996   8.066  2.0384 -0.7123  1.1490
   74CHL1  H27B 7955   2.312   2.910   8.131 -0.1305  1.4361 -2.0198
   74CHL1  H27C 7956   2.483   2.863   8.183  0.0101 -1.6774 -0.9924
   75CHL1    C3 7957   6.641   5.088   6.644 -0.1208 -0.6263  0.9152
   75CHL1    H3 7958   6.543   5.139   6.650 -0.5232 -1.3963  0.9190
   75CHL1    O3 7959   6.672   5.069   6.503  0.3264 -0.4162  0.3773
   75CHL1   H3' 7960   6.669   4.976   6.481  2.4770 -0.0078 -2.2373
   75CHL1    C4 7961   6.745   5.189   6.701  0.3377 -0.7000 -0.0255
   75CHL1   H4A 7962   6.845   5.152   6.670  0.0611 -0.7364 -0.8846
   75CHL1   H4B 7963   6.745   5.282   6.640  1.7751 -1.4978 -1.3038
   75CHL1    C5 7964   6.738   5.209   6.851  0.0994  0.3783  0.0566
   75CHL1    C6 7965   6.701   5.325   6.910  0.0320  0.6875 -0.6362
   75CHL1    H6 7966   6.690   5.418   6.854 -2.2265  2.3064  2.2114
   75CHL1    C7 7967   6.669   5.328   7.057 -0.1781  0.0017 -1.0229
   75CHL1   H7A 7968   6.695   5.426   7.103 -1.1041 -0.0555 -0.3408
   75CHL1   H7B 7969   6.560   5.321   7.073  0.3050 -0.1683  3.5292
   75CHL1    C8 7970   6.746   5.221   7.138 -0.1198  0.2408 -0.2063
   75CHL1    H8 7971   6.855   5.242   7.133  0.1615 -0.9144  0.7657
   75CHL1   C14 7972   6.702   5.231   7.290  0.0704 -0.6134  0.1439
   75CHL1   H14 7973   6.592   5.214   7.288  0.3913 -3.9713  2.1847
   75CHL1   C15 7974   6.724   5.365   7.372  0.1257 -0.1695 -0.0812
   75CHL1  H15A 7975   6.832   5.388   7.360  0.6744 -1.4948  1.8119
   75CHL1  H15B 7976   6.661   5.451   7.341 -2.0543 -0.8226  2.2226
   75CHL1   C16 7977   6.704   5.319   7.515  0.5393 -0.1355 -0.1276
   75CHL1  H16A 7978   6.792   5.347   7.577  0.6768 -0.7514 -0.0452
   75CHL1  H16B 7979   6.622   5.366   7.574  0.2534 -0.7710 -0.0091
   75CHL1   C17 7980   6.704   5.160   7.515 -0.5196  0.3875 -0.5081
   75CHL1   H17 7981   6.597   5.127   7.515 -0.4369 -0.0305  1.4929
   75CHL1   C13 7982   6.757   5.121   7.380  0.4441  0.7032  0.1909
   75CHL1   C18 7983   6.914   5.135   7.379  0.1791 -0.0918 -0.4377
   75CHL1  H18A 7984   6.957   5.056   7.444  0.1257  1.4709  1.5965
   75CHL1  H18B 7985   6.952   5.110   7.278  0.2552  0.2058 -0.4834
   75CHL1  H18C 7986   6.954   5.236   7.403 -2.0773  1.3318 -2.2313
   75CHL1   C12 7987   6.703   4.988   7.322 -0.1740 -0.6075 -0.4588
   75CHL1  H12A 7988   6.726   4.906   7.394 -0.2455  1.0672  1.5723
   75CHL1  H12B 7989   6.592   4.985   7.320 -0.2190 -0.5495  0.8270
   75CHL1   C11 7990   6.749   4.968   7.182 -0.1436  0.6813 -0.2606
   75CHL1  H11A 7991   6.860   4.962   7.180 -0.2052 -0.5097 -0.6928
   75CHL1  H11B 7992   6.695   4.879   7.144  0.3811 -1.8612  4.2258
   75CHL1    C9 7993   6.710   5.085   7.081  0.1984  1.0516 -0.5597
   75CHL1    H9 7994   6.599   5.088   7.086  0.2408  1.3225  0.7037
   75CHL1   C10 7995   6.750   5.076   6.933 -0.8739 -0.7807  0.2892
   75CHL1   C19 7996   6.899   5.033   6.938 -0.4404 -0.2328  0.3494
   75CHL1  H19A 7997   6.902   4.929   6.977 -2.0802 -0.4555 -0.0770
   75CHL1  H19B 7998   6.956   5.040   6.843 -0.3989 -3.2377  0.0547
   75CHL1  H19C 7999   6.942   5.104   7.013  0.0956  0.0933 -0.2454
   75CHL1    C1 8000   6.649   4.967   6.876  0.4513 -0.0313  0.7110
   75CHL1   H1A 8001   6.689   4.875   6.924 -0.2039 -0.8374 -0.2545
   75CHL1   H1B 8002   6.541   4.987   6.893  0.6738  1.0854  0.8980
   75CHL1    C2 8003   6.654   4.952   6.722  0.7965 -0.1475 -0.2113
   75CHL1   H2A 8004   6.574   4.881   6.692 -1.3421  1.9039  0.2840
   75CHL1   H2B 8005   6.748   4.902   6.694  0.5548 -0.8439  0.1856
   75CHL1   C20 8006   6.766   5.100   7.647 -0.0671  0.2938 -0.0421
   75CHL1   H20 8007   6.873   5.128   7.648  0.9152 -2.9087 -1.9151
   75CHL1   C21 8008   6.772   4.948   7.650  0.3848  0.5521  0.2020
   75CHL1  H21A 8009   6.675   4.902   7.621  3.0595 -4.4989 -2.0850
   75CHL1  H21B 8010   6.797   4.901   7.748 -0.5918  1.1482  0.7559
   75CHL1  H21C 8011   6.840   4.908   7.572 -1.8926 -2.3672 -0.4623
   75CHL1   C22 8012   6.697   5.157   7.776 -0.2872 -0.6888  0.4871
   75CHL1  H22A 8013   6.710   5.268   7.774 -3.1965 -0.2897 -0.3335
   75CHL1  H22B 8014   6.587   5.142   7.781 -0.2708 -1.2835 -0.6080
   75CHL1   C23 8015   6.780   5.116   7.899  0.1160  0.0623  0.7732
   75CHL1  H23A 8016   6.746   5.012   7.917 -1.1810  0.1552 -0.8640
   75CHL1  H23B 8017   6.889   5.114   7.877  0.2258 -0.1552  1.3502
   75CHL1   C24 8018   6.753   5.203   8.028 -0.4281  0.1650  0.2950
   75CHL1  H24A 8019   6.798   5.304   8.022  2.2930 -0.9750 -0.0398
   75CHL1  H24B 8020   6.643   5.210   8.041 -0.2141 -0.1741  2.7975
   75CHL1   C25 8021   6.819   5.145   8.152 -0.4798  0.1659 -0.5243
   75CHL1   H25 8022   6.923   5.134   8.115 -1.0567  0.5426 -2.3586
   75CHL1   C26 8023   6.818   5.252   8.266  0.0918  0.0100 -0.1907
   75CHL1  H26A 8024   6.867   5.224   8.361  2.9982 -0.4945 -1.7341
   75CHL1  H26B 8025   6.861   5.348   8.228  1.1411 -1.0088 -1.7139
   75CHL1  H26C 8026   6.711   5.260   8.295  0.4027 -1.4054  1.4824
   75CHL1   C27 8027   6.777   5.011   8.212 -0.4574  1.2415  0.2676
   75CHL1  H27A 8028   6.753   4.941   8.129 -0.2956 -0.2996  1.4775
   75CHL1  H27B 8029   6.850   4.965   8.281 -2.2914 -1.9442  0.2974
   75CHL1  H27C 8030   6.680   5.020   8.266 -1.8519 -2.2219 -1.3840
   76CHL1    C3 8031   4.214   5.492   7.058 -0.2290  0.1423 -0.3461
   76CHL1    H3 8032   4.233   5.386   7.084 -0.2043  0.6395  1.8902
   76CHL1    O3 8033   4.187   5.504   6.923  0.1195  0.3510 -0.0502
   76CHL1   H3' 8034   4.163   5.596   6.911 -0.4566  0.0791 -1.1435
   76CHL1    C4 8035   4.090   5.524   7.137 -0.4977 -0.8550  0.0061
   76CHL1   H4A 8036   4.036   5.612   7.095 -0.4687 -1.7642 -2.0917
   76CHL1   H4B 8037   4.024   5.436   7.116  0.2359 -1.6908  1.1056
   76CHL1    C5 8038   4.125   5.530   7.281 -0.1117  0.4621  0.9239
   76CHL1    C6 8039   4.049   5.454   7.364  0.0604 -0.5626 -0.5916
   76CHL1    H6 8040   3.969   5.391   7.323 -2.5701  1.9864  0.2512
   76CHL1    C7 8041   4.055   5.469   7.515 -0.0087  0.3866  0.4397
   76CHL1   H7A 8042   3.951   5.460   7.554  0.5339 -0.1553  1.8144
   76CHL1   H7B 8043   4.105   5.379   7.557 -1.1413 -0.1686  0.6589
   76CHL1    C8 8044   4.122   5.605   7.553  0.0380  0.3287  0.2910
   76CHL1    H8 8045   4.052   5.687   7.527 -1.0330 -0.7765 -0.4361
   76CHL1   C14 8046   4.153   5.605   7.702 -0.1552  1.1153  0.2540
   76CHL1   H14 8047   4.223   5.521   7.720 -0.3456  1.3534  2.3252
   76CHL1   C15 8048   4.045   5.565   7.791  0.2295  0.4313 -0.0915
   76CHL1  H15A 8049   3.955   5.617   7.751 -1.3399 -1.2851  1.0121
   76CHL1  H15B 8050   3.995   5.465   7.794 -1.6755  1.3338  0.1898
   76CHL1   C16 8051   4.092   5.614   7.926 -0.0949  0.2279  0.4738
   76CHL1  H16A 8052   4.022   5.690   7.968  0.3470  2.4253 -2.4370
   76CHL1  H16B 8053   4.096   5.540   8.008 -0.7618  1.0991  1.3141
   76CHL1   C17 8054   4.220   5.697   7.900 -0.5561  0.0829 -0.1668
   76CHL1   H17 8055   4.308   5.629   7.904 -0.4643  0.2293  0.3950
   76CHL1   C13 8056   4.216   5.734   7.754 -0.9719  0.8247  0.0162
   76CHL1   C18 8057   4.128   5.862   7.735 -0.1850  0.2184  0.3763
   76CHL1  H18A 8058   4.190   5.952   7.753  0.2682 -0.2005  0.9452
   76CHL1  H18B 8059   4.081   5.882   7.637 -1.3877 -0.9176  0.6926
   76CHL1  H18C 8060   4.049   5.858   7.813 -1.1166 -0.9205 -0.5916
   76CHL1   C12 8061   4.350   5.748   7.680 -0.6550  0.1266 -0.1676
   76CHL1  H12A 8062   4.388   5.843   7.724  2.2626 -0.2024 -1.7218
   76CHL1  H12B 8063   4.424   5.667   7.697 -1.2609 -0.4251 -0.0981
   76CHL1   C11 8064   4.327   5.754   7.531  0.1059 -0.5585 -0.2551
   76CHL1  H11A 8065   4.275   5.848   7.501  1.3630 -0.2710 -1.6473
   76CHL1  H11B 8066   4.429   5.747   7.486  0.6991 -1.8958  1.2243
   76CHL1    C9 8067   4.255   5.631   7.473 -0.9964  1.3598  0.2836
   76CHL1    H9 8068   4.315   5.541   7.496 -0.9153  1.3657  0.0888
   76CHL1   C10 8069   4.234   5.632   7.319 -0.6046  0.7600 -0.4294
   76CHL1   C19 8070   4.206   5.775   7.265  0.5013  0.2781 -0.2157
   76CHL1  H19A 8071   4.111   5.804   7.317  0.1162  0.0163 -0.7620
   76CHL1  H19B 8072   4.288   5.846   7.288  0.8439  0.1104 -0.9170
   76CHL1  H19C 8073   4.195   5.779   7.155  1.4869  1.6799 -0.2854
   76CHL1    C1 8074   4.355   5.574   7.242  0.0473 -0.5539 -0.2823
   76CHL1   H1A 8075   4.435   5.649   7.260 -2.4956  1.6876  3.0773
   76CHL1   H1B 8076   4.386   5.473   7.276  1.0897  0.2441  1.2806
   76CHL1    C2 8077   4.336   5.572   7.094  0.3565 -0.3288  0.7844
   76CHL1   H2A 8078   4.428   5.531   7.047 -0.6193 -0.1941 -1.3515
   76CHL1   H2B 8079   4.331   5.672   7.045  0.7741 -1.1596 -1.0541
   76CHL1   C20 8080   4.254   5.801   8.009 -0.4164 -0.1444 -0.5041
   76CHL1   H20 8081   4.168   5.871   8.006 -0.9384 -0.8326 -1.9851
   76CHL1   C21 8082   4.388   5.884   7.996  0.9264 -0.0482 -0.1929
   76CHL1  H21A 8083   4.389   5.953   7.909  1.1785 -0.8076 -0.8024
   76CHL1  H21B 8084   4.477   5.819   7.986 -0.3018 -1.7862 -0.1650
   76CHL1  H21C 8085   4.388   5.964   8.073  0.8177  0.6099 -0.8548
   76CHL1   C22 8086   4.244   5.736   8.148 -0.6575  0.1213 -0.1030
   76CHL1  H22A 8087   4.152   5.677   8.164 -0.4330 -0.9658 -2.3598
   76CHL1  H22B 8088   4.333   5.671   8.161 -2.0021 -1.6957  0.3676
   76CHL1   C23 8089   4.233   5.841   8.261  0.2823 -0.0424 -0.2424
   76CHL1  H23A 8090   4.317   5.913   8.260 -0.8381  1.3196 -2.4788
   76CHL1  H23B 8091   4.142   5.900   8.239  0.9214  1.5009  1.0652
   76CHL1   C24 8092   4.227   5.779   8.401  0.4691 -0.4708 -0.0400
   76CHL1  H24A 8093   4.134   5.720   8.407 -1.5337  2.5203  0.3374
   76CHL1  H24B 8094   4.321   5.721   8.413  0.5400  0.0547  2.3316
   76CHL1   C25 8095   4.222   5.895   8.511  0.6368  0.2535  0.6720
   76CHL1   H25 8096   4.313   5.958   8.505  1.8078 -1.3931  0.1970
   76CHL1   C26 8097   4.098   5.980   8.500 -0.1281 -0.3033  0.3344
   76CHL1  H26A 8098   4.078   6.032   8.596 -0.3997  0.8218 -0.3068
   76CHL1  H26B 8099   4.131   6.057   8.426  0.0349  0.2137  0.9321
   76CHL1  H26C 8100   4.011   5.920   8.466 -0.8236 -0.0764  1.6333
   76CHL1   C27 8101   4.209   5.829   8.642 -0.0946 -0.4868 -0.4218
   76CHL1  H27A 8102   4.125   5.759   8.659  0.4935 -1.6121 -2.0029
   76CHL1  H27B 8103   4.301   5.769   8.659  0.7575  0.5657 -1.1444
   76CHL1  H27C 8104   4.211   5.903   8.725  0.2112  0.2106 -1.0469
   77CHL1    C3 8105   5.077   3.554   6.637  0.1105 -0.0111  0.1161
   77CHL1    H3 8106   4.978   3.525   6.678  0.1857 -2.5860 -1.2538
   77CHL1    O3 8107   5.071   3.524   6.494  0.1084 -0.4072 -0.4655
   77CHL1   H3' 8108   4.981   3.534   6.463 -0.8470  1.1596  2.4148
   77CHL1    C4 8109   5.113   3.699   6.672  0.1907  0.5699  0.7700
   77CHL1   H4A 8110   5.217   3.715   6.637  1.3981 -5.1058  0.8606
   77CHL1   H4B 8111   5.042   3.758   6.609 -0.3101 -2.5360 -1.8728
   77CHL1    C5 8112   5.105   3.728   6.816  0.1747  0.7898 -0.4082
   77CHL1    C6 8113   5.026   3.827   6.869 -0.1211  0.7969  0.2284
   77CHL1    H6 8114   4.975   3.893   6.797  2.9353 -0.5555 -3.5198
   77CHL1    C7 8115   5.019   3.848   7.017 -0.8542 -0.0343 -0.6335
   77CHL1   H7A 8116   5.031   3.957   7.034  0.2751  0.0843 -2.0433
   77CHL1   H7B 8117   4.921   3.816   7.060 -0.7026 -0.9150 -0.9237
   77CHL1    C8 8118   5.132   3.778   7.105  0.0396  0.6401  0.0126
   77CHL1    H8 8119   5.225   3.838   7.094 -0.6926  1.8110 -0.0087
   77CHL1   C14 8120   5.089   3.770   7.251 -0.2327  0.6759  0.4558
   77CHL1   H14 8121   4.989   3.721   7.246 -0.9506  2.0533  0.9046
   77CHL1   C15 8122   5.051   3.905   7.327  0.1904  0.4812 -0.4307
   77CHL1  H15A 8123   5.140   3.971   7.325  1.3370 -0.9422  1.2576
   77CHL1  H15B 8124   4.965   3.964   7.287 -0.8251 -1.0955 -0.6480
   77CHL1   C16 8125   5.025   3.850   7.472  1.1790 -0.3507  1.0986
   77CHL1  H16A 8126   5.075   3.920   7.543 -1.6546  2.9929  0.0835
   77CHL1  H16B 8127   4.917   3.839   7.495  1.3697  0.3165  2.4224
   77CHL1   C17 8128   5.086   3.712   7.478 -0.5086  0.4392  0.4651
   77CHL1   H17 8129   5.006   3.636   7.466  0.3986 -0.1828 -2.7419
   77CHL1   C13 8130   5.174   3.697   7.349  0.7639  0.5150 -0.6967
   77CHL1   C18 8131   5.309   3.766   7.378  0.6268  0.5603  0.1907
   77CHL1  H18A 8132   5.360   3.787   7.281  1.8082 -0.8488  0.4707
   77CHL1  H18B 8133   5.298   3.860   7.436  0.0734 -0.7266  2.2713
   77CHL1  H18C 8134   5.372   3.702   7.443  2.9793  3.3508  0.9043
   77CHL1   C12 8135   5.202   3.555   7.292 -0.1565  0.0321  0.7444
   77CHL1  H12A 8136   5.258   3.492   7.363 -1.4013 -1.1435  0.7312
   77CHL1  H12B 8137   5.104   3.506   7.272 -1.4173  3.1156 -1.3985
   77CHL1   C11 8138   5.260   3.556   7.151  0.1062  0.0993  0.4455
   77CHL1  H11A 8139   5.361   3.601   7.143 -0.0914  0.6452  0.9655
   77CHL1  H11B 8140   5.266   3.449   7.121  0.7326  0.3856 -0.5074
   77CHL1    C9 8141   5.160   3.634   7.060 -0.0678  0.0423 -0.0725
   77CHL1    H9 8142   5.066   3.577   7.074  0.2347 -1.2580 -2.7291
   77CHL1   C10 8143   5.189   3.631   6.906  0.9476  0.8655 -0.8041
   77CHL1   C19 8144   5.337   3.667   6.888  0.1046  0.2849  0.5409
   77CHL1  H19A 8145   5.367   3.675   6.782  0.1396  1.1753  0.6083
   77CHL1  H19B 8146   5.365   3.758   6.946  0.9070  1.3797 -1.4766
   77CHL1  H19C 8147   5.393   3.580   6.930 -0.1358 -1.8374 -3.1351
   77CHL1    C1 8148   5.169   3.488   6.859  0.1364 -0.4539 -1.0261
   77CHL1   H1A 8149   5.242   3.422   6.912 -0.2087  1.8231  2.6148
   77CHL1   H1B 8150   5.070   3.460   6.900  0.3827  1.4363  1.0486
   77CHL1    C2 8151   5.168   3.455   6.712 -0.3145  0.3289 -0.1588
   77CHL1   H2A 8152   5.131   3.352   6.694 -0.0868  0.3438 -0.7364
   77CHL1   H2B 8153   5.272   3.467   6.673 -0.1496  0.5523  0.3480
   77CHL1   C20 8154   5.146   3.674   7.620  0.1371 -0.1957  0.1639
   77CHL1   H20 8155   5.221   3.751   7.646  0.0352 -0.2874  0.7507
   77CHL1   C21 8156   5.219   3.543   7.622  0.1803  0.5700 -0.0559
   77CHL1  H21A 8157   5.320   3.536   7.576  0.8710 -1.6495  1.6146
   77CHL1  H21B 8158   5.153   3.467   7.576  1.6174 -0.4685 -0.4997
   77CHL1  H21C 8159   5.245   3.522   7.728 -0.0421  1.3256  0.1557
   77CHL1   C22 8160   5.040   3.683   7.731  0.4898  0.3618  0.1662
   77CHL1  H22A 8161   4.962   3.755   7.699 -1.2507 -0.6843  1.8277
   77CHL1  H22B 8162   4.995   3.586   7.761  0.4182  0.8503  1.7477
   77CHL1   C23 8163   5.098   3.739   7.864 -0.0074 -0.3139  0.7715
   77CHL1  H23A 8164   5.196   3.693   7.888  0.6594  0.1333 -0.9283
   77CHL1  H23B 8165   5.115   3.847   7.846 -0.8489 -0.2659  0.1856
   77CHL1   C24 8166   5.002   3.734   7.979 -0.2306 -0.4901  0.0311
   77CHL1  H24A 8167   4.909   3.786   7.947  0.1155  1.8788  2.4825
   77CHL1  H24B 8168   4.987   3.631   8.019  2.0150 -0.5950  0.7804
   77CHL1   C25 8169   5.058   3.813   8.098  0.1454 -0.1583  0.1006
   77CHL1   H25 8170   5.075   3.918   8.066 -2.0868  0.3125  0.3072
   77CHL1   C26 8171   4.957   3.820   8.209  0.6376 -0.0113 -0.3404
   77CHL1  H26A 8172   4.972   3.914   8.266  1.7426 -0.1882 -0.3106
   77CHL1  H26B 8173   4.857   3.844   8.167 -0.0356 -0.4341  0.9869
   77CHL1  H26C 8174   4.961   3.726   8.269 -2.3623 -0.6574 -0.9989
   77CHL1   C27 8175   5.188   3.754   8.156  0.3588 -0.1687 -0.0972
   77CHL1  H27A 8176   5.274   3.774   8.089 -0.6591 -3.3396 -2.5615
   77CHL1  H27B 8177   5.213   3.795   8.257  0.3251  2.5633 -1.1087
   77CHL1  H27C 8178   5.176   3.649   8.189  0.3567  0.1711  1.0226
   78CHL1    C3 8179   6.082   5.901   6.754 -0.1463 -0.0965  0.0678
   78CHL1    H3 8180   6.180   5.934   6.795 -0.3330 -0.6823  1.0163
   78CHL1    O3 8181   6.078   5.938   6.615 -0.2287 -0.3975 -0.2806
   78CHL1   H3' 8182   5.988   5.963   6.594 -0.9704 -1.0858  1.7975
   78CHL1    C4 8183   6.050   5.752   6.769  0.1456 -0.8638 -0.1530
   78CHL1   H4A 8184   5.965   5.743   6.697  0.6029 -0.6217 -0.7259
   78CHL1   H4B 8185   6.131   5.682   6.739 -1.8518 -2.7941 -1.3960
   78CHL1    C5 8186   6.026   5.704   6.911  0.0268 -1.2737  0.1620
   78CHL1    C6 8187   6.088   5.604   6.971 -0.7404  0.0629 -0.0463
   78CHL1    H6 8188   6.165   5.544   6.920 -0.9709 -1.8927  1.7882
   78CHL1    C7 8189   6.071   5.567   7.113 -0.0144  0.0101  0.5454
   78CHL1   H7A 8190   6.069   5.457   7.129 -2.8945  0.0547  1.0493
   78CHL1   H7B 8191   6.160   5.612   7.161  1.2413 -1.0028 -0.7257
   78CHL1    C8 8192   5.942   5.621   7.176  0.6209 -0.0997 -1.3163
   78CHL1    H8 8193   5.852   5.567   7.141  0.1846  0.2685 -0.7743
   78CHL1   C14 8194   5.959   5.605   7.324  0.6070 -0.0427 -0.6863
   78CHL1   H14 8195   6.055   5.650   7.357  0.8256 -0.7161 -0.3647
   78CHL1   C15 8196   5.970   5.461   7.368  0.3710  0.4348  0.7517
   78CHL1  H15A 8197   5.901   5.396   7.309 -0.0630  0.5247  1.1544
   78CHL1  H15B 8198   6.078   5.433   7.367  0.4980  0.9106  0.8800
   78CHL1   C16 8199   5.926   5.464   7.512  0.3570  0.1303 -0.3998
   78CHL1  H16A 8200   5.838   5.398   7.528  1.5658 -1.2159  0.9922
   78CHL1  H16B 8201   6.000   5.417   7.580 -1.3127 -1.6745  0.2633
   78CHL1   C17 8202   5.877   5.609   7.551 -0.1675  0.6532  0.0368
   78CHL1   H17 8203   5.971   5.656   7.589 -0.0258  0.5130 -0.1387
   78CHL1   C13 8204   5.840   5.668   7.412  0.5322  0.3112  0.1762
   78CHL1   C18 8205   5.709   5.614   7.367  0.1299 -0.3110 -0.0661
   78CHL1  H18A 8206   5.631   5.660   7.430  1.8956  0.9788  1.2960
   78CHL1  H18B 8207   5.683   5.649   7.265 -0.8343 -1.0060 -0.0667
   78CHL1  H18C 8208   5.708   5.503   7.378  1.9911 -0.2680  1.0618
   78CHL1   C12 8209   5.859   5.822   7.385 -0.0709 -0.7390 -0.1252
   78CHL1  H12A 8210   5.789   5.880   7.448  0.1479 -0.7843  0.1613
   78CHL1  H12B 8211   5.961   5.854   7.412 -0.7769  0.5619  1.1202
   78CHL1   C11 8212   5.848   5.852   7.233  0.1575 -0.2296 -0.3014
   78CHL1  H11A 8213   5.745   5.834   7.195  0.9791 -1.2319 -2.2137
   78CHL1  H11B 8214   5.872   5.959   7.213  3.3200 -0.8947 -0.6122
   78CHL1    C9 8215   5.947   5.769   7.147 -0.2741 -0.3041  0.2588
   78CHL1    H9 8216   6.050   5.804   7.171 -0.8687  0.2739  2.0698
   78CHL1   C10 8217   5.930   5.794   6.994  0.3548  0.2838 -0.0043
   78CHL1   C19 8218   5.784   5.754   6.955  0.4763  0.0485  0.4417
   78CHL1  H19A 8219   5.766   5.751   6.846 -1.4884 -2.0378  0.7507
   78CHL1  H19B 8220   5.753   5.655   6.995  2.4452  0.0719  2.2201
   78CHL1  H19C 8221   5.716   5.833   6.995 -0.7055 -0.0228 -1.3029
   78CHL1    C1 8222   5.962   5.943   6.965  0.0297 -0.0683 -0.4150
   78CHL1   H1A 8223   5.873   6.001   6.998  0.5377  0.0766  0.7687
   78CHL1   H1B 8224   6.047   5.988   7.021  0.3435  0.8903 -1.6139
   78CHL1    C2 8225   5.975   5.983   6.821 -0.0329  0.2389  0.1182
   78CHL1   H2A 8226   5.991   6.092   6.817 -1.6036  0.4767 -0.2965
   78CHL1   H2B 8227   5.875   5.962   6.778 -0.7255  1.2038  1.2083
   78CHL1   C20 8228   5.769   5.608   7.665 -0.3434 -0.6690 -0.1783
   78CHL1   H20 8229   5.680   5.551   7.633 -2.7319  1.7116  1.6708
   78CHL1   C21 8230   5.735   5.748   7.700 -0.5170 -0.3366  0.4237
   78CHL1  H21A 8231   5.698   5.801   7.609  2.3997  0.1630 -0.5805
   78CHL1  H21B 8232   5.827   5.796   7.738  0.6700 -3.9621  2.5589
   78CHL1  H21C 8233   5.663   5.748   7.784  0.5493 -2.2776  1.3958
   78CHL1   C22 8234   5.813   5.537   7.793 -0.1949 -0.3582  0.2395
   78CHL1  H22A 8235   5.862   5.439   7.772 -0.9495 -0.6313 -0.2995
   78CHL1  H22B 8236   5.890   5.598   7.845  0.9172 -1.0331 -0.5652
   78CHL1   C23 8237   5.699   5.525   7.897  0.2998 -1.1183  0.5977
   78CHL1  H23A 8238   5.668   5.626   7.931  0.7527 -1.1601  1.1482
   78CHL1  H23B 8239   5.614   5.475   7.847 -1.6819  3.8628 -1.6969
   78CHL1   C24 8240   5.748   5.450   8.019 -0.2275  0.4300 -0.1968
   78CHL1  H24A 8241   5.657   5.442   8.083 -0.1848  2.0193  0.1158
   78CHL1  H24B 8242   5.786   5.355   7.976  0.8317 -0.2219  2.0103
   78CHL1   C25 8243   5.858   5.525   8.103  0.2426 -0.9569 -0.2227
   78CHL1   H25 8244   5.862   5.629   8.065  1.7499 -0.2074  1.7954
   78CHL1   C26 8245   5.819   5.531   8.258  0.8149 -0.2641  0.2933
   78CHL1  H26A 8246   5.718   5.574   8.268 -0.4379 -2.8030 -0.4028
   78CHL1  H26B 8247   5.825   5.430   8.304 -2.3904 -0.6187  0.1431
   78CHL1  H26C 8248   5.887   5.596   8.318 -0.5605  0.5404  1.0230
   78CHL1   C27 8249   6.004   5.478   8.068  0.1031  0.0730  0.2764
   78CHL1  H27A 8250   6.017   5.379   8.119  0.7407 -0.4375 -0.8385
   78CHL1  H27B 8251   6.029   5.463   7.961 -1.3221 -1.0722  0.0677
   78CHL1  H27C 8252   6.079   5.548   8.109  0.4691 -1.1632  1.8281
   79CHL1    C3 8253   4.378   6.423   7.230 -0.4682 -0.9334  0.4379
   79CHL1    H3 8254   4.408   6.526   7.258 -0.5843 -0.2915 -1.6158
   79CHL1    O3 8255   4.401   6.408   7.092 -0.1432 -0.9051  0.4762
   79CHL1   H3' 8256   4.382   6.320   7.060 -0.8498 -0.0377 -1.6821
   79CHL1    C4 8257   4.461   6.327   7.308 -0.5224 -0.3644  0.0334
   79CHL1   H4A 8258   4.421   6.230   7.272 -1.2012 -0.4035  0.8678
   79CHL1   H4B 8259   4.568   6.338   7.280 -0.5090 -2.7243 -1.0659
   79CHL1    C5 8260   4.439   6.350   7.455 -0.0183  0.3102 -0.0380
   79CHL1    C6 8261   4.543   6.380   7.527 -0.0333 -0.1156 -0.1480
   79CHL1    H6 8262   4.644   6.381   7.483 -0.2719  1.4699 -0.7645
   79CHL1    C7 8263   4.526   6.414   7.670 -0.2640  0.1506 -0.8701
   79CHL1   H7A 8264   4.611   6.372   7.727  0.3635 -0.2748 -2.0746
   79CHL1   H7B 8265   4.516   6.523   7.687 -2.4724 -0.4319  2.4428
   79CHL1    C8 8266   4.394   6.347   7.731 -0.5735 -0.0615 -0.4762
   79CHL1    H8 8267   4.417   6.239   7.734  2.4139  0.4014 -1.8039
   79CHL1   C14 8268   4.377   6.403   7.871 -0.1136 -0.7664  0.2271
   79CHL1   H14 8269   4.362   6.512   7.856 -1.6015 -0.9317  0.4101
   79CHL1   C15 8270   4.488   6.398   7.982  0.4053  0.7306 -0.1298
   79CHL1  H15A 8271   4.530   6.295   7.978 -2.1905 -0.3917 -1.4288
   79CHL1  H15B 8272   4.567   6.476   7.979 -0.3296  1.4826 -0.3100
   79CHL1   C16 8273   4.417   6.410   8.114 -0.5572  0.3341 -0.7420
   79CHL1  H16A 8274   4.423   6.314   8.169 -0.1462  2.6080  3.6157
   79CHL1  H16B 8275   4.463   6.485   8.181 -1.3454  1.4292 -1.3938
   79CHL1   C17 8276   4.269   6.429   8.075 -0.3393 -0.2573  0.6113
   79CHL1   H17 8277   4.266   6.536   8.044  0.2373 -0.2702  0.5155
   79CHL1   C13 8278   4.248   6.350   7.941 -0.6130 -0.0590  0.1231
   79CHL1   C18 8279   4.259   6.196   7.966  0.1793 -0.7031  0.4207
   79CHL1  H18A 8280   4.330   6.178   8.049  1.7263  0.8855 -0.5104
   79CHL1  H18B 8281   4.159   6.160   7.999  0.3142 -1.1085  0.3909
   79CHL1  H18C 8282   4.293   6.138   7.877 -1.5461  1.7610 -2.0375
   79CHL1   C12 8283   4.126   6.387   7.858 -0.2658  0.5849 -0.1394
   79CHL1  H12A 8284   4.034   6.350   7.909  0.0953  0.9072  0.7707
   79CHL1  H12B 8285   4.120   6.498   7.856 -0.4803  0.5798 -2.6091
   79CHL1   C11 8286   4.139   6.329   7.719  0.2030  0.1414  1.1023
   79CHL1  H11A 8287   4.142   6.219   7.709 -1.4350  0.1259  0.2367
   79CHL1  H11B 8288   4.053   6.359   7.654  1.1027 -2.0764 -1.2971
   79CHL1    C9 8289   4.270   6.379   7.649 -1.0103  0.2792  0.5429
   79CHL1    H9 8290   4.265   6.490   7.641  1.2900  0.3310 -1.4684
   79CHL1   C10 8291   4.295   6.336   7.502  0.7019 -0.1420  0.0592
   79CHL1   C19 8292   4.266   6.180   7.492 -0.7365 -0.0930 -0.4618
   79CHL1  H19A 8293   4.300   6.142   7.393  1.6306  0.7393 -0.0424
   79CHL1  H19B 8294   4.321   6.121   7.569  0.5267  2.5475  0.7730
   79CHL1  H19C 8295   4.156   6.168   7.499 -1.0914  3.1990  2.2621
   79CHL1    C1 8296   4.200   6.411   7.413  0.6784 -0.2094  0.7273
   79CHL1   H1A 8297   4.097   6.371   7.406  1.4314 -1.9618 -2.1306
   79CHL1   H1B 8298   4.206   6.521   7.432  1.9975 -0.2181  0.4812
   79CHL1    C2 8299   4.227   6.403   7.261  0.3693 -0.1846 -0.4462
   79CHL1   H2A 8300   4.170   6.478   7.203 -1.1926 -1.2145 -0.3127
   79CHL1   H2B 8301   4.196   6.303   7.222  0.1109 -0.5345  0.6102
   79CHL1   C20 8302   4.161   6.424   8.184 -0.2034  0.4288  0.6330
   79CHL1   H20 8303   4.096   6.334   8.171  1.8117 -0.9969 -0.1484
   79CHL1   C21 8304   4.066   6.541   8.159 -0.4992  0.0102 -0.3580
   79CHL1  H21A 8305   3.988   6.539   8.239  2.2533 -0.3724  2.5150
   79CHL1  H21B 8306   4.015   6.546   8.060 -2.5683  0.4163  0.6781
   79CHL1  H21C 8307   4.130   6.629   8.180  3.7086 -3.1180  1.3764
   79CHL1   C22 8308   4.210   6.421   8.332 -0.4976  0.4226 -0.2140
   79CHL1  H22A 8309   4.251   6.318   8.338 -1.2198  0.1521  0.2359
   79CHL1  H22B 8310   4.293   6.493   8.350  0.1574 -0.6674  1.3450
   79CHL1   C23 8311   4.106   6.432   8.447 -0.3030 -0.1556 -0.3455
   79CHL1  H23A 8312   4.084   6.540   8.465  1.7638  0.6229 -2.0730
   79CHL1  H23B 8313   4.019   6.372   8.414  0.5164 -0.9690 -1.1013
   79CHL1   C24 8314   4.161   6.379   8.582 -0.6146  0.2112 -0.0273
   79CHL1  H24A 8315   4.194   6.272   8.583 -0.1241  0.2308  4.6535
   79CHL1  H24B 8316   4.256   6.429   8.611 -0.2762  0.6618 -1.7864
   79CHL1   C25 8317   4.050   6.397   8.689  0.3395  0.1329 -0.4602
   79CHL1   H25 8318   3.952   6.406   8.637 -0.1657  0.5327  0.5418
   79CHL1   C26 8319   4.036   6.281   8.781  0.6243  0.3741 -0.5791
   79CHL1  H26A 8320   4.033   6.190   8.717 -0.8275 -0.5439  0.7089
   79CHL1  H26B 8321   4.112   6.266   8.861  0.3342  0.1175 -0.3453
   79CHL1  H26C 8322   3.942   6.287   8.839  0.5548  0.7340 -0.7292
   79CHL1   C27 8323   4.079   6.523   8.768  0.1760 -0.1366  0.5849
   79CHL1  H27A 8324   4.019   6.531   8.862 -1.7601  0.1905 -0.6341
   79CHL1  H27B 8325   4.188   6.528   8.787  0.1452 -1.7540  1.3825
   79CHL1  H27C 8326   4.060   6.610   8.701  2.5937 -0.7310 -0.9754
   80CHL1    C3 8327   0.647   2.939   6.724 -0.1378 -0.4465  0.3196
   80CHL1    H3 8328   0.688   3.034   6.765  0.5825 -0.1751 -0.9482
   80CHL1    O3 8329   0.625   2.939   6.590 -0.3164 -0.5920  0.2573
   80CHL1   H3' 8330   0.610   2.845   6.576 -0.7605 -0.8250  2.0511
   80CHL1    C4 8331   0.744   2.830   6.765  0.5767  0.1636  0.1818
   80CHL1   H4A 8332   0.714   2.728   6.733  0.8882 -0.7078  2.5009
   80CHL1   H4B 8333   0.847   2.843   6.726  1.6436 -0.5601  2.6109
   80CHL1    C5 8334   0.753   2.817   6.917  0.0027  0.5376 -0.2118
   80CHL1    C6 8335   0.871   2.825   6.982 -0.1127  0.1833 -0.0874
   80CHL1    H6 8336   0.968   2.834   6.931  0.1025 -3.2405 -0.5193
   80CHL1    C7 8337   0.886   2.826   7.129 -0.1109  0.0838 -0.2971
   80CHL1   H7A 8338   0.969   2.765   7.169 -0.0486  0.8001  0.6870
   80CHL1   H7B 8339   0.908   2.928   7.165  1.9423 -0.9351  1.5382
   80CHL1    C8 8340   0.761   2.791   7.214  0.1798 -0.3600  0.2627
   80CHL1    H8 8341   0.751   2.680   7.219  0.8615 -0.5163 -1.2989
   80CHL1   C14 8342   0.770   2.842   7.356 -0.7691 -0.0094  0.6533
   80CHL1   H14 8343   0.796   2.949   7.339  0.1241 -0.6145 -2.5107
   80CHL1   C15 8344   0.897   2.790   7.424 -0.0585 -0.6322  0.3071
   80CHL1  H15A 8345   0.877   2.680   7.429  0.8852 -0.8684 -0.7765
   80CHL1  H15B 8346   0.995   2.818   7.379  2.0461 -2.3730  3.4067
   80CHL1   C16 8347   0.881   2.840   7.568  0.8671 -0.4954 -0.2348
   80CHL1  H16A 8348   0.911   2.763   7.642  0.3793  1.6374  2.3253
   80CHL1  H16B 8349   0.944   2.930   7.582  1.4541 -0.3861 -3.0083
   80CHL1   C17 8350   0.725   2.888   7.573 -0.6303 -0.4795 -0.1106
   80CHL1   H17 8351   0.724   2.997   7.550 -1.6957 -0.2838  0.7819
   80CHL1   C13 8352   0.652   2.830   7.448 -0.4114 -0.3875  0.0987
   80CHL1   C18 8353   0.619   2.679   7.475  0.3942  0.3334 -0.4825
   80CHL1  H18A 8354   0.538   2.663   7.549  1.6933  0.2287  0.9783
   80CHL1  H18B 8355   0.599   2.625   7.380 -0.4989 -1.4963  0.6931
   80CHL1  H18C 8356   0.706   2.626   7.521 -0.4265  0.6470  1.5160
   80CHL1   C12 8357   0.547   2.911   7.381  0.9340 -0.0588  0.4861
   80CHL1  H12A 8358   0.452   2.931   7.436  0.2844  1.3439 -1.0470
   80CHL1  H12B 8359   0.581   3.016   7.366 -0.5946  0.1881 -1.8485
   80CHL1   C11 8360   0.512   2.851   7.239 -0.1160 -0.0304  0.4261
   80CHL1  H11A 8361   0.473   2.748   7.248 -1.1017  0.0468 -2.0423
   80CHL1  H11B 8362   0.435   2.918   7.194  1.1501  0.4819 -1.0922
   80CHL1    C9 8363   0.636   2.851   7.145 -0.3859 -0.0189  0.4538
   80CHL1    H9 8364   0.663   2.958   7.132 -1.4438  0.0114 -2.1564
   80CHL1   C10 8365   0.622   2.806   7.000  0.4655  0.2804  0.1696
   80CHL1   C19 8366   0.571   2.662   6.986  0.6141  0.5019 -0.2563
   80CHL1  H19A 8367   0.556   2.619   6.884  1.3670  0.4517 -0.3557
   80CHL1  H19B 8368   0.638   2.592   7.041  1.6417  1.4790 -0.2310
   80CHL1  H19C 8369   0.471   2.667   7.034  1.2263 -1.6091  1.4325
   80CHL1    C1 8370   0.518   2.903   6.939  0.1799  0.5783  0.1699
   80CHL1   H1A 8371   0.422   2.882   6.990  0.9845 -2.3843  0.6379
   80CHL1   H1B 8372   0.553   3.004   6.970  1.9122 -0.2429  0.9772
   80CHL1    C2 8373   0.512   2.900   6.784 -0.0055  0.1511  0.4632
   80CHL1   H2A 8374   0.432   2.970   6.751 -1.0569 -0.8943  0.7111
   80CHL1   H2B 8375   0.483   2.797   6.755  0.7872  0.3759 -1.2359
   80CHL1   C20 8376   0.656   2.863   7.706 -0.5095  0.0450 -0.0640
   80CHL1   H20 8377   0.652   2.752   7.711  2.8977 -0.1233  1.8410
   80CHL1   C21 8378   0.512   2.916   7.704  0.1554  0.1197 -0.5436
   80CHL1  H21A 8379   0.504   3.025   7.687 -1.6290  0.6175  2.6798
   80CHL1  H21B 8380   0.464   2.896   7.803 -0.5254  1.4320 -0.5875
   80CHL1  H21C 8381   0.446   2.866   7.631  0.3731  2.8680 -2.7643
   80CHL1   C22 8382   0.730   2.914   7.841  0.8688  0.1459  0.1322
   80CHL1  H22A 8383   0.665   2.873   7.922  1.0632  1.6464  1.0972
   80CHL1  H22B 8384   0.821   2.850   7.846  0.5001 -0.4319 -0.3869
   80CHL1   C23 8385   0.741   3.061   7.852 -0.3577 -0.1224 -0.4521
   80CHL1  H23A 8386   0.809   3.100   7.774 -0.6514  1.1071 -0.1096
   80CHL1  H23B 8387   0.642   3.109   7.837  0.0464  0.8678 -0.0368
   80CHL1   C24 8388   0.816   3.094   7.987  0.1263 -0.2105 -0.9772
   80CHL1  H24A 8389   0.757   3.058   8.074 -1.3673 -1.1789 -2.3361
   80CHL1  H24B 8390   0.916   3.046   7.980 -0.1025 -0.5907 -1.7403
   80CHL1   C25 8391   0.847   3.243   8.016  0.0565  0.4793 -0.0648
   80CHL1   H25 8392   0.916   3.293   7.945 -0.6280  1.5425 -0.0080
   80CHL1   C26 8393   0.715   3.314   8.034 -0.1228  0.2391 -0.2111
   80CHL1  H26A 8394   0.733   3.418   8.068 -1.9844  0.9146 -1.1341
   80CHL1  H26B 8395   0.671   3.333   7.934  2.4228  1.6580 -1.1364
   80CHL1  H26C 8396   0.641   3.255   8.094  0.7555  0.5333  1.1989
   80CHL1   C27 8397   0.925   3.254   8.144  0.1811  0.0741 -0.1855
   80CHL1  H27A 8398   1.007   3.178   8.149 -1.8079 -2.2864 -0.9767
   80CHL1  H27B 8399   0.964   3.357   8.151 -2.3802  1.1999 -1.3217
   80CHL1  H27C 8400   0.858   3.227   8.229 -1.5174  1.2378 -1.1006
   81CHL1    C3 8401   6.616   2.324   6.730 -0.1037 -0.5809 -0.1068
   81CHL1    H3 8402   6.508   2.352   6.735  0.6243  3.3551 -2.5457
   81CHL1    O3 8403   6.652   2.346   6.596  0.1754  0.6821 -0.0121
   81CHL1   H3' 8404   6.629   2.263   6.553  0.3769 -0.7431  2.4818
   81CHL1    C4 8405   6.687   2.419   6.822 -0.5482 -0.1344  0.1946
   81CHL1   H4A 8406   6.794   2.392   6.823 -0.4856  0.0621 -0.5270
   81CHL1   H4B 8407   6.681   2.525   6.787  0.2508  0.9097  2.9438
   81CHL1    C5 8408   6.632   2.415   6.961 -0.5792  0.5917 -0.2166
   81CHL1    C6 8409   6.574   2.506   7.027  0.1248 -0.5135  0.1284
   81CHL1    H6 8410   6.566   2.608   6.987 -0.7830 -0.6531 -0.0695
   81CHL1    C7 8411   6.525   2.499   7.172  0.1531  0.2128  0.2540
   81CHL1   H7A 8412   6.561   2.590   7.224  0.0411 -0.4796  1.5682
   81CHL1   H7B 8413   6.415   2.485   7.183  0.4715 -2.1392  0.9056
   81CHL1    C8 8414   6.578   2.365   7.235 -0.6964 -0.1307  1.2889
   81CHL1    H8 8415   6.683   2.387   7.264 -0.7304 -1.2570  2.3234
   81CHL1   C14 8416   6.494   2.335   7.360 -0.1210 -0.0237 -0.9714
   81CHL1   H14 8417   6.388   2.323   7.328 -0.5665 -0.0626  0.4547
   81CHL1   C15 8418   6.484   2.450   7.470  0.0575  0.5351  0.1237
   81CHL1  H15A 8419   6.585   2.497   7.474  1.1225 -1.6277  0.0436
   81CHL1  H15B 8420   6.412   2.533   7.456 -0.4337  0.2395  0.8762
   81CHL1   C16 8421   6.455   2.382   7.599 -0.4199 -0.5484 -0.6896
   81CHL1  H16A 8422   6.528   2.398   7.681 -2.9808  0.2244  1.5887
   81CHL1  H16B 8423   6.352   2.411   7.630 -0.9036 -2.8977  0.1832
   81CHL1   C17 8424   6.428   2.235   7.556  0.0289  0.1737  0.1418
   81CHL1   H17 8425   6.330   2.238   7.504  1.1746 -1.4120 -2.2518
   81CHL1   C13 8426   6.523   2.214   7.432 -0.0755 -0.4225  0.1791
   81CHL1   C18 8427   6.672   2.213   7.483  0.4145  0.0573 -0.2593
   81CHL1  H18A 8428   6.693   2.111   7.523  4.0844  1.2893  1.3430
   81CHL1  H18B 8429   6.740   2.226   7.396  1.6458  0.8854  0.8060
   81CHL1  H18C 8430   6.687   2.283   7.567 -0.4980 -0.0591  0.0131
   81CHL1   C12 8431   6.488   2.092   7.343  0.6235  0.7528  0.4425
   81CHL1  H12A 8432   6.513   1.992   7.385 -0.2388 -0.2551 -1.3033
   81CHL1  H12B 8433   6.382   2.096   7.311  1.4187  0.2828 -2.5993
   81CHL1   C11 8434   6.570   2.104   7.210  0.7293  0.0244  0.0831
   81CHL1  H11A 8435   6.671   2.062   7.233  0.5383 -0.3878  0.1706
   81CHL1  H11B 8436   6.526   2.032   7.138 -0.1808  1.2760 -0.6666
   81CHL1    C9 8437   6.562   2.251   7.141  0.4410 -0.3221 -0.3678
   81CHL1    H9 8438   6.455   2.241   7.114 -0.9331 -0.4335  4.2987
   81CHL1   C10 8439   6.647   2.274   7.018 -0.2406 -0.3247 -0.8113
   81CHL1   C19 8440   6.794   2.253   7.067 -0.1168  0.7743 -0.3010
   81CHL1  H19A 8441   6.860   2.254   6.978  0.5723 -1.3723  0.1227
   81CHL1  H19B 8442   6.838   2.331   7.132  1.4547 -0.2491 -0.0777
   81CHL1  H19C 8443   6.811   2.160   7.126  2.4460  0.9248 -0.7169
   81CHL1    C1 8444   6.597   2.165   6.917 -0.6766 -0.1126 -0.5804
   81CHL1   H1A 8445   6.630   2.066   6.955  0.5503  0.1892 -0.8121
   81CHL1   H1B 8446   6.487   2.165   6.902 -0.8006 -0.3140  0.3082
   81CHL1    C2 8447   6.660   2.186   6.777 -1.1420 -0.3981  0.1635
   81CHL1   H2A 8448   6.620   2.109   6.708 -4.0942  0.6545  0.5580
   81CHL1   H2B 8449   6.770   2.170   6.786 -0.7067  1.5463 -1.0418
   81CHL1   C20 8450   6.422   2.129   7.666  1.0161  0.2562 -0.6153
   81CHL1   H20 8451   6.522   2.084   7.683  1.5039  1.5941  0.2857
   81CHL1   C21 8452   6.330   2.018   7.627 -0.8991  1.0051  0.5683
   81CHL1  H21A 8453   6.328   1.936   7.703 -1.0787 -0.1243 -0.6146
   81CHL1  H21B 8454   6.357   1.967   7.532 -3.3814 -1.4555  1.0465
   81CHL1  H21C 8455   6.227   2.057   7.620 -1.2279  0.5454  2.2115
   81CHL1   C22 8456   6.374   2.185   7.803  0.1769 -0.0847 -0.0850
   81CHL1  H22A 8457   6.432   2.277   7.826 -1.3397  1.2840 -1.5384
   81CHL1  H22B 8458   6.269   2.219   7.791  0.3336  0.2945 -0.3895
   81CHL1   C23 8459   6.400   2.079   7.915  0.0193  0.3051 -0.7201
   81CHL1  H23A 8460   6.338   1.988   7.908  0.8838 -0.4624  1.0708
   81CHL1  H23B 8461   6.501   2.033   7.908  0.4399  1.2304 -1.0001
   81CHL1   C24 8462   6.381   2.133   8.059 -0.0855 -0.0047  0.4595
   81CHL1  H24A 8463   6.445   2.224   8.060 -1.0691  0.7610 -1.4504
   81CHL1  H24B 8464   6.273   2.160   8.062 -0.4963 -1.1168 -2.0491
   81CHL1   C25 8465   6.430   2.041   8.174 -0.3020 -0.1646 -0.3786
   81CHL1   H25 8466   6.378   1.943   8.186 -0.7400 -0.2146 -2.4068
   81CHL1   C26 8467   6.572   1.988   8.155 -0.5234  0.5249  0.2008
   81CHL1  H26A 8468   6.582   1.926   8.064 -1.4013 -0.4939  0.7805
   81CHL1  H26B 8469   6.635   2.078   8.139 -1.1599  0.7318 -1.3300
   81CHL1  H26C 8470   6.611   1.940   8.247 -0.5093  0.6687  0.2715
   81CHL1   C27 8471   6.425   2.120   8.302  0.2884 -0.6213  0.6807
   81CHL1  H27A 8472   6.472   2.075   8.392 -0.4155  3.6529  3.5123
   81CHL1  H27B 8473   6.464   2.223   8.289  0.6902 -1.0018 -1.4984
   81CHL1  H27C 8474   6.319   2.132   8.335  0.3033 -0.5236  0.6922
   82CHL1    C3 8475   1.467   3.144   6.811  0.9819  0.6817  0.2270
   82CHL1    H3 8476   1.523   3.049   6.824  0.7032  0.2862 -1.2749
   82CHL1    O3 8477   1.469   3.171   6.669 -0.6784 -0.0005 -0.2815
   82CHL1   H3' 8478   1.413   3.249   6.663 -0.0820  0.4145 -0.5125
   82CHL1    C4 8479   1.318   3.137   6.859  0.0003 -0.1567  0.7525
   82CHL1   H4A 8480   1.271   3.226   6.812  0.8436 -1.5918 -3.2201
   82CHL1   H4B 8481   1.276   3.052   6.801  1.8789  0.1766 -1.2310
   82CHL1    C5 8482   1.300   3.129   7.009 -0.5704  0.6380 -0.4101
   82CHL1    C6 8483   1.227   3.028   7.068 -0.1231 -0.0595  0.1313
   82CHL1    H6 8484   1.168   2.961   7.004 -2.1144  1.1819  0.5629
   82CHL1    C7 8485   1.212   3.023   7.215  0.1184  0.1770 -0.1486
   82CHL1   H7A 8486   1.112   2.984   7.240  1.1558 -1.4678  1.7438
   82CHL1   H7B 8487   1.272   2.946   7.269 -1.1600 -1.0011 -0.3447
   82CHL1    C8 8488   1.250   3.160   7.282 -0.5186  0.5525 -0.0283
   82CHL1    H8 8489   1.168   3.231   7.256 -0.5685 -0.0507 -1.5937
   82CHL1   C14 8490   1.256   3.140   7.432 -0.7055  0.1720 -0.3001
   82CHL1   H14 8491   1.344   3.076   7.452  0.9808  1.6863 -2.3745
   82CHL1   C15 8492   1.128   3.074   7.498  0.4426  0.1427 -0.4217
   82CHL1  H15A 8493   1.039   3.108   7.440 -0.2845 -2.9033 -1.2695
   82CHL1  H15B 8494   1.126   2.964   7.481  0.1356  0.1687 -0.5666
   82CHL1   C16 8495   1.131   3.119   7.642  0.1080  0.7940 -0.1323
   82CHL1  H16A 8496   1.036   3.172   7.668 -0.3206 -0.3591  0.7118
   82CHL1  H16B 8497   1.148   3.037   7.714 -1.4976 -1.1929 -1.8931
   82CHL1   C17 8498   1.260   3.213   7.648 -0.2989  0.5349  0.0300
   82CHL1   H17 8499   1.352   3.162   7.683  1.9224  4.1301 -0.0931
   82CHL1   C13 8500   1.281   3.261   7.511 -0.3710 -0.4534  0.3129
   82CHL1   C18 8501   1.179   3.367   7.476  0.5292 -0.5857  0.2317
   82CHL1  H18A 8502   1.169   3.448   7.552 -1.6680 -0.3037 -0.3083
   82CHL1  H18B 8503   1.194   3.414   7.376  0.2806 -1.4231 -0.2094
   82CHL1  H18C 8504   1.076   3.326   7.470  0.0777  0.6081 -0.6072
   82CHL1   C12 8505   1.419   3.308   7.472 -0.3307  0.0404 -0.0421
   82CHL1  H12A 8506   1.453   3.401   7.521  1.1406 -0.2195 -0.5046
   82CHL1  H12B 8507   1.488   3.230   7.511  0.1415  0.9703  1.0402
   82CHL1   C11 8508   1.442   3.318   7.322 -0.4566 -0.3016 -0.3753
   82CHL1  H11A 8509   1.397   3.418   7.303 -1.3978 -0.2158  1.9579
   82CHL1  H11B 8510   1.551   3.321   7.300  0.3158  3.4584  2.8387
   82CHL1    C9 8511   1.385   3.199   7.240  0.0934  0.4529  0.4480
   82CHL1    H9 8512   1.452   3.114   7.265 -0.9705 -0.5473 -0.0024
   82CHL1   C10 8513   1.388   3.229   7.086  0.2042  0.3082 -0.4849
   82CHL1   C19 8514   1.315   3.368   7.066  0.4441  0.8225  0.4061
   82CHL1  H19A 8515   1.231   3.386   7.137 -0.4528 -0.5737 -0.2586
   82CHL1  H19B 8516   1.389   3.444   7.097  0.3883  0.3964  1.6832
   82CHL1  H19C 8517   1.277   3.396   6.966  1.4286 -0.1915 -0.2823
   82CHL1    C1 8518   1.535   3.239   7.040 -0.4549 -0.1159 -0.2380
   82CHL1   H1A 8519   1.587   3.324   7.089 -0.5274 -0.2015 -0.0100
   82CHL1   H1B 8520   1.586   3.143   7.062  1.0201  0.3751 -1.3649
   82CHL1    C2 8521   1.544   3.255   6.891  0.1884  0.2531 -0.3680
   82CHL1   H2A 8522   1.652   3.250   6.865  0.6465 -0.9337  1.5621
   82CHL1   H2B 8523   1.511   3.354   6.855 -1.5158 -0.1716 -0.0672
   82CHL1   C20 8524   1.245   3.316   7.766  0.0477 -0.2137 -0.1567
   82CHL1   H20 8525   1.164   3.388   7.741  2.0471  2.6109  0.9549
   82CHL1   C21 8526   1.365   3.408   7.773 -0.6016 -0.0739 -0.3662
   82CHL1  H21A 8527   1.466   3.362   7.773 -0.8427 -0.7788  2.1588
   82CHL1  H21B 8528   1.367   3.456   7.873 -0.2986  0.5177 -0.6574
   82CHL1  H21C 8529   1.351   3.480   7.690 -0.6861  1.4228  0.9076
   82CHL1   C22 8530   1.219   3.256   7.908 -0.3850 -0.2220 -0.3421
   82CHL1  H22A 8531   1.198   3.343   7.974  0.1803 -1.5111  1.6681
   82CHL1  H22B 8532   1.138   3.180   7.913  0.5759 -1.2098  2.1707
   82CHL1   C23 8533   1.336   3.198   7.969  0.0346 -0.3064  0.0832
   82CHL1  H23A 8534   1.373   3.122   7.898  1.2499  0.6496 -0.3399
   82CHL1  H23B 8535   1.416   3.272   7.991  1.1027 -1.7813  1.3883
   82CHL1   C24 8536   1.297   3.130   8.105 -0.6195  0.0475  0.9010
   82CHL1  H24A 8537   1.252   3.209   8.168  0.2129  0.5940  0.8248
   82CHL1  H24B 8538   1.226   3.045   8.098  0.1158 -0.4703 -1.1493
   82CHL1   C25 8539   1.420   3.080   8.186  0.2538  0.0805  0.3276
   82CHL1   H25 8540   1.471   3.168   8.230  0.1340 -0.4749  1.6351
   82CHL1   C26 8541   1.373   2.996   8.308  0.0775  0.6663 -0.4440
   82CHL1  H26A 8542   1.313   2.915   8.260  1.8701  0.5093 -2.5660
   82CHL1  H26B 8543   1.457   2.952   8.366 -1.3474 -0.4515  0.8697
   82CHL1  H26C 8544   1.312   3.065   8.370  1.0923  1.0372  0.1638
   82CHL1   C27 8545   1.535   3.004   8.108 -0.3365  0.2963  0.0055
   82CHL1  H27A 8546   1.519   2.900   8.072  2.7338 -0.5338  0.7702
   82CHL1  H27B 8547   1.565   3.067   8.022 -1.8366  0.8176 -0.1601
   82CHL1  H27C 8548   1.622   2.999   8.177  0.5860 -4.1659 -1.1749
   83CHL1    C3 8549   4.960   6.483   7.012 -0.2614 -0.2725  0.4225
   83CHL1    H3 8550   5.061   6.441   7.031  1.4060  1.3139 -3.6681
   83CHL1    O3 8551   4.952   6.471   6.869 -0.1586  0.0450  0.1378
   83CHL1   H3' 8552   5.002   6.548   6.839  1.1592 -0.8149  0.0536
   83CHL1    C4 8553   4.859   6.405   7.093 -0.0221  0.1056 -0.4068
   83CHL1   H4A 8554   4.760   6.446   7.066 -0.9176 -1.0747  0.9504
   83CHL1   H4B 8555   4.842   6.303   7.053 -1.2520 -0.0550  0.4885
   83CHL1    C5 8556   4.891   6.416   7.241  0.4539 -0.6334 -0.6456
   83CHL1    C6 8557   4.922   6.310   7.319 -0.1235  0.1797 -0.8754
   83CHL1    H6 8558   4.919   6.207   7.279  0.3671 -0.5911  0.9881
   83CHL1    C7 8559   4.955   6.315   7.467 -0.0952  0.0207  0.3030
   83CHL1   H7A 8560   4.892   6.239   7.518 -1.3155 -0.1921 -1.4567
   83CHL1   H7B 8561   5.062   6.292   7.488 -0.3451 -2.4732 -0.8737
   83CHL1    C8 8562   4.924   6.456   7.526 -0.7488  0.2214  0.1791
   83CHL1    H8 8563   4.813   6.461   7.531 -0.7188  0.4794  0.5344
   83CHL1   C14 8564   4.984   6.464   7.666 -0.5741 -0.0542 -0.1513
   83CHL1   H14 8565   5.093   6.453   7.650 -0.3718  1.1307  0.2495
   83CHL1   C15 8566   4.952   6.356   7.770  0.2733 -0.7536  0.0777
   83CHL1  H15A 8567   4.849   6.313   7.769 -0.3825  0.7400 -1.1231
   83CHL1  H15B 8568   5.010   6.264   7.746  0.1558 -0.9953  0.6988
   83CHL1   C16 8569   5.001   6.426   7.897 -0.5870 -0.4858 -0.7474
   83CHL1  H16A 8570   4.919   6.430   7.971  0.0761 -2.4542  0.1419
   83CHL1  H16B 8571   5.089   6.379   7.946 -0.3734  0.8877  0.2646
   83CHL1   C17 8572   5.041   6.576   7.867  0.0633  0.3467  0.5395
   83CHL1   H17 8573   5.148   6.572   7.840  0.0147 -2.0585  0.4770
   83CHL1   C13 8574   4.963   6.603   7.738  0.2829  0.4740  0.2497
   83CHL1   C18 8575   4.807   6.621   7.767 -0.2232 -0.7060 -0.0917
   83CHL1  H18A 8576   4.780   6.720   7.809 -2.1603 -0.8288 -0.9806
   83CHL1  H18B 8577   4.749   6.605   7.674  1.6061 -0.5678 -1.3157
   83CHL1  H18C 8578   4.780   6.540   7.839  2.0149  0.3062  2.0454
   83CHL1   C12 8579   5.015   6.721   7.649  0.6037 -0.1696 -0.1525
   83CHL1  H12A 8580   4.989   6.824   7.683  0.1787  0.3323 -1.8997
   83CHL1  H12B 8581   5.122   6.691   7.643  0.1275 -2.0536 -0.0155
   83CHL1   C11 8582   4.955   6.707   7.513 -0.2331  0.8476  0.6437
   83CHL1  H11A 8583   4.844   6.712   7.511 -0.3179 -0.3713 -2.2796
   83CHL1  H11B 8584   5.000   6.790   7.455 -0.4644 -0.4540 -1.5104
   83CHL1    C9 8585   4.972   6.568   7.442 -0.3954 -0.2263 -0.0288
   83CHL1    H9 8586   5.082   6.564   7.428 -0.4413  0.2350 -0.5510
   83CHL1   C10 8587   4.897   6.562   7.298 -0.1267 -0.0961  0.2771
   83CHL1   C19 8588   4.752   6.622   7.298  0.1751 -0.0167 -0.2242
   83CHL1  H19A 8589   4.680   6.568   7.362 -0.4760  1.1306  0.0510
   83CHL1  H19B 8590   4.750   6.732   7.315  2.7162  0.2858 -1.3830
   83CHL1  H19C 8591   4.709   6.606   7.196  0.8027  1.9187 -0.8446
   83CHL1    C1 8592   4.991   6.642   7.201 -0.2590  0.2257  0.6600
   83CHL1   H1A 8593   4.982   6.747   7.236 -1.5802 -0.0782  1.2602
   83CHL1   H1B 8594   5.100   6.626   7.217  0.4135  2.1917 -1.3178
   83CHL1    C2 8595   4.959   6.634   7.046 -0.2120  0.1920  0.1561
   83CHL1   H2A 8596   5.019   6.708   6.990 -2.1827  2.0379  0.3626
   83CHL1   H2B 8597   4.858   6.679   7.035 -0.3044  0.4731  1.8099
   83CHL1   C20 8598   5.024   6.663   7.988 -0.1305 -0.0234  0.8196
   83CHL1   H20 8599   4.920   6.658   8.027  0.0563  0.9120  1.4798
   83CHL1   C21 8600   5.064   6.804   7.951  0.1107 -0.8851  0.0347
   83CHL1  H21A 8601   4.980   6.848   7.894  0.2377 -0.0735  0.4437
   83CHL1  H21B 8602   5.155   6.799   7.888  0.6099 -0.4595  0.6997
   83CHL1  H21C 8603   5.074   6.879   8.033 -1.5550 -0.6748  0.0827
   83CHL1   C22 8604   5.107   6.624   8.110  0.7232 -0.2108 -0.1063
   83CHL1  H22A 8605   5.094   6.516   8.133 -1.6430  0.3652  1.6606
   83CHL1  H22B 8606   5.210   6.650   8.079  1.4122 -2.2794  0.2862
   83CHL1   C23 8607   5.080   6.691   8.247  0.1177  0.2067  0.4299
   83CHL1  H23A 8608   5.140   6.785   8.242  0.0352  0.3679  2.0133
   83CHL1  H23B 8609   4.971   6.710   8.250  0.0632  0.5538 -1.7680
   83CHL1   C24 8610   5.129   6.595   8.362  0.3068 -0.4492 -0.1971
   83CHL1  H24A 8611   5.092   6.491   8.354  1.8295 -1.0116 -0.1880
   83CHL1  H24B 8612   5.239   6.580   8.369  0.0716 -2.6855 -0.7730
   83CHL1   C25 8613   5.080   6.651   8.499  0.2475  0.5906 -0.1261
   83CHL1   H25 8614   4.970   6.661   8.494  0.4126  2.1749 -1.1801
   83CHL1   C26 8615   5.128   6.558   8.607 -0.4248  0.3150  0.0716
   83CHL1  H26A 8616   5.237   6.544   8.596 -0.2725  2.5580 -2.4152
   83CHL1  H26B 8617   5.108   6.599   8.708  0.8424 -0.1638  0.5348
   83CHL1  H26C 8618   5.078   6.459   8.594  1.5441 -0.9714  1.7074
   83CHL1   C27 8619   5.149   6.784   8.527 -0.1699 -0.1501 -0.3041
   83CHL1  H27A 8620   5.122   6.859   8.450 -0.9209 -1.3444 -1.2585
   83CHL1  H27B 8621   5.121   6.822   8.628 -0.3552 -1.8013  0.3012
   83CHL1  H27C 8622   5.259   6.769   8.531 -0.2300 -0.4403  1.9798
   84CHL1    C3 8623   5.861   0.622   6.869  0.4521  0.1262  0.4920
   84CHL1    H3 8624   5.943   0.559   6.912 -1.6218 -2.6234  0.6548
   84CHL1    O3 8625   5.853   0.607   6.724 -0.2467 -0.0834 -0.0650
   84CHL1   H3' 8626   5.801   0.682   6.696  0.3085  0.4261  0.2663
   84CHL1    C4 8627   5.722   0.580   6.932 -0.4566 -0.5791  0.8235
   84CHL1   H4A 8628   5.643   0.652   6.901  1.5945  1.8415  0.9632
   84CHL1   H4B 8629   5.688   0.484   6.886 -0.2657 -0.0699 -0.4359
   84CHL1    C5 8630   5.730   0.585   7.077  0.8896  0.8136 -0.9487
   84CHL1    C6 8631   5.696   0.476   7.148  0.0899 -0.1646  0.4855
   84CHL1    H6 8632   5.664   0.385   7.095  3.0720 -0.9893 -0.0951
   84CHL1    C7 8633   5.693   0.469   7.296  0.6892  0.1735  0.2691
   84CHL1   H7A 8634   5.605   0.415   7.336  1.2196 -0.2310  0.9090
   84CHL1   H7B 8635   5.780   0.415   7.339  2.2203  0.9453 -1.6998
   84CHL1    C8 8636   5.683   0.612   7.360  0.1078 -0.8164 -0.2964
   84CHL1    H8 8637   5.582   0.653   7.341  0.5232  0.0192 -0.7300
   84CHL1   C14 8638   5.699   0.605   7.512  0.6664  0.1287  0.6859
   84CHL1   H14 8639   5.799   0.557   7.518 -0.4189 -2.1821  1.4812
   84CHL1   C15 8640   5.601   0.518   7.596  0.7519  0.2953  1.1359
   84CHL1  H15A 8641   5.496   0.533   7.562  0.5887 -2.3968  0.2704
   84CHL1  H15B 8642   5.622   0.410   7.586 -1.4141 -0.1007  0.1735
   84CHL1   C16 8643   5.622   0.565   7.739 -0.3004 -0.0588 -0.2359
   84CHL1  H16A 8644   5.526   0.608   7.774 -0.1079 -1.1780  1.7729
   84CHL1  H16B 8645   5.680   0.496   7.804 -2.1681 -0.7397  0.7717
   84CHL1   C17 8646   5.715   0.691   7.727 -0.5624  0.5251 -0.0423
   84CHL1   H17 8647   5.815   0.651   7.752 -0.7294  1.0003  1.5123
   84CHL1   C13 8648   5.710   0.740   7.582 -0.5576 -0.1102 -0.2533
   84CHL1   C18 8649   5.565   0.808   7.570 -0.2250  0.1056  0.1580
   84CHL1  H18A 8650   5.559   0.914   7.604 -3.6004  0.1280 -0.1567
   84CHL1  H18B 8651   5.525   0.803   7.467 -0.5913  1.6912  0.2089
   84CHL1  H18C 8652   5.482   0.755   7.623 -2.1034  1.3252 -1.4166
   84CHL1   C12 8653   5.827   0.823   7.528  0.6815  0.0899  0.8468
   84CHL1  H12A 8654   5.855   0.914   7.584  1.0519 -2.4848  5.2940
   84CHL1  H12B 8655   5.924   0.767   7.529  1.3286  1.1806  2.4064
   84CHL1   C11 8656   5.800   0.840   7.380  0.5708 -0.2506 -0.3745
   84CHL1  H11A 8657   5.706   0.897   7.363  0.7628 -0.4234 -2.1026
   84CHL1  H11B 8658   5.874   0.898   7.321  0.3756  0.0975 -0.2840
   84CHL1    C9 8659   5.790   0.705   7.305  0.2109  0.4868 -0.1425
   84CHL1    H9 8660   5.888   0.654   7.316 -0.1978 -0.6418 -1.3969
   84CHL1   C10 8661   5.775   0.724   7.145  0.0854 -0.0452  0.1451
   84CHL1   C19 8662   5.674   0.829   7.120  0.5636 -0.0254 -0.1504
   84CHL1  H19A 8663   5.621   0.818   7.023 -0.0547 -2.1319  0.3524
   84CHL1  H19B 8664   5.595   0.821   7.199  1.7675  2.2367  1.3961
   84CHL1  H19C 8665   5.715   0.932   7.123  1.0589 -0.1667 -1.4928
   84CHL1    C1 8666   5.907   0.761   7.073 -0.4214  0.8746  0.2787
   84CHL1   H1A 8667   5.941   0.863   7.099 -1.2007  1.5700 -1.3374
   84CHL1   H1B 8668   5.990   0.692   7.100 -2.1024 -0.9330  1.1275
   84CHL1    C2 8669   5.896   0.764   6.916  0.6567  0.7036 -0.0512
   84CHL1   H2A 8670   5.994   0.798   6.878 -0.3070  4.1792  0.2527
   84CHL1   H2B 8671   5.825   0.836   6.870 -0.3293 -0.9879 -1.3472
   84CHL1   C20 8672   5.681   0.791   7.840 -0.0844  0.0696 -0.2233
   84CHL1   H20 8673   5.578   0.832   7.832 -0.8336 -1.0848  2.3158
   84CHL1   C21 8674   5.770   0.920   7.843 -0.5819  0.0781  0.0339
   84CHL1  H21A 8675   5.877   0.892   7.839 -0.2889  0.7033  2.1675
   84CHL1  H21B 8676   5.762   0.975   7.940  1.5748 -0.9649  0.8654
   84CHL1  H21C 8677   5.739   0.990   7.763 -1.9488 -0.8791 -0.3003
   84CHL1   C22 8678   5.691   0.719   7.977  1.0483  0.3680  0.2320
   84CHL1  H22A 8679   5.644   0.619   7.983  1.9771 -0.2249 -1.5958
   84CHL1  H22B 8680   5.798   0.697   7.996  0.7513 -1.6596 -0.2129
   84CHL1   C23 8681   5.626   0.793   8.099  0.2011  0.1591  0.0256
   84CHL1  H23A 8682   5.625   0.720   8.182  0.0247  0.0164 -0.1009
   84CHL1  H23B 8683   5.688   0.881   8.126  1.2837 -0.8101  0.8286
   84CHL1   C24 8684   5.481   0.832   8.089  0.8046 -0.3368 -0.0609
   84CHL1  H24A 8685   5.461   0.937   8.057 -0.7154 -0.8317 -0.8153
   84CHL1  H24B 8686   5.426   0.774   8.012 -0.0337 -1.2298  1.1895
   84CHL1   C25 8687   5.405   0.835   8.225 -0.5312  0.3645 -0.3063
   84CHL1   H25 8688   5.471   0.887   8.298  0.7611 -2.0359  0.3412
   84CHL1   C26 8689   5.271   0.905   8.220  1.3517 -0.1119  0.4299
   84CHL1  H26A 8690   5.213   0.864   8.135  0.1886  1.2105  0.5590
   84CHL1  H26B 8691   5.215   0.880   8.312 -2.1549 -0.8723 -1.7435
   84CHL1  H26C 8692   5.289   1.014   8.210 -1.5475  0.3885 -0.1094
   84CHL1   C27 8693   5.385   0.688   8.265  0.2922 -0.6152 -0.1610
   84CHL1  H27A 8694   5.331   0.627   8.189 -0.4333  0.3632 -0.4520
   84CHL1  H27B 8695   5.483   0.639   8.284  0.1786 -0.8635 -0.1991
   84CHL1  H27C 8696   5.322   0.680   8.356 -2.8858  0.1174 -2.1528
   85CHL1    C3 8697   6.133   4.305   6.586  0.3903  0.7453 -0.4264
   85CHL1    H3 8698   6.067   4.393   6.573 -0.3956  0.3379  0.6259
   85CHL1    O3 8699   6.108   4.231   6.463  0.6772  0.3032 -0.0953
   85CHL1   H3' 8700   6.157   4.148   6.467 -1.2391 -0.9525 -1.3104
   85CHL1    C4 8701   6.277   4.352   6.609  0.7637  0.8860  0.4121
   85CHL1   H4A 8702   6.348   4.272   6.581 -1.0092 -0.5599 -0.1545
   85CHL1   H4B 8703   6.298   4.430   6.533 -0.4939 -0.5353 -1.4804
   85CHL1    C5 8704   6.305   4.398   6.753  0.5378  0.8854  0.4396
   85CHL1    C6 8705   6.356   4.524   6.774 -0.7557 -0.8056 -0.4033
   85CHL1    H6 8706   6.376   4.586   6.685 -2.5906  0.6472  0.1122
   85CHL1    C7 8707   6.398   4.576   6.904  1.0719 -0.1154 -0.0339
   85CHL1   H7A 8708   6.503   4.614   6.909  0.7989  0.4812  2.0685
   85CHL1   H7B 8709   6.324   4.658   6.916 -0.5959 -1.3974 -1.0598
   85CHL1    C8 8710   6.382   4.472   7.020 -0.3480  0.3641  0.6034
   85CHL1    H8 8711   6.479   4.417   7.013 -0.8595 -0.4140 -1.0120
   85CHL1   C14 8712   6.379   4.547   7.155 -0.8822 -0.1331  0.0532
   85CHL1   H14 8713   6.282   4.602   7.151 -1.3997 -1.0847 -2.7745
   85CHL1   C15 8714   6.484   4.657   7.184 -0.5019 -0.0984  0.1503
   85CHL1  H15A 8715   6.586   4.622   7.157  0.0954  0.9629  0.9560
   85CHL1  H15B 8716   6.455   4.747   7.127  1.0655  0.5279  0.2957
   85CHL1   C16 8717   6.485   4.666   7.338  0.0784  0.1572  0.4076
   85CHL1  H16A 8718   6.588   4.651   7.377  0.1577  1.3388  0.6892
   85CHL1  H16B 8719   6.466   4.773   7.363 -0.2971  0.0367  0.6418
   85CHL1   C17 8720   6.384   4.559   7.386 -0.1950  0.7728  0.4809
   85CHL1   H17 8721   6.290   4.618   7.381 -1.3325 -1.0499 -1.1627
   85CHL1   C13 8722   6.376   4.452   7.279 -0.2239  0.3457  0.3749
   85CHL1   C18 8723   6.511   4.375   7.283 -0.5976  0.2174 -0.3185
   85CHL1  H18A 8724   6.608   4.430   7.290  1.1554 -2.7397  0.0251
   85CHL1  H18B 8725   6.513   4.286   7.350  2.4776  0.1493 -0.3791
   85CHL1  H18C 8726   6.521   4.324   7.185 -0.7076  1.8103 -1.2000
   85CHL1   C12 8727   6.246   4.368   7.265 -1.0315 -0.5207 -0.3109
   85CHL1  H12A 8728   6.229   4.294   7.347 -0.3875 -2.9975 -2.2801
   85CHL1  H12B 8729   6.168   4.447   7.270  0.3098  1.1521 -3.3088
   85CHL1   C11 8730   6.239   4.289   7.128  0.6430  0.2310 -0.2235
   85CHL1  H11A 8731   6.311   4.205   7.124 -1.0442 -1.2659 -4.1375
   85CHL1  H11B 8732   6.136   4.251   7.110  0.1151  1.5546 -0.1262
   85CHL1    C9 8733   6.261   4.385   7.004  0.7270 -0.3130  0.0531
   85CHL1    H9 8734   6.180   4.461   7.007  0.3456 -0.7295  0.4967
   85CHL1   C10 8735   6.255   4.314   6.867 -0.5947 -0.1165 -0.0935
   85CHL1   C19 8736   6.335   4.181   6.880 -0.0479 -1.2815 -0.8571
   85CHL1  H19A 8737   6.340   4.141   6.777 -2.1675  0.1594 -1.5896
   85CHL1  H19B 8738   6.437   4.196   6.922 -0.6785  1.3551 -0.0823
   85CHL1  H19C 8739   6.284   4.106   6.944  0.6907  0.2234  1.6770
   85CHL1    C1 8740   6.113   4.274   6.840 -0.8282 -0.5874  0.5042
   85CHL1   H1A 8741   6.077   4.197   6.912 -4.4943 -1.2715 -1.8082
   85CHL1   H1B 8742   6.045   4.362   6.844 -1.1699 -0.8617  0.8398
   85CHL1    C2 8743   6.081   4.215   6.695  0.5517 -0.1418  0.3263
   85CHL1   H2A 8744   5.971   4.221   6.682  0.7334 -0.6691 -1.9524
   85CHL1   H2B 8745   6.114   4.109   6.684 -2.8121 -1.3811  1.0953
   85CHL1   C20 8746   6.402   4.515   7.537  0.1360 -1.3470  0.0171
   85CHL1   H20 8747   6.500   4.471   7.566  1.3165 -0.1074 -1.9272
   85CHL1   C21 8748   6.295   4.408   7.568 -0.3350  0.3415 -0.2165
   85CHL1  H21A 8749   6.197   4.438   7.524 -1.5543 -0.7984  1.5848
   85CHL1  H21B 8750   6.287   4.392   7.677  1.8584  0.1062 -0.0579
   85CHL1  H21C 8751   6.325   4.311   7.521 -0.4320 -0.5034  1.4054
   85CHL1   C22 8752   6.394   4.638   7.630  0.2304 -0.7811 -0.1955
   85CHL1  H22A 8753   6.445   4.726   7.586  0.3821 -1.2405 -0.9653
   85CHL1  H22B 8754   6.293   4.673   7.658  0.9451  0.7140  0.6508
   85CHL1   C23 8755   6.462   4.603   7.761  0.3284 -0.1268 -0.2789
   85CHL1  H23A 8756   6.433   4.504   7.802  0.3153  1.5058  4.1652
   85CHL1  H23B 8757   6.570   4.593   7.733  0.6709 -4.0484  1.7159
   85CHL1   C24 8758   6.424   4.705   7.864 -0.3545 -0.5809  0.2398
   85CHL1  H24A 8759   6.436   4.803   7.814  1.1975 -1.6695 -1.6403
   85CHL1  H24B 8760   6.317   4.690   7.887 -1.1128  3.0776 -0.3124
   85CHL1   C25 8761   6.504   4.712   7.993 -0.5754 -0.1636 -0.1403
   85CHL1   H25 8762   6.614   4.711   7.979 -0.4354 -1.0680  0.8856
   85CHL1   C26 8763   6.465   4.834   8.079  0.8099 -0.8649  0.5988
   85CHL1  H26A 8764   6.516   4.830   8.177  0.8011 -0.2317  0.6360
   85CHL1  H26B 8765   6.493   4.930   8.031  0.7186 -0.2013  1.8207
   85CHL1  H26C 8766   6.357   4.838   8.106  0.5823  0.2767 -0.3948
   85CHL1   C27 8767   6.473   4.591   8.084 -0.2457 -0.4158 -0.2401
   85CHL1  H27A 8768   6.495   4.599   8.192 -1.0907 -1.5023  0.0219
   85CHL1  H27B 8769   6.371   4.551   8.068  0.0339 -0.6760 -1.5049
   85CHL1  H27C 8770   6.537   4.510   8.042  1.2352  0.6214 -0.0672
   86CHL1    C3 8771   1.018   3.347   6.836 -0.5893  0.3029 -0.2961
   86CHL1    H3 8772   1.094   3.290   6.895 -1.4028 -1.7926 -1.1792
   86CHL1    O3 8773   1.044   3.327   6.698 -0.3856 -0.9323  0.0605
   86CHL1   H3' 8774   0.957   3.348   6.665  0.0577  2.8392  0.8764
   86CHL1    C4 8775   0.881   3.286   6.863 -0.3468 -0.0138  0.2071
   86CHL1   H4A 8776   0.805   3.334   6.797 -1.9407 -1.8885  0.5748
   86CHL1   H4B 8777   0.879   3.176   6.847 -2.2114  0.0933 -0.6240
   86CHL1    C5 8778   0.839   3.315   7.011 -0.7851  0.4787  0.5693
   86CHL1    C6 8779   0.790   3.219   7.089 -0.1439  0.1474  0.0528
   86CHL1    H6 8780   0.791   3.119   7.043  1.1465  0.0741  0.2044
   86CHL1    C7 8781   0.732   3.238   7.226  0.5907  0.3283  0.2973
   86CHL1   H7A 8782   0.632   3.190   7.225  1.0122 -0.5629 -0.8611
   86CHL1   H7B 8783   0.794   3.186   7.302 -0.3110 -0.2704  0.6409
   86CHL1    C8 8784   0.718   3.385   7.270 -0.8378  0.3568  0.3325
   86CHL1    H8 8785   0.623   3.428   7.231 -0.8761 -0.8375 -0.9237
   86CHL1   C14 8786   0.718   3.412   7.419  0.2462 -0.7514 -0.6644
   86CHL1   H14 8787   0.818   3.393   7.463 -1.4860  0.5718  4.5355
   86CHL1   C15 8788   0.631   3.316   7.499 -0.1759 -0.6005 -0.3382
   86CHL1  H15A 8789   0.528   3.296   7.462 -1.0587  0.4801  1.4073
   86CHL1  H15B 8790   0.691   3.226   7.524  1.5259  0.6132  0.1190
   86CHL1   C16 8791   0.608   3.391   7.639 -0.1398 -0.3326 -0.0771
   86CHL1  H16A 8792   0.506   3.404   7.681  0.3313  0.6799  0.8169
   86CHL1  H16B 8793   0.671   3.343   7.717 -0.5655 -0.9099 -0.0833
   86CHL1   C17 8794   0.674   3.530   7.618  0.0507 -0.0617  0.3396
   86CHL1   H17 8795   0.777   3.519   7.659  0.7702 -2.1648 -1.8014
   86CHL1   C13 8796   0.691   3.558   7.470  0.5910 -0.3273  0.2809
   86CHL1   C18 8797   0.560   3.615   7.407  0.3879  0.4291 -0.1789
   86CHL1  H18A 8798   0.551   3.595   7.298  0.2652 -0.6708  0.0198
   86CHL1  H18B 8799   0.484   3.554   7.460  0.8889 -1.7799 -1.8162
   86CHL1  H18C 8800   0.558   3.723   7.432  1.1247  0.1134  1.3933
   86CHL1   C12 8801   0.822   3.632   7.418 -0.2698 -0.1012 -0.5976
   86CHL1  H12A 8802   0.806   3.738   7.445  0.7787  0.3689 -1.7313
   86CHL1  H12B 8803   0.903   3.580   7.474 -0.6969 -1.5145 -1.2323
   86CHL1   C11 8804   0.842   3.615   7.268 -0.0616 -0.4817  0.3418
   86CHL1  H11A 8805   0.772   3.677   7.208  0.5781 -2.2320 -2.3971
   86CHL1  H11B 8806   0.944   3.657   7.251 -0.6141  0.7184 -0.0903
   86CHL1    C9 8807   0.839   3.468   7.212 -0.0108  0.2028  0.4272
   86CHL1    H9 8808   0.935   3.435   7.256 -0.4189 -0.2391  1.0005
   86CHL1   C10 8809   0.846   3.459   7.053 -0.5906 -0.3445 -0.2078
   86CHL1   C19 8810   0.733   3.540   6.979  0.4399  0.2382  0.1556
   86CHL1  H19A 8811   0.734   3.644   7.018 -0.3032 -0.5212  2.3697
   86CHL1  H19B 8812   0.749   3.540   6.869 -3.5401 -2.6394 -0.6725
   86CHL1  H19C 8813   0.633   3.499   7.007 -0.2444  1.7483  0.0526
   86CHL1    C1 8814   0.973   3.526   7.001 -0.2405 -0.5777 -0.0868
   86CHL1   H1A 8815   0.957   3.636   7.004 -1.6853 -0.6361 -2.4351
   86CHL1   H1B 8816   1.050   3.507   7.078  0.0236 -0.7634 -0.3941
   86CHL1    C2 8817   1.022   3.501   6.858 -0.0285  0.5417  0.0966
   86CHL1   H2A 8818   1.126   3.540   6.860  0.5709 -0.7611 -2.0520
   86CHL1   H2B 8819   0.959   3.553   6.784 -2.5343 -2.8150 -0.3808
   86CHL1   C20 8820   0.611   3.646   7.703  0.2714 -1.1108 -0.6165
   86CHL1   H20 8821   0.507   3.668   7.675  0.3880  2.1500  1.0455
   86CHL1   C21 8822   0.695   3.773   7.686 -1.1770  0.5090  0.3147
   86CHL1  H21A 8823   0.805   3.770   7.694 -1.1797  2.0284  1.2300
   86CHL1  H21B 8824   0.665   3.855   7.754  0.3269  0.5394  0.9677
   86CHL1  H21C 8825   0.663   3.815   7.587 -1.7763 -1.8135 -0.5360
   86CHL1   C22 8826   0.608   3.602   7.853  0.3211  0.3690 -0.2697
   86CHL1  H22A 8827   0.533   3.521   7.865 -0.9692  1.6879  1.0179
   86CHL1  H22B 8828   0.704   3.555   7.881 -0.2278 -3.1176 -3.4935
   86CHL1   C23 8829   0.584   3.718   7.950 -0.3004 -0.4305  0.3214
   86CHL1  H23A 8830   0.679   3.775   7.962 -0.8337  0.5231  0.1370
   86CHL1  H23B 8831   0.503   3.777   7.902 -0.2590 -1.1457 -0.6490
   86CHL1   C24 8832   0.554   3.670   8.093 -0.5238  0.5587  0.2334
   86CHL1  H24A 8833   0.480   3.588   8.085  0.6912 -0.6060  0.5558
   86CHL1  H24B 8834   0.648   3.625   8.132 -0.4151  1.8343  1.5230
   86CHL1   C25 8835   0.525   3.767   8.210  0.1096 -0.1055 -0.4275
   86CHL1   H25 8836   0.432   3.828   8.203 -0.1543  0.0267  2.7225
   86CHL1   C26 8837   0.497   3.681   8.338 -0.6184 -0.0351 -0.1823
   86CHL1  H26A 8838   0.462   3.743   8.422  0.5030 -0.0687  0.3228
   86CHL1  H26B 8839   0.422   3.601   8.316  1.5640 -2.1077 -0.5348
   86CHL1  H26C 8840   0.597   3.640   8.364 -1.1728 -1.2943  0.0357
   86CHL1   C27 8841   0.642   3.865   8.230 -0.0699 -0.6641 -0.4513
   86CHL1  H27A 8842   0.736   3.808   8.247  0.5097 -0.1005 -1.6493
   86CHL1  H27B 8843   0.642   3.922   8.135 -1.5720  1.1569  0.5592
   86CHL1  H27C 8844   0.619   3.937   8.311 -0.2571 -0.8075 -0.3755
   87CHL1    C3 8845   0.418   0.441   7.042 -0.1515  0.0248  0.2865
   87CHL1    H3 8846   0.392   0.549   7.051  0.9184  0.2175  1.3136
   87CHL1    O3 8847   0.426   0.396   6.907  0.6159 -0.6950  0.3885
   87CHL1   H3' 8848   0.516   0.378   6.877  0.7947  1.5284 -0.6855
   87CHL1    C4 8849   0.557   0.420   7.109  0.3564 -0.1646  0.7041
   87CHL1   H4A 8850   0.590   0.314   7.113 -1.1326 -0.7702 -1.3105
   87CHL1   H4B 8851   0.628   0.485   7.053  1.6260 -0.6566  1.7024
   87CHL1    C5 8852   0.548   0.457   7.257 -0.0970 -0.1881  0.3574
   87CHL1    C6 8853   0.651   0.525   7.308 -0.4289  0.3487  0.3652
   87CHL1    H6 8854   0.737   0.550   7.243  1.6036 -1.2056  2.2754
   87CHL1    C7 8855   0.652   0.578   7.449 -0.9648  0.1643  0.1828
   87CHL1   H7A 8856   0.739   0.535   7.503 -2.1703 -0.1890  1.9108
   87CHL1   H7B 8857   0.671   0.688   7.448 -0.0904  0.0423  1.5766
   87CHL1    C8 8858   0.544   0.531   7.547  0.3293 -0.1019  0.3883
   87CHL1    H8 8859   0.583   0.436   7.589 -0.1422 -0.8252 -0.7789
   87CHL1   C14 8860   0.523   0.618   7.668  0.1739  0.5296 -0.4751
   87CHL1   H14 8861   0.485   0.718   7.636  1.2838  0.8781 -0.7408
   87CHL1   C15 8862   0.644   0.660   7.748  0.1102  0.0981 -0.8971
   87CHL1  H15A 8863   0.711   0.577   7.779 -0.0685  0.3218  0.1243
   87CHL1  H15B 8864   0.707   0.736   7.698 -2.4337  2.3364 -0.9063
   87CHL1   C16 8865   0.581   0.717   7.878 -0.5863 -0.4219  0.1470
   87CHL1  H16A 8866   0.625   0.660   7.963 -2.0914  0.4154  1.5606
   87CHL1  H16B 8867   0.598   0.825   7.895  0.3816 -0.4437 -0.6407
   87CHL1   C17 8868   0.430   0.680   7.874  0.0658  0.4843  0.8099
   87CHL1   H17 8869   0.368   0.759   7.826 -2.4659 -0.4440  2.3194
   87CHL1   C13 8870   0.421   0.562   7.766 -0.8858  0.2078 -0.5110
   87CHL1   C18 8871   0.463   0.425   7.828  0.4623 -0.2977  0.0526
   87CHL1  H18A 8872   0.383   0.388   7.895  0.0174 -1.0947 -0.8800
   87CHL1  H18B 8873   0.476   0.345   7.751  0.0189 -1.8812  1.5623
   87CHL1  H18C 8874   0.562   0.430   7.878  1.0140 -0.2789 -1.0007
   87CHL1   C12 8875   0.291   0.564   7.697  0.3923  0.7797 -1.0102
   87CHL1  H12A 8876   0.215   0.520   7.766  2.3155 -0.8710  0.1433
   87CHL1  H12B 8877   0.266   0.666   7.660 -1.8990 -0.9912 -5.0303
   87CHL1   C11 8878   0.294   0.466   7.575 -0.1293  0.0054 -0.7558
   87CHL1  H11A 8879   0.316   0.362   7.606  0.8759 -0.1058 -1.7715
   87CHL1  H11B 8880   0.195   0.469   7.524 -0.8955  0.6211  0.7055
   87CHL1    C9 8881   0.408   0.508   7.474 -0.5597  0.0492  0.0473
   87CHL1    H9 8882   0.368   0.606   7.439 -2.6872  0.1792  2.5664
   87CHL1   C10 8883   0.420   0.411   7.342  0.0743 -0.6132  0.0901
   87CHL1   C19 8884   0.448   0.272   7.389  0.3757  0.3179 -0.0647
   87CHL1  H19A 8885   0.470   0.197   7.310  1.0449 -0.9258  1.2373
   87CHL1  H19B 8886   0.534   0.259   7.459 -0.5707 -2.0464  0.7816
   87CHL1  H19C 8887   0.359   0.241   7.448 -0.5441  0.1853 -1.5043
   87CHL1    C1 8888   0.293   0.417   7.264 -0.0431  0.3320  0.6360
   87CHL1   H1A 8889   0.215   0.359   7.319 -0.6485 -1.4986 -1.9711
   87CHL1   H1B 8890   0.257   0.520   7.247 -0.7860  0.0911  0.6771
   87CHL1    C2 8891   0.306   0.362   7.118  1.0193  0.7729  0.3600
   87CHL1   H2A 8892   0.213   0.388   7.062 -1.0572 -3.2334  1.5490
   87CHL1   H2B 8893   0.312   0.251   7.123  1.3838  0.8171  0.9435
   87CHL1   C20 8894   0.377   0.658   8.018 -1.0045  0.3882  0.5445
   87CHL1   H20 8895   0.429   0.572   8.066 -0.9378 -0.6197 -1.2331
   87CHL1   C21 8896   0.228   0.620   8.004 -0.1370 -0.8540 -0.7966
   87CHL1  H21A 8897   0.184   0.613   8.105  0.2203  2.4244 -0.3370
   87CHL1  H21B 8898   0.220   0.518   7.959  0.5940 -0.2268 -2.4173
   87CHL1  H21C 8899   0.184   0.704   7.947  3.0061  2.3370  1.0905
   87CHL1   C22 8900   0.399   0.786   8.102  0.4253  0.3213  0.3415
   87CHL1  H22A 8901   0.499   0.834   8.097  0.9274 -0.7908 -3.0868
   87CHL1  H22B 8902   0.329   0.863   8.063  0.4470 -0.1146 -0.5906
   87CHL1   C23 8903   0.360   0.773   8.252 -0.3081 -0.2161  0.7040
   87CHL1  H23A 8904   0.257   0.740   8.274 -0.2591 -0.7100  0.2001
   87CHL1  H23B 8905   0.425   0.690   8.286  2.9088  0.8040 -2.3086
   87CHL1   C24 8906   0.389   0.907   8.321  0.1861 -0.1261 -0.8123
   87CHL1  H24A 8907   0.499   0.919   8.311  0.2027 -0.1394 -0.6445
   87CHL1  H24B 8908   0.337   0.991   8.270  1.2455  0.8101 -0.4029
   87CHL1   C25 8909   0.365   0.913   8.479  0.5638 -0.1280  0.0312
   87CHL1   H25 8910   0.255   0.921   8.490  0.4355 -0.7939 -0.6528
   87CHL1   C26 8911   0.431   0.782   8.541  0.0246  0.6073 -0.3604
   87CHL1  H26A 8912   0.540   0.774   8.525  0.3116 -1.0148  1.8936
   87CHL1  H26B 8913   0.420   0.795   8.651  1.0042 -1.7351  0.0637
   87CHL1  H26C 8914   0.376   0.693   8.503 -0.3791  0.1937  1.1178
   87CHL1   C27 8915   0.429   1.037   8.540 -0.1521 -0.6603  0.4478
   87CHL1  H27A 8916   0.390   1.051   8.643  0.9152 -0.8439  0.8852
   87CHL1  H27B 8917   0.540   1.036   8.542 -0.0918  0.2585 -1.0325
   87CHL1  H27C 8918   0.396   1.131   8.490  0.9823 -1.3606 -1.7245
   88CHL1    C3 8919   0.021   6.204   6.623 -0.6861 -0.3602  0.7537
   88CHL1    H3 8920   0.127   6.228   6.641 -0.3544 -0.0864 -1.2689
   88CHL1    O3 8921   0.029   6.170   6.486 -0.3768  0.1741 -0.1199
   88CHL1   H3' 8922   0.092   6.098   6.494 -0.4911  0.2043  1.1983
   88CHL1    C4 8923  -0.003   6.083   6.715  0.4007  0.1219  0.1432
   88CHL1   H4A 8924  -0.101   6.038   6.686  1.9527 -2.7127 -1.1516
   88CHL1   H4B 8925   0.069   6.002   6.690  0.3669 -0.6375  2.2794
   88CHL1    C5 8926   0.008   6.117   6.857  0.0771 -0.2169 -0.5997
   88CHL1    C6 8927   0.097   6.059   6.942 -0.6000 -0.3040  0.6966
   88CHL1    H6 8928   0.161   5.985   6.893  0.8527  2.0419 -1.1737
   88CHL1    C7 8929   0.112   6.086   7.090 -0.3915 -0.2615  0.3139
   88CHL1   H7A 8930   0.106   5.989   7.144  0.5646 -1.2671 -1.3020
   88CHL1   H7B 8931   0.213   6.131   7.102 -0.4785  1.2567 -3.3969
   88CHL1    C8 8932   0.001   6.183   7.136  0.2029  0.1667  0.5857
   88CHL1    H8 8933  -0.089   6.119   7.147  1.9050 -2.8999 -1.6211
   88CHL1   C14 8934   0.049   6.245   7.263  0.3897 -0.3921  0.0604
   88CHL1   H14 8935   0.129   6.315   7.233 -1.5014  1.6900 -0.3779
   88CHL1   C15 8936   0.107   6.155   7.366  0.0526  0.2650  0.5630
   88CHL1  H15A 8937   0.051   6.059   7.369 -1.5271  1.1251 -0.0333
   88CHL1  H15B 8938   0.215   6.133   7.362  0.2700  0.3893  3.2881
   88CHL1   C16 8939   0.099   6.228   7.501 -0.7350 -0.3678  0.3528
   88CHL1  H16A 8940   0.042   6.158   7.567  0.5876 -2.7226 -0.8688
   88CHL1  H16B 8941   0.193   6.252   7.556  0.4663 -0.2432 -1.6688
   88CHL1   C17 8942   0.034   6.370   7.464 -0.0575 -0.1783  0.1583
   88CHL1   H17 8943   0.121   6.433   7.432 -1.5061  1.6864 -0.3050
   88CHL1   C13 8944  -0.051   6.327   7.338  0.4319 -1.0490  0.1043
   88CHL1   C18 8945  -0.180   6.249   7.372  0.4555 -0.6155 -0.2947
   88CHL1  H18A 8946  -0.260   6.311   7.420  0.0690 -0.7628 -0.7447
   88CHL1  H18B 8947  -0.227   6.216   7.277 -1.4676 -1.4991  0.8987
   88CHL1  H18C 8948  -0.149   6.167   7.440  2.6762 -0.1800 -0.6929
   88CHL1   C12 8949  -0.078   6.447   7.241  0.0514 -0.2069 -0.0222
   88CHL1  H12A 8950  -0.153   6.519   7.281 -0.6988 -0.0427 -1.6648
   88CHL1  H12B 8951   0.012   6.511   7.233  0.3860 -0.4020  1.6999
   88CHL1   C11 8952  -0.125   6.402   7.104 -0.5775 -0.1044 -1.1473
   88CHL1  H11A 8953  -0.229   6.362   7.111 -1.2503  1.4756 -1.7946
   88CHL1  H11B 8954  -0.135   6.496   7.047 -0.3266  0.4807 -0.2447
   88CHL1    C9 8955  -0.033   6.293   7.037 -0.2417 -0.1954  0.2326
   88CHL1    H9 8956   0.062   6.348   7.023  0.7671 -1.2914  2.3091
   88CHL1   C10 8957  -0.077   6.238   6.893  0.5976 -0.0834  0.4539
   88CHL1   C19 8958  -0.216   6.184   6.901  0.2267 -0.2105  0.6361
   88CHL1  H19A 8959  -0.255   6.157   6.801 -1.6085 -1.1039  1.5272
   88CHL1  H19B 8960  -0.218   6.095   6.968 -0.3564 -0.0635  0.8223
   88CHL1  H19C 8961  -0.287   6.265   6.927 -0.0660 -0.5764  0.9957
   88CHL1    C1 8962  -0.061   6.359   6.795  0.2994 -0.0662  0.4329
   88CHL1   H1A 8963  -0.135   6.437   6.824  1.2609  0.3931  1.7431
   88CHL1   H1B 8964   0.041   6.399   6.812  0.9511 -1.9471  1.1403
   88CHL1    C2 8965  -0.070   6.323   6.642 -0.4124 -0.2818 -0.4173
   88CHL1   H2A 8966  -0.039   6.409   6.579 -0.6265  1.0318  1.1798
   88CHL1   H2B 8967  -0.174   6.293   6.617 -0.1252 -1.6591  0.0024
   88CHL1   C20 8968  -0.037   6.452   7.572 -0.0129 -0.2749  0.0632
   88CHL1   H20 8969  -0.145   6.450   7.548 -0.0138 -1.1607  0.1055
   88CHL1   C21 8970   0.001   6.602   7.546 -0.6867 -0.5549  0.6524
   88CHL1  H21A 8971  -0.030   6.675   7.624  0.1198  2.1476 -1.3677
   88CHL1  H21B 8972  -0.048   6.632   7.451  1.0374 -1.6037 -0.6181
   88CHL1  H21C 8973   0.113   6.603   7.542 -0.6697  0.0072  1.0400
   88CHL1   C22 8974  -0.038   6.415   7.724  0.5293  0.1080 -0.3701
   88CHL1  H22A 8975  -0.088   6.317   7.741  0.9216 -0.5156 -2.5719
   88CHL1  H22B 8976   0.069   6.405   7.750  0.1225 -1.3530  0.8659
   88CHL1   C23 8977  -0.107   6.522   7.823 -0.1063  0.1753  0.3867
   88CHL1  H23A 8978  -0.038   6.609   7.820 -0.4406  0.5227  1.8809
   88CHL1  H23B 8979  -0.201   6.552   7.771 -0.2119  2.3931  1.7036
   88CHL1   C24 8980  -0.126   6.485   7.968 -0.3058 -0.4003  0.1894
   88CHL1  H24A 8981  -0.219   6.426   7.978 -0.4443 -0.1560  0.3743
   88CHL1  H24B 8982  -0.048   6.417   8.008 -0.9316 -1.2569 -0.0306
   88CHL1   C25 8983  -0.130   6.612   8.061 -0.2830 -0.0918  0.1934
   88CHL1   H25 8984  -0.193   6.684   8.005  2.4901  1.2140 -1.4324
   88CHL1   C26 8985  -0.192   6.569   8.191 -0.5453 -0.1534  0.2055
   88CHL1  H26A 8986  -0.149   6.476   8.234 -0.9470 -0.4243  0.0270
   88CHL1  H26B 8987  -0.174   6.642   8.272  0.5684  0.4048 -0.5146
   88CHL1  H26C 8988  -0.300   6.545   8.177 -0.3684  0.3066 -2.5821
   88CHL1   C27 8989   0.005   6.678   8.081 -0.5099 -0.5991  0.3617
   88CHL1  H27A 8990   0.001   6.733   8.177 -0.2606  1.0095 -0.5234
   88CHL1  H27B 8991   0.082   6.598   8.096  0.1563  0.2173  1.4379
   88CHL1  H27C 8992   0.041   6.744   7.999  0.3520 -0.9319  0.4525
   89CHL1    C3 8993   1.639   2.691   6.904 -0.0264 -0.0397  0.7821
   89CHL1    H3 8994   1.542   2.644   6.932  0.1999 -1.0617 -0.0801
   89CHL1    O3 8995   1.658   2.698   6.764 -0.1669  0.2874 -0.0439
   89CHL1   H3' 8996   1.737   2.748   6.745  0.0423 -0.1577 -0.3626
   89CHL1    C4 8997   1.672   2.827   6.956  0.4002  0.2178 -0.4825
   89CHL1   H4A 8998   1.758   2.868   6.900 -0.3631  1.2754 -0.9234
   89CHL1   H4B 8999   1.584   2.888   6.925  0.0843 -0.0572 -0.1454
   89CHL1    C5 9000   1.693   2.819   7.114  0.4941 -0.2063  0.5234
   89CHL1    C6 9001   1.627   2.889   7.203  1.3868 -0.6120 -0.8633
   89CHL1    H6 9002   1.541   2.951   7.174  1.1605 -0.3784  0.2662
   89CHL1    C7 9003   1.650   2.896   7.350 -0.1002  0.8571 -0.0983
   89CHL1   H7A 9004   1.616   2.992   7.394 -1.4030 -0.6548  2.4512
   89CHL1   H7B 9005   1.576   2.824   7.391  0.8983 -1.8482 -2.6472
   89CHL1    C8 9006   1.787   2.851   7.394  0.3760 -0.6305 -0.3877
   89CHL1    H8 9007   1.856   2.929   7.355 -2.2636  1.6397 -0.7618
   89CHL1   C14 9008   1.779   2.817   7.543 -0.4966 -0.0776 -0.1354
   89CHL1   H14 9009   1.711   2.731   7.558 -2.8408  1.9253  1.4839
   89CHL1   C15 9010   1.732   2.936   7.631  0.0544  0.2244  0.2231
   89CHL1  H15A 9011   1.775   3.031   7.593 -0.3488  0.7091  0.9466
   89CHL1  H15B 9012   1.622   2.947   7.643 -0.0422  0.4575 -0.8564
   89CHL1   C16 9013   1.798   2.903   7.766  0.0058  0.3536  0.0925
   89CHL1  H16A 9014   1.853   2.996   7.791 -0.2327  0.7638 -0.8707
   89CHL1  H16B 9015   1.714   2.890   7.839 -1.9822  2.8674 -1.5747
   89CHL1   C17 9016   1.881   2.776   7.745  1.2330 -0.6866  0.4930
   89CHL1   H17 9017   1.799   2.702   7.758 -0.0488  0.7498  0.8101
   89CHL1   C13 9018   1.915   2.766   7.599  0.7103  0.2218 -0.0623
   89CHL1   C18 9019   2.030   2.859   7.562 -0.2848  0.6615 -0.0055
   89CHL1  H18A 9020   2.055   2.860   7.454  0.2764  0.8419  0.1241
   89CHL1  H18B 9021   2.005   2.964   7.588 -1.9263  0.1363  0.7264
   89CHL1  H18C 9022   2.127   2.835   7.611  1.6207  1.1291 -3.2637
   89CHL1   C12 9023   1.941   2.627   7.537 -0.5989  0.2270 -0.3158
   89CHL1  H12A 9024   2.048   2.610   7.560 -1.2525 -2.0502  1.5247
   89CHL1  H12B 9025   1.879   2.545   7.581  2.1895 -0.3017  3.1030
   89CHL1   C11 9026   1.922   2.627   7.386  0.2982 -0.0162  0.3884
   89CHL1  H11A 9027   2.020   2.664   7.348 -0.0922  1.3059  0.6208
   89CHL1  H11B 9028   1.937   2.523   7.348  2.2181  0.2246  0.3604
   89CHL1    C9 9029   1.805   2.712   7.327 -0.0499 -0.3139 -0.0604
   89CHL1    H9 9030   1.708   2.661   7.346  1.2390 -3.1065 -0.5216
   89CHL1   C10 9031   1.803   2.726   7.170  0.2750  0.1368 -0.0592
   89CHL1   C19 9032   1.944   2.778   7.128 -0.2973 -1.0850 -0.4501
   89CHL1  H19A 9033   1.984   2.857   7.196  2.0290 -0.9001 -1.9132
   89CHL1  H19B 9034   2.021   2.699   7.139  1.5039  0.8963  2.5624
   89CHL1  H19C 9035   1.944   2.817   7.024  4.6759 -0.3727 -0.4112
   89CHL1    C1 9036   1.762   2.586   7.106  0.3244 -0.3760  0.1123
   89CHL1   H1A 9037   1.843   2.513   7.123  0.0070 -0.8858 -0.5331
   89CHL1   H1B 9038   1.673   2.543   7.158 -1.9401  0.0936 -3.0701
   89CHL1    C2 9039   1.737   2.586   6.955 -0.5447  0.1783  0.1909
   89CHL1   H2A 9040   1.699   2.488   6.918  0.2667  0.3063 -1.0608
   89CHL1   H2B 9041   1.836   2.604   6.909 -0.3504  0.5614  0.7582
   89CHL1   C20 9042   1.982   2.748   7.855 -0.0273 -0.3809 -0.0846
   89CHL1   H20 9043   2.078   2.803   7.837  0.0849 -0.9455 -1.3129
   89CHL1   C21 9044   2.018   2.600   7.837  0.2896  0.3757 -0.3236
   89CHL1  H21A 9045   1.925   2.541   7.818  0.4810  0.2154 -0.7736
   89CHL1  H21B 9046   2.048   2.565   7.937 -0.5677 -0.1705 -0.2492
   89CHL1  H21C 9047   2.096   2.577   7.762  0.3875  1.1904 -0.4770
   89CHL1   C22 9048   1.930   2.781   8.001 -0.2249 -0.4059 -0.3612
   89CHL1  H22A 9049   2.010   2.763   8.076  0.3315  0.9154 -0.6150
   89CHL1  H22B 9050   1.913   2.890   8.012 -0.5720 -0.5856  1.2149
   89CHL1   C23 9051   1.805   2.708   8.043  0.0170  0.1141  0.0567
   89CHL1  H23A 9052   1.719   2.739   7.980  0.7038  0.2078 -0.8593
   89CHL1  H23B 9053   1.840   2.604   8.026 -0.3241 -0.1888  1.1573
   89CHL1   C24 9054   1.781   2.716   8.190  0.1751  0.3327  0.2614
   89CHL1  H24A 9055   1.872   2.699   8.251 -0.4306 -1.0402  0.8224
   89CHL1  H24B 9056   1.725   2.810   8.206 -1.4206 -0.0648 -2.3758
   89CHL1   C25 9057   1.692   2.601   8.246 -0.4335 -0.0104 -0.2748
   89CHL1   H25 9058   1.745   2.504   8.230 -2.3721 -1.3219  0.7907
   89CHL1   C26 9059   1.701   2.625   8.398 -0.9541  1.0269 -0.0452
   89CHL1  H26A 9060   1.656   2.545   8.460 -0.7716  0.9609  0.0036
   89CHL1  H26B 9061   1.805   2.632   8.437 -1.8122  0.5370  2.5093
   89CHL1  H26C 9062   1.641   2.716   8.419  2.4696  2.8426  2.9976
   89CHL1   C27 9063   1.546   2.589   8.187 -0.2002 -0.0963 -0.1075
   89CHL1  H27A 9064   1.483   2.521   8.249 -1.1498  1.0434  0.2048
   89CHL1  H27B 9065   1.500   2.689   8.178 -1.0178 -0.3414  1.0262
   89CHL1  H27C 9066   1.554   2.559   8.080  0.2305  1.6564 -0.5884
   90CHL1    C3 9067   3.236   4.400   6.947  0.5760 -0.0595 -0.3716
   90CHL1    H3 9068   3.340   4.405   6.983 -0.9972  2.3467  4.8368
   90CHL1    O3 9069   3.221   4.436   6.810 -0.1765  0.5603 -0.2139
   90CHL1   H3' 9070   3.133   4.413   6.780 -0.1793 -0.3469  0.4443
   90CHL1    C4 9071   3.180   4.255   6.975  0.6640  0.2739  0.3779
   90CHL1   H4A 9072   3.074   4.248   6.945  0.1483 -0.6226  2.2773
   90CHL1   H4B 9073   3.225   4.175   6.912 -1.0887 -0.2868 -0.2059
   90CHL1    C5 9074   3.182   4.223   7.122 -0.3916  0.9131 -0.1264
   90CHL1    C6 9075   3.242   4.103   7.158  0.6065  0.5230  0.1036
   90CHL1    H6 9076   3.271   4.028   7.083 -1.0214 -0.8762  0.7940
   90CHL1    C7 9077   3.250   4.063   7.299  0.5111  0.1713  0.2480
   90CHL1   H7A 9078   3.216   3.957   7.302 -2.9262  0.9987 -2.4153
   90CHL1   H7B 9079   3.348   4.080   7.348  1.0533  0.9683 -1.0654
   90CHL1    C8 9080   3.146   4.141   7.382  0.6320 -0.1051 -0.5737
   90CHL1    H8 9081   3.047   4.100   7.355  0.3906 -0.9210  1.3437
   90CHL1   C14 9082   3.179   4.118   7.531  0.4597 -0.1937 -0.4119
   90CHL1   H14 9083   3.280   4.161   7.550  0.2519 -1.0126  3.3810
   90CHL1   C15 9084   3.202   3.973   7.573 -0.0005  0.7925 -0.4174
   90CHL1  H15A 9085   3.138   3.898   7.522  0.2275 -0.2097  0.7127
   90CHL1  H15B 9086   3.306   3.945   7.548  0.1817  1.6812 -0.6663
   90CHL1   C16 9087   3.168   3.972   7.725  0.4812  0.3393  0.5217
   90CHL1  H16A 9088   3.081   3.906   7.744 -0.1011  0.9344 -0.0368
   90CHL1  H16B 9089   3.256   3.930   7.779  1.8118  0.3779 -1.5057
   90CHL1   C17 9090   3.128   4.114   7.763 -1.1787 -0.9624  0.4550
   90CHL1   H17 9091   3.223   4.168   7.784 -0.8291 -1.5978  0.5353
   90CHL1   C13 9092   3.081   4.180   7.627 -0.7439  0.1429  0.1253
   90CHL1   C18 9093   2.936   4.141   7.589  0.0554  0.4307 -0.4460
   90CHL1  H18A 9094   2.933   4.030   7.593  0.8610  0.4254  2.2655
   90CHL1  H18B 9095   2.869   4.174   7.672  0.1500  0.8757 -0.5442
   90CHL1  H18C 9096   2.906   4.175   7.488 -3.6538  0.7591  0.6248
   90CHL1   C12 9097   3.106   4.330   7.615 -0.0447  0.5645 -0.6692
   90CHL1  H12A 9098   3.051   4.392   7.690 -1.1597 -1.8237  0.5731
   90CHL1  H12B 9099   3.213   4.358   7.630 -0.6835  2.7952  0.1618
   90CHL1   C11 9100   3.075   4.375   7.469 -0.0364  0.5088  0.4680
   90CHL1  H11A 9101   2.965   4.368   7.455 -0.1009  1.6619  0.3333
   90CHL1  H11B 9102   3.097   4.483   7.459 -1.2349  0.8402  1.2159
   90CHL1    C9 9103   3.152   4.294   7.362  0.1626 -0.6204  0.6319
   90CHL1    H9 9104   3.254   4.326   7.392 -0.6179  2.1394  0.6739
   90CHL1   C10 9105   3.116   4.324   7.215 -0.1202 -0.5367 -0.1174
   90CHL1   C19 9106   2.965   4.316   7.186  0.6844 -0.0894 -0.3773
   90CHL1  H19A 9107   2.924   4.217   7.212 -1.0269  0.9728  1.2650
   90CHL1  H19B 9108   2.897   4.383   7.243  0.4950  0.9740 -1.7998
   90CHL1  H19C 9109   2.942   4.326   7.078 -0.1523 -0.2486 -0.2234
   90CHL1    C1 9110   3.176   4.456   7.178 -0.1602  0.7334  0.3723
   90CHL1   H1A 9111   3.134   4.536   7.242 -1.7746 -1.0535  1.6688
   90CHL1   H1B 9112   3.284   4.454   7.203 -0.1674  0.6818  0.3982
   90CHL1    C2 9113   3.159   4.502   7.031  0.1494  0.6383 -0.0963
   90CHL1   H2A 9114   3.178   4.610   7.017  0.6229  0.4000 -1.4085
   90CHL1   H2B 9115   3.051   4.493   7.005 -0.6553 -0.5883  3.1899
   90CHL1   C20 9116   3.040   4.125   7.886 -0.7079 -0.3606 -0.4364
   90CHL1   H20 9117   2.942   4.076   7.866 -1.1338  0.7195 -1.0960
   90CHL1   C21 9118   2.993   4.277   7.921 -0.3862 -0.0229 -0.3308
   90CHL1  H21A 9119   2.935   4.323   7.838  1.3321 -0.0944 -1.6234
   90CHL1  H21B 9120   3.086   4.335   7.938  0.0067 -1.5012  3.3496
   90CHL1  H21C 9121   2.940   4.289   8.017 -0.0904  1.5605 -0.3380
   90CHL1   C22 9122   3.095   4.063   8.015  0.3953  0.1861  0.6455
   90CHL1  H22A 9123   3.029   4.081   8.103  0.8480 -2.1132  1.5315
   90CHL1  H22B 9124   3.102   3.953   8.008 -1.6453  0.0352  0.4193
   90CHL1   C23 9125   3.236   4.125   8.055  0.1223 -0.5132  0.4189
   90CHL1  H23A 9126   3.306   4.097   7.973 -1.0776  1.5423 -1.4244
   90CHL1  H23B 9127   3.223   4.233   8.078 -1.4393 -0.1824 -1.6731
   90CHL1   C24 9128   3.301   4.064   8.179 -0.5683  0.2161 -0.0998
   90CHL1  H24A 9129   3.406   4.100   8.181 -0.6688  0.5926 -1.2196
   90CHL1  H24B 9130   3.256   4.098   8.274  1.5541 -1.7800  1.7563
   90CHL1   C25 9131   3.295   3.915   8.204 -0.0651  0.2427  0.6488
   90CHL1   H25 9132   3.192   3.884   8.175 -0.7053  1.3234  1.6801
   90CHL1   C26 9133   3.390   3.840   8.117 -0.3970 -0.0420  0.0344
   90CHL1  H26A 9134   3.494   3.861   8.148  0.1779 -1.6342 -0.7109
   90CHL1  H26B 9135   3.375   3.733   8.143  0.8558  0.0488  1.2231
   90CHL1  H26C 9136   3.388   3.864   8.008  0.8037  0.5211  0.1214
   90CHL1   C27 9137   3.311   3.875   8.346 -0.2045 -0.6451 -0.7221
   90CHL1  H27A 9138   3.330   3.766   8.356  0.6953 -0.4405 -0.1288
   90CHL1  H27B 9139   3.401   3.923   8.389 -0.7126  1.5823 -2.0069
   90CHL1  H27C 9140   3.231   3.917   8.410  1.6584  2.6212 -0.2895
   91CHL1    C3 9141   3.654   4.094   6.807  0.8537  0.3575  0.5303
   91CHL1    H3 9142   3.546   4.112   6.795  0.8936 -0.8945 -2.4808
   91CHL1    O3 9143   3.717   4.084   6.683  0.0184 -0.0445 -0.4507
   91CHL1   H3' 9144   3.710   3.990   6.665  0.1721  0.4443 -3.7646
   91CHL1    C4 9145   3.707   4.218   6.876  0.0867 -0.2365 -0.6017
   91CHL1   H4A 9146   3.817   4.216   6.882  0.0651  0.2336  0.0839
   91CHL1   H4B 9147   3.672   4.312   6.827 -2.8313 -0.7197  0.3460
   91CHL1    C5 9148   3.660   4.227   7.025  0.2313  0.1886  0.1236
   91CHL1    C6 9149   3.594   4.339   7.075  0.9654  0.3765 -0.2599
   91CHL1    H6 9150   3.558   4.419   7.009 -0.0728 -2.3329 -3.2072
   91CHL1    C7 9151   3.561   4.348   7.224 -0.3122  0.1721  0.2810
   91CHL1   H7A 9152   3.584   4.453   7.254 -2.5443  1.6767 -2.7210
   91CHL1   H7B 9153   3.454   4.333   7.247 -0.9210  1.7815 -1.2922
   91CHL1    C8 9154   3.649   4.249   7.316 -0.1878 -0.6767  0.2424
   91CHL1    H8 9155   3.748   4.298   7.299 -0.3994 -1.0679 -2.7444
   91CHL1   C14 9156   3.598   4.260   7.457 -0.0383  0.4325 -0.2161
   91CHL1   H14 9157   3.495   4.221   7.442  0.8338 -2.4130  0.5373
   91CHL1   C15 9158   3.583   4.402   7.519 -0.0595  0.2888  0.6078
   91CHL1  H15A 9159   3.666   4.471   7.489  3.1178 -3.5622 -0.3229
   91CHL1  H15B 9160   3.485   4.453   7.511  0.2679  1.3944  2.7175
   91CHL1   C16 9161   3.597   4.361   7.672  0.6798 -0.2220  0.5630
   91CHL1  H16A 9162   3.696   4.403   7.699  0.6274  0.4257 -0.2187
   91CHL1  H16B 9163   3.517   4.403   7.736  1.0013 -0.7041  1.2948
   91CHL1   C17 9164   3.597   4.200   7.687  0.1335  0.2359 -0.4538
   91CHL1   H17 9165   3.488   4.178   7.683  0.0879  0.2845  0.3794
   91CHL1   C13 9166   3.658   4.152   7.553  0.1259  0.0386  0.8322
   91CHL1   C18 9167   3.812   4.166   7.551 -0.2041  0.1038 -0.5904
   91CHL1  H18A 9168   3.854   4.077   7.602 -0.4336  0.4220  0.1735
   91CHL1  H18B 9169   3.838   4.178   7.443 -2.6484  1.7805 -1.1059
   91CHL1  H18C 9170   3.858   4.249   7.609  2.6006 -0.9732 -1.1070
   91CHL1   C12 9171   3.623   4.007   7.502 -0.3483  0.3972 -0.7793
   91CHL1  H12A 9172   3.673   3.929   7.563  0.8774  0.7936 -1.2396
   91CHL1  H12B 9173   3.514   3.986   7.507 -0.4904  1.1186 -0.7351
   91CHL1   C11 9174   3.677   3.995   7.358  0.1134  0.2349 -0.2770
   91CHL1  H11A 9175   3.785   3.973   7.373  0.3527 -0.9444 -3.1106
   91CHL1  H11B 9176   3.629   3.904   7.316  0.9356  1.1536 -3.5629
   91CHL1    C9 9177   3.641   4.107   7.260 -0.2115  0.0541 -0.8570
   91CHL1    H9 9178   3.532   4.088   7.254 -0.2439  0.0255 -0.3040
   91CHL1   C10 9179   3.701   4.096   7.110 -0.2129 -0.3871 -0.1430
   91CHL1   C19 9180   3.857   4.071   7.121  0.0436 -0.1179 -0.4732
   91CHL1  H19A 9181   3.877   3.973   7.169 -1.9623 -0.8849 -1.0983
   91CHL1  H19B 9182   3.900   4.072   7.018 -1.1009 -0.2233 -0.9685
   91CHL1  H19C 9183   3.900   4.152   7.183  0.6660  1.1891 -2.4927
   91CHL1    C1 9184   3.636   3.980   7.038  0.8144  0.0295 -0.4817
   91CHL1   H1A 9185   3.673   3.886   7.084  0.2675 -0.4815 -1.0391
   91CHL1   H1B 9186   3.526   3.981   7.053  0.8099  0.2679 -0.5289
   91CHL1    C2 9187   3.682   3.964   6.891  0.3900 -0.1032  0.2492
   91CHL1   H2A 9188   3.625   3.886   6.836 -1.1900  0.0562  1.5865
   91CHL1   H2B 9189   3.792   3.954   6.886  0.2457 -1.6738 -3.8323
   91CHL1   C20 9190   3.657   4.161   7.823  0.0170 -0.3261 -0.3566
   91CHL1   H20 9191   3.768   4.154   7.828  0.0242  0.1438  0.1466
   91CHL1   C21 9192   3.612   4.016   7.862  0.7221 -0.3597  0.3574
   91CHL1  H21A 9193   3.588   3.961   7.769 -0.2616  0.9489 -0.1958
   91CHL1  H21B 9194   3.520   4.027   7.924  0.4510 -1.5916  0.1984
   91CHL1  H21C 9195   3.690   3.964   7.923  1.0402  1.0653  1.2065
   91CHL1   C22 9196   3.621   4.260   7.939 -0.9119  0.1401  0.0287
   91CHL1  H22A 9197   3.671   4.355   7.910 -3.3172  0.6120 -3.1530
   91CHL1  H22B 9198   3.510   4.264   7.943 -0.8989 -0.1509  0.9079
   91CHL1   C23 9199   3.672   4.217   8.082  0.3667 -0.2121  0.0394
   91CHL1  H23A 9200   3.621   4.127   8.121  0.3578  0.7435  2.4258
   91CHL1  H23B 9201   3.780   4.194   8.081  0.5022  0.3821  0.2647
   91CHL1   C24 9202   3.630   4.322   8.187 -0.2518 -0.3621 -0.5250
   91CHL1  H24A 9203   3.679   4.416   8.153 -0.0578  0.1986  1.2202
   91CHL1  H24B 9204   3.520   4.331   8.180 -0.1211  1.0168 -1.0514
   91CHL1   C25 9205   3.681   4.293   8.333  0.2000  0.3648  0.0923
   91CHL1   H25 9206   3.636   4.196   8.363 -1.2750  1.3332  1.2025
   91CHL1   C26 9207   3.834   4.290   8.336 -0.1053  0.1150  0.5424
   91CHL1  H26A 9208   3.866   4.380   8.280 -3.5709 -0.0731 -2.0502
   91CHL1  H26B 9209   3.878   4.274   8.437 -1.0191 -0.9688  0.7847
   91CHL1  H26C 9210   3.862   4.199   8.279 -4.4359 -0.7943 -0.4769
   91CHL1   C27 9211   3.635   4.402   8.439 -0.1430  0.8007  0.2306
   91CHL1  H27A 9212   3.659   4.504   8.402  0.5509  0.2454 -0.9273
   91CHL1  H27B 9213   3.526   4.399   8.457 -0.2839  0.1629 -0.6565
   91CHL1  H27C 9214   3.684   4.375   8.535 -0.1003  0.1134  0.0235
   92CHL1    C3 9215   5.464   1.162   6.680 -0.5321 -0.0696  0.2923
   92CHL1    H3 9216   5.445   1.054   6.662 -2.4249  0.1614  0.7019
   92CHL1    O3 9217   5.503   1.218   6.549  0.0790  0.0481 -0.0616
   92CHL1   H3' 9218   5.583   1.166   6.536 -1.6260 -3.3465  1.5156
   92CHL1    C4 9219   5.345   1.242   6.730 -0.2676 -0.0987  0.4686
   92CHL1   H4A 9220   5.370   1.349   6.712 -4.1221  0.4251 -3.4866
   92CHL1   H4B 9221   5.262   1.218   6.660 -1.8742 -1.6679  2.7894
   92CHL1    C5 9222   5.317   1.216   6.877 -0.2048  0.5904  0.2915
   92CHL1    C6 9223   5.194   1.172   6.903  0.2534 -0.4169 -1.2301
   92CHL1    H6 9224   5.115   1.172   6.826  0.2753  0.3215 -1.2640
   92CHL1    C7 9225   5.152   1.146   7.045 -0.3953  0.0295 -0.8969
   92CHL1   H7A 9226   5.058   1.203   7.063  0.3191  1.1732 -0.7070
   92CHL1   H7B 9227   5.125   1.040   7.066 -0.4703  0.4554  1.3841
   92CHL1    C8 9228   5.245   1.202   7.160 -0.2188 -0.1590  0.8643
   92CHL1    H8 9229   5.242   1.313   7.163  1.1865  0.0085 -1.3277
   92CHL1   C14 9230   5.207   1.144   7.292 -0.2703 -0.2755  0.3839
   92CHL1   H14 9231   5.223   1.034   7.290 -0.6790 -0.3266 -1.1123
   92CHL1   C15 9232   5.059   1.169   7.347  0.2441  0.2361  0.2086
   92CHL1  H15A 9233   5.033   1.276   7.329 -1.8696 -0.3485 -0.5790
   92CHL1  H15B 9234   4.979   1.105   7.303 -0.2151  1.7541 -1.2793
   92CHL1   C16 9235   5.069   1.150   7.501 -0.8440 -0.2066  1.0547
   92CHL1  H16A 9236   5.034   1.244   7.548  0.7495  0.6552  0.6132
   92CHL1  H16B 9237   4.999   1.072   7.535 -0.0956 -0.6091  1.7073
   92CHL1   C17 9238   5.218   1.123   7.527 -0.3020  1.1551 -1.0446
   92CHL1   H17 9239   5.226   1.013   7.514  0.7508  1.0948 -0.0662
   92CHL1   C13 9240   5.298   1.182   7.406  0.2809  0.0765  0.1300
   92CHL1   C18 9241   5.307   1.338   7.426 -0.5313 -0.2484  0.3122
   92CHL1  H18A 9242   5.382   1.365   7.504  1.3665 -2.0092 -0.8087
   92CHL1  H18B 9243   5.341   1.391   7.335 -0.1006 -1.4901 -0.2719
   92CHL1  H18C 9244   5.207   1.381   7.448 -0.0801  0.9249  0.1426
   92CHL1   C12 9245   5.436   1.128   7.374  0.5829 -0.4801 -0.0816
   92CHL1  H12A 9246   5.497   1.155   7.463 -1.5281 -0.8215  1.5447
   92CHL1  H12B 9247   5.438   1.017   7.378  0.6109 -0.4483  1.2185
   92CHL1   C11 9248   5.487   1.190   7.245 -0.8420 -0.5903 -0.1634
   92CHL1  H11A 9249   5.509   1.297   7.267 -1.9682 -0.3307 -0.2089
   92CHL1  H11B 9250   5.584   1.141   7.224 -0.4054  0.0506  0.3015
   92CHL1    C9 9251   5.388   1.163   7.124 -0.5784  0.3312 -0.3629
   92CHL1    H9 9252   5.387   1.053   7.113 -0.2341  0.4024 -1.1729
   92CHL1   C10 9253   5.432   1.219   6.985  0.0882 -0.4152  0.3666
   92CHL1   C19 9254   5.488   1.362   7.011 -0.0553 -0.6708  0.1519
   92CHL1  H19A 9255   5.412   1.425   7.061  2.4998  3.0909 -0.3338
   92CHL1  H19B 9256   5.579   1.362   7.075  0.4105  0.2102 -0.4858
   92CHL1  H19C 9257   5.520   1.411   6.916 -1.9417  1.7401  0.6560
   92CHL1    C1 9258   5.545   1.134   6.919  0.1609  0.0714  0.3690
   92CHL1   H1A 9259   5.638   1.148   6.977  0.1751 -0.1598  0.4051
   92CHL1   H1B 9260   5.509   1.029   6.918  2.6285 -0.8536  1.5674
   92CHL1    C2 9261   5.584   1.174   6.775  0.2088 -0.3097 -0.0959
   92CHL1   H2A 9262   5.678   1.123   6.744  0.1109  0.5561 -1.9608
   92CHL1   H2B 9263   5.626   1.277   6.787  1.3726 -0.8425  0.6497
   92CHL1   C20 9264   5.278   1.155   7.665 -0.5813  0.1106 -0.1569
   92CHL1   H20 9265   5.387   1.171   7.648 -0.4222  0.9147  1.3798
   92CHL1   C21 9266   5.259   1.028   7.755  0.5665  0.8015  0.2542
   92CHL1  H21A 9267   5.152   1.020   7.784  0.6290 -0.4858  0.1954
   92CHL1  H21B 9268   5.328   1.023   7.842  1.0009  0.3716 -0.1095
   92CHL1  H21C 9269   5.271   0.935   7.696 -2.8224 -0.8052  1.7875
   92CHL1   C22 9270   5.230   1.284   7.740  0.6117 -0.0541 -0.4740
   92CHL1  H22A 9271   5.243   1.374   7.676  2.8301  1.3312  1.7312
   92CHL1  H22B 9272   5.119   1.280   7.737  0.6120  0.4081 -2.4396
   92CHL1   C23 9273   5.267   1.302   7.889  0.7507 -0.0510 -0.0655
   92CHL1  H23A 9274   5.236   1.207   7.939 -0.8028 -0.2396 -1.2996
   92CHL1  H23B 9275   5.378   1.302   7.893  0.8250 -1.1722 -1.2663
   92CHL1   C24 9276   5.208   1.430   7.946  0.4049  0.4287  0.5642
   92CHL1  H24A 9277   5.238   1.523   7.894 -2.0940  0.5696 -0.7405
   92CHL1  H24B 9278   5.099   1.421   7.926  0.2684  0.2797  1.3421
   92CHL1   C25 9279   5.225   1.442   8.101 -0.5755 -0.0874  0.5442
   92CHL1   H25 9280   5.210   1.341   8.145  1.5296 -0.8959 -0.4628
   92CHL1   C26 9281   5.368   1.461   8.156 -0.0995 -0.3530  0.2209
   92CHL1  H26A 9282   5.402   1.563   8.129  0.3940 -0.8542 -1.1203
   92CHL1  H26B 9283   5.382   1.448   8.265  0.9329  0.6262  0.2107
   92CHL1  H26C 9284   5.433   1.382   8.113 -1.0012 -1.0878  0.1719
   92CHL1   C27 9285   5.127   1.546   8.163  0.8084 -0.3219  0.2923
   92CHL1  H27A 9286   5.025   1.524   8.124  1.3457 -1.6349 -0.4355
   92CHL1  H27B 9287   5.122   1.529   8.273  1.9725 -0.1231  0.3888
   92CHL1  H27C 9288   5.160   1.650   8.143 -0.5829 -0.4075 -3.1352
   93CHL1    C3 9289   3.853   4.616   6.857  0.2552 -0.0199  0.2393
   93CHL1    H3 9290   3.769   4.544   6.867  1.0800 -1.3583 -1.7643
   93CHL1    O3 9291   3.858   4.665   6.731  0.3186 -0.5916  0.2239
   93CHL1   H3' 9292   3.943   4.710   6.725 -1.0007  2.2052  0.6413
   93CHL1    C4 9293   3.853   4.736   6.948  0.1787  0.1063  0.0473
   93CHL1   H4A 9294   3.931   4.805   6.910 -0.3307 -0.0202 -1.2579
   93CHL1   H4B 9295   3.757   4.792   6.936  0.6341  0.7311 -0.7332
   93CHL1    C5 9296   3.877   4.697   7.102 -0.0083 -0.4914  0.4615
   93CHL1    C6 9297   3.808   4.752   7.204  1.1215  0.5137 -0.1175
   93CHL1    H6 9298   3.721   4.813   7.175 -0.9948 -2.2828 -0.0727
   93CHL1    C7 9299   3.840   4.732   7.350  0.1860 -0.7310  0.2942
   93CHL1   H7A 9300   3.865   4.835   7.383 -1.0288  1.1756 -4.0873
   93CHL1   H7B 9301   3.751   4.700   7.408  2.4329 -3.4668  2.4923
   93CHL1    C8 9302   3.973   4.660   7.374 -0.2372 -0.1616  0.6866
   93CHL1    H8 9303   4.060   4.728   7.361 -0.0725 -0.3357  0.8753
   93CHL1   C14 9304   3.976   4.605   7.514 -0.4829  0.0330  0.1067
   93CHL1   H14 9305   3.910   4.515   7.511 -1.6701  0.8227  1.2184
   93CHL1   C15 9306   3.934   4.679   7.638  0.5176 -0.4765 -0.5219
   93CHL1  H15A 9307   3.988   4.776   7.645 -1.0828  0.3932  0.4941
   93CHL1  H15B 9308   3.826   4.705   7.638  0.3249 -1.2109 -1.6403
   93CHL1   C16 9309   3.969   4.592   7.750  0.0053  0.9308 -0.2875
   93CHL1  H16A 9310   4.020   4.648   7.831  0.4962  3.0906 -1.9879
   93CHL1  H16B 9311   3.879   4.544   7.795 -0.0955 -0.2248 -1.6518
   93CHL1   C17 9312   4.072   4.483   7.698  0.2196  0.1317  0.3234
   93CHL1   H17 9313   4.007   4.395   7.677  0.8272 -0.3400  0.3687
   93CHL1   C13 9314   4.109   4.540   7.552 -0.6689  0.4395 -0.8531
   93CHL1   C18 9315   4.216   4.648   7.573 -0.6939  0.2870  0.0696
   93CHL1  H18A 9316   4.225   4.711   7.483  0.0565 -0.4502 -0.3909
   93CHL1  H18B 9317   4.197   4.710   7.663 -2.0005  1.5409 -1.0400
   93CHL1  H18C 9318   4.316   4.602   7.585 -0.8720 -0.0939  0.1112
   93CHL1   C12 9319   4.141   4.431   7.453 -0.7734 -0.1980  1.2836
   93CHL1  H12A 9320   4.245   4.395   7.465 -0.3675 -0.2939 -1.7709
   93CHL1  H12B 9321   4.074   4.343   7.465  0.9649 -1.2518  4.1644
   93CHL1   C11 9322   4.134   4.478   7.302  0.0324 -0.3117  0.0430
   93CHL1  H11A 9323   4.217   4.552   7.297 -0.8713  0.7137 -0.3671
   93CHL1  H11B 9324   4.147   4.396   7.229 -0.0247  1.3612 -1.9437
   93CHL1    C9 9325   3.997   4.551   7.266  0.1813  0.0449 -0.4895
   93CHL1    H9 9326   3.921   4.470   7.267  0.4344 -0.1949  0.3758
   93CHL1   C10 9327   4.003   4.602   7.124  0.2055  0.2393 -0.1399
   93CHL1   C19 9328   4.129   4.694   7.102  0.3268 -0.2797  0.0475
   93CHL1  H19A 9329   4.120   4.759   7.012 -1.5674  1.6808  1.5486
   93CHL1  H19B 9330   4.148   4.768   7.182  2.2849  2.3548 -2.6340
   93CHL1  H19C 9331   4.224   4.637   7.092  0.2702 -0.1167 -1.7481
   93CHL1    C1 9332   3.987   4.480   7.031 -0.4038  0.5279 -0.6140
   93CHL1   H1A 9333   4.068   4.405   7.045  0.5096  1.7552  1.1064
   93CHL1   H1B 9334   3.895   4.436   7.074  1.4854 -0.5977  2.6475
   93CHL1    C2 9335   3.972   4.518   6.882 -0.0777 -0.4669  0.3882
   93CHL1   H2A 9336   3.961   4.430   6.816  1.3581  0.2310 -0.8399
   93CHL1   H2B 9337   4.067   4.569   6.854 -0.5956  0.0698 -0.4482
   93CHL1   C20 9338   4.184   4.437   7.793  0.2888  0.2867  0.0875
   93CHL1   H20 9339   4.235   4.534   7.812 -1.1583  0.8841  1.1008
   93CHL1   C21 9340   4.269   4.335   7.714 -0.6056  0.9206  0.3469
   93CHL1  H21A 9341   4.204   4.273   7.648  1.2739 -0.7009 -0.0897
   93CHL1  H21B 9342   4.330   4.265   7.775  0.5166 -0.6483 -2.3699
   93CHL1  H21C 9343   4.336   4.384   7.640  2.0849  0.6703  2.4459
   93CHL1   C22 9344   4.132   4.381   7.925  0.5553  0.1572 -0.3496
   93CHL1  H22A 9345   4.080   4.467   7.971 -0.1898 -0.5917  0.2388
   93CHL1  H22B 9346   4.051   4.306   7.922 -2.2253  2.9829 -2.6739
   93CHL1   C23 9347   4.247   4.341   8.021 -0.2003  0.2326 -0.8559
   93CHL1  H23A 9348   4.295   4.247   7.986 -1.0639  0.4301 -2.7427
   93CHL1  H23B 9349   4.325   4.419   8.026 -0.2967  0.3737 -1.4112
   93CHL1   C24 9350   4.187   4.305   8.156  0.2851 -0.2376  0.1162
   93CHL1  H24A 9351   4.112   4.384   8.179  1.7153  1.0824  0.4150
   93CHL1  H24B 9352   4.138   4.206   8.160 -2.0753  0.8955  0.9438
   93CHL1   C25 9353   4.294   4.306   8.269  0.2053  0.0365 -1.2832
   93CHL1   H25 9354   4.349   4.402   8.257  0.1577  0.1586 -0.5295
   93CHL1   C26 9355   4.223   4.311   8.412 -1.2485 -0.1846 -0.2327
   93CHL1  H26A 9356   4.139   4.241   8.433 -0.7938 -1.1095 -1.3842
   93CHL1  H26B 9357   4.304   4.303   8.488 -1.8501  0.5164  0.4965
   93CHL1  H26C 9358   4.182   4.414   8.419 -1.6482 -0.4306  1.7994
   93CHL1   C27 9359   4.383   4.188   8.263  0.2365  0.4832 -1.1001
   93CHL1  H27A 9360   4.471   4.191   8.331 -0.4990 -0.6159 -0.0517
   93CHL1  H27B 9361   4.324   4.099   8.294 -3.1284  3.5370  2.4452
   93CHL1  H27C 9362   4.436   4.187   8.166 -0.9051  0.7160 -1.7362
   94CHL1    C3 9363   6.412   0.824   6.884  0.0627  0.2764  0.9143
   94CHL1    H3 9364   6.432   0.932   6.869 -1.5393  0.1921 -3.0676
   94CHL1    O3 9365   6.422   0.766   6.758  0.0353 -0.5368  0.5783
   94CHL1   H3' 9366   6.338   0.722   6.739  0.2194 -1.4076  1.6937
   94CHL1    C4 9367   6.521   0.773   6.980  0.6890  0.0142 -0.3860
   94CHL1   H4A 9368   6.517   0.664   6.996  1.8555  0.0382  0.2627
   94CHL1   H4B 9369   6.626   0.793   6.946  0.5475 -0.5139 -1.1574
   94CHL1    C5 9370   6.511   0.810   7.129  0.4995  0.4995 -0.5462
   94CHL1    C6 9371   6.618   0.854   7.207 -0.0665  0.7091 -0.4997
   94CHL1    H6 9372   6.718   0.854   7.162 -0.4005 -0.7978 -1.3195
   94CHL1    C7 9373   6.609   0.899   7.353  0.6710 -0.1336 -0.1245
   94CHL1   H7A 9374   6.680   0.869   7.433 -1.0039  1.3621  1.9989
   94CHL1   H7B 9375   6.625   1.009   7.349  1.6646 -0.2485  0.3481
   94CHL1    C8 9376   6.467   0.881   7.414 -0.5342 -0.3728 -1.2427
   94CHL1    H8 9377   6.477   0.777   7.450  0.9664 -0.3345 -1.4983
   94CHL1   C14 9378   6.445   0.974   7.530 -0.1040  0.3899 -0.1028
   94CHL1   H14 9379   6.440   1.069   7.474 -0.0273  0.6218  0.2803
   94CHL1   C15 9380   6.566   0.999   7.619  0.7749 -0.0753 -0.7505
   94CHL1  H15A 9381   6.619   0.909   7.657  2.0632  1.0998  0.3186
   94CHL1  H15B 9382   6.637   1.074   7.579 -0.1068  1.7829  0.9989
   94CHL1   C16 9383   6.497   1.052   7.746  0.3938 -0.1400  0.7664
   94CHL1  H16A 9384   6.525   0.973   7.819 -0.6647 -3.9496 -2.5194
   94CHL1  H16B 9385   6.535   1.150   7.779 -0.8841  0.9511 -0.8201
   94CHL1   C17 9386   6.346   1.065   7.723  0.1491  0.0634 -0.3598
   94CHL1   H17 9387   6.321   1.157   7.666 -2.1003 -0.6240 -0.5860
   94CHL1   C13 9388   6.320   0.958   7.611 -0.2661 -0.1930 -0.2069
   94CHL1   C18 9389   6.315   0.814   7.669  0.2666  0.0949  0.3237
   94CHL1  H18A 9390   6.340   0.738   7.592  0.5805  0.7104 -0.1829
   94CHL1  H18B 9391   6.390   0.800   7.750  0.9547  0.7343 -0.1928
   94CHL1  H18C 9392   6.211   0.801   7.705 -1.2227  1.6831 -2.9923
   94CHL1   C12 9393   6.206   0.976   7.516  0.7691  0.0391 -0.3008
   94CHL1  H12A 9394   6.114   0.965   7.576  0.8300 -2.4016 -0.5635
   94CHL1  H12B 9395   6.224   1.076   7.471 -0.6529 -0.2085 -1.4978
   94CHL1   C11 9396   6.215   0.879   7.394 -0.4441 -0.2246  0.6645
   94CHL1  H11A 9397   6.221   0.772   7.424  0.8187 -0.9973 -2.0015
   94CHL1  H11B 9398   6.130   0.894   7.325 -0.4318 -1.3955  0.3806
   94CHL1    C9 9399   6.348   0.896   7.321  0.4286 -0.6621  0.3655
   94CHL1    H9 9400   6.347   1.003   7.291 -1.0928 -1.0677 -1.1761
   94CHL1   C10 9401   6.366   0.808   7.192  0.1984 -0.8233  0.9651
   94CHL1   C19 9402   6.335   0.659   7.207  0.3702  0.2894 -0.2801
   94CHL1  H19A 9403   6.402   0.613   7.283 -0.5786 -0.0522  0.3757
   94CHL1  H19B 9404   6.228   0.658   7.236  0.2645  4.7572  0.2098
   94CHL1  H19C 9405   6.338   0.601   7.113 -0.9614 -0.9814  0.4159
   94CHL1    C1 9406   6.259   0.864   7.083 -0.7639 -0.4124 -0.0522
   94CHL1   H1A 9407   6.154   0.844   7.113 -1.4879  0.4868 -1.8163
   94CHL1   H1B 9408   6.264   0.975   7.071 -1.1313 -0.4944 -1.0837
   94CHL1    C2 9409   6.266   0.815   6.942 -0.1579 -0.1719  0.6102
   94CHL1   H2A 9410   6.206   0.877   6.872 -0.7929  1.4691  2.5221
   94CHL1   H2B 9411   6.233   0.709   6.935  1.1674 -0.5608 -0.0883
   94CHL1   C20 9412   6.267   1.050   7.858 -0.7295  0.0912 -0.1024
   94CHL1   H20 9413   6.302   0.954   7.902 -1.9144  0.3690  1.5141
   94CHL1   C21 9414   6.119   1.039   7.819  0.0578 -0.6219 -1.1559
   94CHL1  H21A 9415   6.085   1.110   7.741 -2.3524  0.4007  0.7001
   94CHL1  H21B 9416   6.062   1.071   7.909  1.3567  0.6701 -0.7530
   94CHL1  H21C 9417   6.085   0.936   7.795  1.1765 -1.6732  1.4034
   94CHL1   C22 9418   6.305   1.163   7.958 -0.6111 -0.4306 -0.0540
   94CHL1  H22A 9419   6.413   1.162   7.985  0.2467  2.0798 -2.8554
   94CHL1  H22B 9420   6.288   1.262   7.912 -0.9450 -1.1539 -1.5512
   94CHL1   C23 9421   6.223   1.148   8.091  0.5896 -0.5692  0.1379
   94CHL1  H23A 9422   6.117   1.176   8.074  0.6859 -0.6312 -0.5676
   94CHL1  H23B 9423   6.235   1.043   8.127  4.1782 -0.0727  0.8201
   94CHL1   C24 9424   6.270   1.254   8.192  0.0208  0.4906  0.4226
   94CHL1  H24A 9425   6.380   1.236   8.198  0.0928  0.7728  0.0462
   94CHL1  H24B 9426   6.274   1.356   8.148 -0.8357  0.2128 -0.3152
   94CHL1   C25 9427   6.205   1.243   8.336 -0.0357 -0.0644  1.2342
   94CHL1   H25 9428   6.258   1.312   8.406  0.1608  1.9796 -0.8119
   94CHL1   C26 9429   6.061   1.283   8.321  0.4541 -0.4380 -0.5424
   94CHL1  H26A 9430   6.001   1.291   8.414  1.7841  1.0394  0.2442
   94CHL1  H26B 9431   6.060   1.383   8.270  1.5857  1.0614  2.1927
   94CHL1  H26C 9432   6.009   1.215   8.250  0.2719 -0.8464 -0.0188
   94CHL1   C27 9433   6.222   1.104   8.395  0.4338 -1.0415  0.0337
   94CHL1  H27A 9434   6.329   1.075   8.391  0.4531 -1.3947  1.9900
   94CHL1  H27B 9435   6.191   1.099   8.502  0.7854 -0.8646  0.1455
   94CHL1  H27C 9436   6.160   1.033   8.336  1.6159 -1.5869 -0.5820
   95CHL1    C3 9437   6.376   6.557   6.782  0.6078  0.3997 -0.6226
   95CHL1    H3 9438   6.461   6.490   6.806  1.3199  0.8979 -1.6570
   95CHL1    O3 9439   6.332   6.546   6.649  0.5878  0.6230 -0.3183
   95CHL1   H3' 9440   6.345   6.454   6.625 -0.5051 -0.0703  1.5818
   95CHL1    C4 9441   6.259   6.512   6.879 -0.3772 -0.0598  0.0053
   95CHL1   H4A 9442   6.164   6.559   6.844 -1.4217 -1.6276  0.6112
   95CHL1   H4B 9443   6.247   6.405   6.850 -0.6840  0.0580 -0.3024
   95CHL1    C5 9444   6.284   6.529   7.031 -0.4569 -0.0022  0.1158
   95CHL1    C6 9445   6.293   6.429   7.121  0.7787 -0.3470  0.0401
   95CHL1    H6 9446   6.266   6.329   7.082  0.1942  0.1821 -0.9789
   95CHL1    C7 9447   6.324   6.450   7.268  0.6232 -0.1580  0.1329
   95CHL1   H7A 9448   6.247   6.398   7.330  1.1013 -0.1237  0.7747
   95CHL1   H7B 9449   6.427   6.416   7.291  0.4778 -1.7881 -1.4162
   95CHL1    C8 9450   6.303   6.602   7.312  0.4963  0.7716  0.2264
   95CHL1    H8 9451   6.195   6.625   7.303  0.3373  0.1219  0.3713
   95CHL1   C14 9452   6.359   6.635   7.446  1.0243  0.4906  0.3408
   95CHL1   H14 9453   6.469   6.626   7.442  0.8805 -1.9628  0.7623
   95CHL1   C15 9454   6.320   6.551   7.570  0.1945  0.2189 -0.0438
   95CHL1  H15A 9455   6.210   6.543   7.583  0.1578  1.6273  0.6531
   95CHL1  H15B 9456   6.372   6.452   7.564  1.0996  0.6956 -0.2494
   95CHL1   C16 9457   6.368   6.636   7.692 -0.3347 -0.1773  0.1796
   95CHL1  H16A 9458   6.280   6.643   7.759  0.5789 -0.9732  1.5065
   95CHL1  H16B 9459   6.444   6.588   7.757 -0.8514 -0.6683  0.4230
   95CHL1   C17 9460   6.405   6.772   7.632  0.4605 -0.8879 -0.8214
   95CHL1   H17 9461   6.514   6.767   7.616  0.8250 -1.3716  1.5219
   95CHL1   C13 9462   6.340   6.776   7.488 -0.0614  0.3167  0.3915
   95CHL1   C18 9463   6.193   6.809   7.506 -0.6865  0.3763  0.0628
   95CHL1  H18A 9464   6.145   6.741   7.579 -0.6177  1.8041  1.4962
   95CHL1  H18B 9465   6.185   6.914   7.541 -1.9314  0.9486 -1.7946
   95CHL1  H18C 9466   6.147   6.798   7.405 -0.0685 -1.7295 -0.0230
   95CHL1   C12 9467   6.424   6.864   7.386  0.0325 -0.8698  0.6616
   95CHL1  H12A 9468   6.402   6.971   7.406 -3.8257 -1.5702  1.0825
   95CHL1  H12B 9469   6.532   6.841   7.391 -0.0438 -1.6012 -0.5555
   95CHL1   C11 9470   6.369   6.843   7.246 -0.1300  1.1174  0.0963
   95CHL1  H11A 9471   6.264   6.879   7.247 -1.3685 -2.0700 -1.9530
   95CHL1  H11B 9472   6.421   6.905   7.170  1.3872  0.8540  0.8758
   95CHL1    C9 9473   6.370   6.697   7.211  0.0744  0.2807  0.5173
   95CHL1    H9 9474   6.477   6.668   7.208 -0.2884 -1.1181 -2.3880
   95CHL1   C10 9475   6.319   6.672   7.061 -0.4477  0.3559  0.1700
   95CHL1   C19 9476   6.200   6.766   7.044 -0.3074 -0.0649  0.9739
   95CHL1  H19A 9477   6.170   6.749   6.938  0.2712 -0.7610  0.9144
   95CHL1  H19B 9478   6.125   6.734   7.119 -1.2629 -1.6258 -0.5837
   95CHL1  H19C 9479   6.230   6.873   7.048 -0.4418  0.0563 -0.5798
   95CHL1    C1 9480   6.440   6.720   6.968  0.0490  0.8978  0.4712
   95CHL1   H1A 9481   6.456   6.830   6.978  0.1509  1.2505 -2.6063
   95CHL1   H1B 9482   6.539   6.674   6.991  1.5952  0.9221 -4.8501
   95CHL1    C2 9483   6.421   6.704   6.813  0.4269 -0.4409 -0.7168
   95CHL1   H2A 9484   6.508   6.732   6.749  1.1320  0.2249  0.5104
   95CHL1   H2B 9485   6.344   6.777   6.779 -0.4444 -1.0264 -0.0574
   95CHL1   C20 9486   6.391   6.889   7.735  0.1657 -0.2423 -0.5084
   95CHL1   H20 9487   6.282   6.894   7.757  0.7144  0.6256  2.4080
   95CHL1   C21 9488   6.435   7.019   7.675  0.2456  0.0572 -0.0490
   95CHL1  H21A 9489   6.541   7.010   7.642  0.6326 -4.9465  1.7119
   95CHL1  H21B 9490   6.417   7.107   7.740  0.6342  0.9252 -1.0821
   95CHL1  H21C 9491   6.384   7.051   7.581 -1.1196  1.1267  1.0181
   95CHL1   C22 9492   6.462   6.855   7.869  0.1429  0.0012 -0.2039
   95CHL1  H22A 9493   6.422   6.767   7.924  0.4209  0.4396  0.7287
   95CHL1  H22B 9494   6.571   6.845   7.846 -0.5128 -1.0051 -3.4489
   95CHL1   C23 9495   6.455   6.963   7.980  0.5329 -0.2733 -0.2961
   95CHL1  H23A 9496   6.534   7.036   7.955  0.3914  0.2265  0.6928
   95CHL1  H23B 9497   6.352   7.003   7.988 -0.7489 -3.5033  1.4082
   95CHL1   C24 9498   6.487   6.925   8.125 -0.0085 -0.2241 -0.0072
   95CHL1  H24A 9499   6.424   6.836   8.147 -0.6073  0.3162  0.5048
   95CHL1  H24B 9500   6.597   6.908   8.127  0.2930  1.4725  2.8934
   95CHL1   C25 9501   6.465   7.025   8.243  0.2902  0.1427  1.0790
   95CHL1   H25 9502   6.510   7.124   8.219 -0.1934  0.0070 -0.4664
   95CHL1   C26 9503   6.320   7.042   8.284 -0.4558 -0.6681 -0.3369
   95CHL1  H26A 9504   6.265   7.067   8.191 -0.2385  0.0679 -0.2738
   95CHL1  H26B 9505   6.275   6.955   8.337 -1.6879  0.1589  0.0063
   95CHL1  H26C 9506   6.301   7.131   8.347 -0.3155 -0.9357  0.0879
   95CHL1   C27 9507   6.539   6.966   8.361  0.6578  0.7200 -0.4034
   95CHL1  H27A 9508   6.511   6.859   8.363  2.3071  0.2706  1.0736
   95CHL1  H27B 9509   6.648   6.979   8.343  0.4306  0.2497 -2.3914
   95CHL1  H27C 9510   6.511   7.010   8.459  2.2815  0.6523  0.1311
   96CHL1    C3 9511   0.386   6.437   6.840  0.0531 -0.3001 -0.7531
   96CHL1    H3 9512   0.281   6.447   6.873  0.5077 -0.9204  0.9677
   96CHL1    O3 9513   0.394   6.417   6.700  0.2241 -0.0881  0.5291
   96CHL1   H3' 9514   0.486   6.390   6.692  0.6621  1.2602  0.7254
   96CHL1    C4 9515   0.459   6.564   6.886 -0.6805  0.4613  0.4076
   96CHL1   H4A 9516   0.560   6.565   6.841 -1.5746  2.4756 -1.7484
   96CHL1   H4B 9517   0.412   6.648   6.830 -0.2504  0.3669 -0.0996
   96CHL1    C5 9518   0.465   6.586   7.037  0.5994  0.1958  0.1541
   96CHL1    C6 9519   0.454   6.710   7.089 -0.8565  0.4455  0.0128
   96CHL1    H6 9520   0.442   6.794   7.020 -0.5878 -0.2622 -0.9236
   96CHL1    C7 9521   0.466   6.731   7.240 -0.2609 -0.1553  0.6275
   96CHL1   H7A 9522   0.541   6.812   7.253  1.4568 -1.8996  2.0940
   96CHL1   H7B 9523   0.367   6.777   7.263 -0.2435  0.4984 -0.5227
   96CHL1    C8 9524   0.501   6.610   7.333  0.1147 -0.4192 -0.2735
   96CHL1    H8 9525   0.612   6.613   7.324 -0.0075 -1.5544 -3.2070
   96CHL1   C14 9526   0.455   6.637   7.476  0.2687  0.0284 -0.0456
   96CHL1   H14 9527   0.344   6.643   7.473  0.0452 -2.4905  0.9607
   96CHL1   C15 9528   0.494   6.768   7.541  0.9401 -0.3889  0.3872
   96CHL1  H15A 9529   0.587   6.795   7.488  0.6879 -3.8619 -2.1821
   96CHL1  H15B 9530   0.418   6.846   7.519 -0.9023 -2.3089 -0.4545
   96CHL1   C16 9531   0.501   6.739   7.686 -0.3670 -0.1656  0.1418
   96CHL1  H16A 9532   0.606   6.738   7.722 -0.5908 -2.5388  0.9551
   96CHL1  H16B 9533   0.432   6.803   7.746 -1.5652  0.2888 -1.6515
   96CHL1   C17 9534   0.454   6.591   7.704 -0.5158 -0.2023  0.1261
   96CHL1   H17 9535   0.343   6.605   7.703 -0.3516  1.3544 -1.3760
   96CHL1   C13 9536   0.491   6.518   7.569 -1.0768 -1.1175  0.1913
   96CHL1   C18 9537   0.641   6.507   7.562  0.8706 -0.3799 -0.4019
   96CHL1  H18A 9538   0.667   6.426   7.633  1.1788  0.5636  0.5851
   96CHL1  H18B 9539   0.679   6.481   7.460  0.4339  0.6085 -0.8295
   96CHL1  H18C 9540   0.710   6.588   7.595 -2.2377  2.3919 -0.2449
   96CHL1   C12 9541   0.416   6.400   7.513  0.3387  0.1176 -0.1553
   96CHL1  H12A 9542   0.435   6.306   7.570 -1.8670 -0.3415 -0.0622
   96CHL1  H12B 9543   0.309   6.428   7.523  0.3624 -0.5155  3.0840
   96CHL1   C11 9544   0.451   6.364   7.364 -0.5553 -0.3907  0.0719
   96CHL1  H11A 9545   0.555   6.327   7.362  0.0724  1.3174 -1.7190
   96CHL1  H11B 9546   0.381   6.285   7.329 -1.0707 -0.1158  0.4569
   96CHL1    C9 9547   0.438   6.481   7.272  0.4303 -0.0565  0.0280
   96CHL1    H9 9548   0.330   6.505   7.276  1.1539  4.2237 -1.0858
   96CHL1   C10 9549   0.478   6.460   7.117  0.2210  0.0841 -0.2993
   96CHL1   C19 9550   0.630   6.424   7.121  0.2320 -0.8304 -0.5837
   96CHL1  H19A 9551   0.644   6.338   7.190 -1.2152 -0.0112  0.7908
   96CHL1  H19B 9552   0.668   6.390   7.022 -0.0179 -1.9425 -0.3148
   96CHL1  H19C 9553   0.692   6.505   7.165 -0.5249 -1.4321  1.7869
   96CHL1    C1 9554   0.399   6.335   7.064  0.3611 -0.1239  0.4040
   96CHL1   H1A 9555   0.439   6.250   7.122  1.4246  0.8979  1.2044
   96CHL1   H1B 9556   0.290   6.345   7.082 -0.1308 -2.3101 -0.9862
   96CHL1    C2 9557   0.419   6.312   6.919 -0.8568 -0.0141  0.7372
   96CHL1   H2A 9558   0.357   6.226   6.888  1.3057 -1.2438 -0.4443
   96CHL1   H2B 9559   0.527   6.289   6.903 -1.1980 -0.3500 -1.2560
   96CHL1   C20 9560   0.483   6.528   7.832  0.2768  0.1292 -0.3570
   96CHL1   H20 9561   0.591   6.506   7.843  0.1309  0.0827  1.3755
   96CHL1   C21 9562   0.384   6.406   7.833 -0.1926  0.3557  0.5520
   96CHL1  H21A 9563   0.387   6.358   7.933  1.1282 -3.8111 -1.2310
   96CHL1  H21B 9564   0.425   6.324   7.769 -1.3710 -0.2190  0.4919
   96CHL1  H21C 9565   0.275   6.423   7.817 -0.1912 -0.4563 -0.4586
   96CHL1   C22 9566   0.456   6.627   7.946  0.4368  0.1229  0.4938
   96CHL1  H22A 9567   0.534   6.706   7.958 -0.3785  1.1549 -0.7705
   96CHL1  H22B 9568   0.360   6.680   7.931 -1.3328 -2.6591  1.3840
   96CHL1   C23 9569   0.464   6.558   8.084  0.3565  0.5479 -0.4473
   96CHL1  H23A 9570   0.388   6.479   8.104  0.4754  0.4525 -0.3723
   96CHL1  H23B 9571   0.558   6.499   8.081 -0.7659 -1.4305  0.7407
   96CHL1   C24 9572   0.478   6.652   8.203 -0.4146  0.4292  0.1062
   96CHL1  H24A 9573   0.573   6.710   8.198  1.2047 -2.0690  0.4621
   96CHL1  H24B 9574   0.385   6.713   8.205 -0.3276  0.6743 -1.8276
   96CHL1   C25 9575   0.487   6.569   8.333  0.0336 -0.3409 -0.3812
   96CHL1   H25 9576   0.390   6.516   8.340 -1.8108  2.6392 -1.3303
   96CHL1   C26 9577   0.599   6.474   8.347 -0.2450  0.1514  0.5390
   96CHL1  H26A 9578   0.585   6.390   8.275 -1.0023  2.3753 -2.1007
   96CHL1  H26B 9579   0.690   6.522   8.304 -0.2755  1.2816  1.6688
   96CHL1  H26C 9580   0.609   6.434   8.450 -1.9673  1.3406  1.2194
   96CHL1   C27 9581   0.497   6.663   8.456  0.2264  0.5517 -0.5579
   96CHL1  H27A 9582   0.499   6.608   8.553 -1.5744  0.2895 -0.6342
   96CHL1  H27B 9583   0.590   6.722   8.442  1.4686 -0.7820  1.5401
   96CHL1  H27C 9584   0.410   6.733   8.459 -0.5843 -0.4497  1.6024
   97OSM      N 9585   3.454   1.458  10.687 -0.0482  0.3804 -0.0658
   97OSM    C15 9586   3.484   1.582  10.773  0.8352 -0.6415  0.0527
   97OSM   H15A 9587   3.554   1.642  10.716 -0.8823  1.2504 -0.1620
   97OSM   H15B 9588   3.528   1.559  10.869 -0.1793 -0.3745  0.6012
   97OSM   H15C 9589   3.392   1.635  10.792  0.3146 -2.1182  1.8940
   97OSM    C14 9590   3.384   1.347  10.763  0.3629  0.5560 -1.0613
   97OSM   H14A 9591   3.293   1.396  10.794  2.3137  3.1892  1.0358
   97OSM   H14B 9592   3.431   1.327  10.858  1.0493  0.8237 -1.3327
   97OSM   H14C 9593   3.370   1.257  10.706  1.2155  0.9857 -1.9769
   97OSM    C13 9594   3.376   1.498  10.562  0.4415 -0.0361 -0.3596
   97OSM   H13A 9595   3.284   1.546  10.590 -0.4895 -1.7289 -0.3565
   97OSM   H13B 9596   3.361   1.425  10.484 -2.2344  1.0980 -1.0094
   97OSM   H13C 9597   3.432   1.571  10.506 -0.6737  0.1685 -1.2404
   97OSM    C12 9598   3.590   1.410  10.635 -0.9899  0.5618 -0.3060
   97OSM   H12A 9599   3.662   1.399  10.715  0.2002 -0.6452 -1.4972
   97OSM   H12B 9600   3.622   1.487  10.566  0.0395  1.3201  0.9688
   97OSM    C11 9601   3.592   1.284  10.547 -0.1589 -0.4933  0.2803
   97OSM   H11A 9602   3.691   1.277  10.497 -0.7659 -1.8779 -0.7780
   97OSM   H11B 9603   3.520   1.289  10.463  2.1702  0.4010 -1.7716
   97OSM      P 9604   3.678   1.109  10.716 -0.0316 -0.0209  0.0678
   97OSM    O13 9605   3.762   1.213  10.774 -0.3217 -0.3432  0.3441
   97OSM    O14 9606   3.619   1.018  10.814  0.1923 -0.1820 -0.2088
   97OSM    O11 9607   3.780   1.025  10.610 -0.1901  0.5550  0.4493
   97OSM    O12 9608   3.566   1.171  10.624 -0.5313 -0.1647  0.7965
   97OSM    C1S 9609   3.738   0.907  10.544 -0.1329  0.5028 -0.0013
   97OSM    H1S 9610   3.635   0.878  10.574  0.9705 -0.7388  2.9307
   97OSM    H1T 9611   3.798   0.817  10.570 -0.3042 -0.2397 -1.9808
   97OSM     NF 9612   3.713   0.787  10.339 -0.5050 -0.1000  0.8107
   97OSM    HNF 9613   3.793   0.728  10.331  0.6728  1.4614  0.6822
   97OSM    C2S 9614   3.729   0.924  10.391 -0.7738  0.5906 -0.2723
   97OSM    H2S 9615   3.640   0.987  10.369  0.1081  2.0623  0.2020
   97OSM    C3S 9616   3.857   0.987  10.329 -0.0822 -0.0287  0.7156
   97OSM    H3S 9617   3.945   0.923  10.350  0.1749  0.7877  2.2421
   97OSM     O3 9618   3.900   1.111  10.386  0.1578 -0.1125 -0.4152
   97OSM    HO3 9619   3.848   1.103  10.466 -1.3099 -0.3119 -1.3529
   97OSM    C4S 9620   3.838   0.994  10.179  0.2910  0.2021 -0.0279
   97OSM    H4S 9621   3.865   0.896  10.138 -0.2088 -0.6396  1.5453
   97OSM    C5S 9622   3.800   1.098  10.098 -0.0083 -0.2507  0.2816
   97OSM    H5S 9623   3.774   1.194  10.145  0.1499  0.5874 -1.3108
   97OSM    C6S 9624   3.779   1.087   9.951 -0.1470 -0.5652 -0.0439
   97OSM    H6S 9625   3.687   1.142   9.920 -1.0265 -0.5118  2.4392
   97OSM    H6T 9626   3.753   0.980   9.933 -3.0271  0.0258  0.0768
   97OSM    C7S 9627   3.903   1.125   9.871 -0.5775  0.5535  0.0124
   97OSM    H7S 9628   3.985   1.057   9.902  0.4744  1.9029  0.2975
   97OSM    H7T 9629   3.944   1.223   9.905  0.7312 -0.1214  0.4437
   97OSM    C8S 9630   3.879   1.119   9.717  0.2791 -0.2566 -0.1913
   97OSM    H8S 9631   3.799   1.192   9.692  1.2911  0.4447 -1.5821
   97OSM    H8T 9632   3.851   1.018   9.680 -0.9553  0.3355 -0.9279
   97OSM    C9S 9633   3.996   1.171   9.629  0.3340  0.0951 -0.9035
   97OSM    H9S 9634   4.083   1.103   9.647  0.0371 -0.1750 -0.4723
   97OSM    H9T 9635   4.017   1.276   9.657 -2.6067  0.7395 -0.8401
   97OSM   C10S 9636   3.974   1.158   9.479 -0.2247  0.4567 -0.1841
   97OSM   H10S 9637   3.876   1.199   9.447 -0.9768 -1.7475 -0.9564
   97OSM   H10T 9638   3.959   1.053   9.445 -0.4754  0.0608  1.0714
   97OSM   C11S 9639   4.083   1.216   9.384 -0.4119  0.2841 -1.0515
   97OSM   H11S 9640   4.179   1.174   9.421 -0.9079  1.1403  1.4334
   97OSM   H11T 9641   4.097   1.325   9.404 -2.0153  0.1100  1.4114
   97OSM   C12S 9642   4.055   1.193   9.242  0.0307 -0.1693  0.3590
   97OSM   H12S 9643   3.958   1.241   9.217  0.2509 -1.0248 -2.3973
   97OSM   H12T 9644   4.030   1.088   9.217 -1.7496  0.2957  0.0403
   97OSM   C13S 9645   4.157   1.256   9.148 -0.0469  0.0224  0.5406
   97OSM   H13S 9646   4.256   1.207   9.156  0.9792  2.0969  1.1468
   97OSM   H13T 9647   4.185   1.359   9.178 -1.6856  1.6135 -2.7719
   97OSM   C14S 9648   4.101   1.269   9.000  0.1409 -0.0175 -0.1128
   97OSM   H14S 9649   4.009   1.330   9.007  1.8483  2.5492  2.2452
   97OSM   H14T 9650   4.079   1.164   8.973  0.5529 -0.4116  1.0251
   97OSM   C15S 9651   4.197   1.329   8.892 -0.1506  0.2810  0.1810
   97OSM   H15S 9652   4.295   1.276   8.892 -0.6583 -0.6739  0.1545
   97OSM   H15T 9653   4.219   1.434   8.921 -1.9545  1.1390 -1.3447
   97OSM   C16S 9654   4.163   1.321   8.743  0.8895  0.3281 -0.1887
   97OSM   H16S 9655   4.075   1.387   8.727  1.7941  1.5081 -0.4400
   97OSM   H16T 9656   4.132   1.215   8.737 -1.2937  0.8808  0.3656
   97OSM   C17S 9657   4.271   1.352   8.635 -0.5962  0.3393 -0.1243
   97OSM   H17S 9658   4.242   1.293   8.546 -2.1963  1.3121 -0.2763
   97OSM   H17T 9659   4.364   1.313   8.683 -0.3892  1.2302  0.2126
   97OSM   C18S 9660   4.287   1.499   8.605 -0.2030  0.0227 -0.6376
   97OSM   H18S 9661   4.355   1.547   8.678  1.7669 -2.8656 -0.4062
   97OSM   H18T 9662   4.187   1.548   8.604 -0.0993  0.4680  2.1110
   97OSM   H18U 9663   4.339   1.534   8.514  3.6091  2.5099  2.1721
   97OSM    C1F 9664   3.594   0.733  10.344 -0.1419  0.6652  0.5460
   97OSM     OF 9665   3.499   0.804  10.374  0.1676  1.0105  0.2411
   97OSM    C2F 9666   3.576   0.584  10.322  0.5614 -0.5264 -0.0695
   97OSM    H2F 9667   3.482   0.552  10.373  2.0692 -3.1163  1.3194
   97OSM    H2G 9668   3.652   0.530  10.383 -0.8754 -2.2602  0.2947
   97OSM    C3F 9669   3.572   0.542  10.177 -0.6423  0.2353  0.7127
   97OSM    H3F 9670   3.562   0.432  10.188 -0.1962  0.0593 -0.5181
   97OSM    H3G 9671   3.667   0.559  10.122  0.9793 -3.0319  2.2109
   97OSM    C4F 9672   3.455   0.600  10.102  1.1615  0.4377 -0.4514
   97OSM    H4F 9673   3.410   0.677  10.168 -0.0720 -1.1761  0.6708
   97OSM    H4G 9674   3.378   0.527  10.069  1.6602 -0.0071 -0.6460
   97OSM    C5F 9675   3.490   0.681   9.983  0.3204  0.0538 -0.7791
   97OSM    H5F 9676   3.579   0.746  10.000  0.1664  0.5139 -1.6912
   97OSM    H5G 9677   3.405   0.750   9.961  0.7523  0.6973 -0.4775
   97OSM    C6F 9678   3.501   0.602   9.854  0.0342  1.2246 -0.1859
   97OSM    H6F 9679   3.519   0.681   9.777 -0.2662  1.1628 -0.3226
   97OSM    H6G 9680   3.405   0.554   9.823  0.5801 -0.0831  0.0969
   97OSM    C7F 9681   3.604   0.493   9.864 -0.0302 -0.5095  0.1275
   97OSM    H7F 9682   3.573   0.407   9.926  0.9594 -1.7474 -1.0363
   97OSM    H7G 9683   3.694   0.535   9.914 -2.4664  2.7232  2.1819
   97OSM    C8F 9684   3.648   0.438   9.727  0.0655  0.5122  0.4103
   97OSM    H8F 9685   3.732   0.368   9.742  0.7249  1.0870 -0.4724
   97OSM    H8G 9686   3.685   0.516   9.656 -0.4680  0.8082  0.4488
   97OSM    C9F 9687   3.535   0.355   9.671  0.3670  0.1095 -0.3856
   97OSM    H9F 9688   3.481   0.289   9.742  0.4706  0.2246 -0.2005
   97OSM   C10F 9689   3.495   0.359   9.543 -0.0932 -0.3405  0.4627
   97OSM   H10F 9690   3.413   0.296   9.507  1.2044 -2.0566  0.3484
   97OSM   C11F 9691   3.566   0.443   9.435 -0.2036  0.0755 -0.8028
   97OSM   H11F 9692   3.599   0.541   9.473 -0.4783 -0.4697  0.9085
   97OSM   H11G 9693   3.484   0.464   9.362 -1.0845 -0.2022  0.0839
   97OSM   C12F 9694   3.694   0.379   9.378  0.4384 -0.4279  0.0952
   97OSM   H12F 9695   3.683   0.278   9.334  0.2854  0.6466 -2.5795
   97OSM   H12G 9696   3.779   0.371   9.449 -0.0025  0.8808  0.8038
   97OSM   C13F 9697   3.752   0.470   9.274 -0.3401  0.0508  0.3099
   97OSM   H13F 9698   3.772   0.567   9.326 -1.1017  0.3577  0.0488
   97OSM   H13G 9699   3.688   0.490   9.185 -0.0619  1.2033  0.3556
   97OSM   C14F 9700   3.892   0.431   9.210 -0.2883  0.2757 -0.0308
   97OSM   H14F 9701   3.965   0.416   9.292 -2.6587 -1.6380  1.8932
   97OSM   H14G 9702   3.926   0.516   9.147  0.1280  1.2189  1.4193
   97OSM   C15F 9703   3.883   0.302   9.122 -0.1153  0.6963 -0.1978
   97OSM   H15F 9704   3.810   0.329   9.042 -0.8881 -1.0684 -0.1270
   97OSM   H15G 9705   3.822   0.223   9.170  3.1132 -2.7305 -1.2310
   97OSM   C16F 9706   4.012   0.242   9.067  0.2842  0.3474 -0.2726
   97OSM   H16F 9707   4.077   0.198   9.145  1.6390  1.9238 -0.4747
   97OSM   H16G 9708   4.075   0.319   9.019  2.5574 -0.7119  0.8757
   97OSM   C17F 9709   3.982   0.139   8.954  0.5391 -0.1476 -0.3854
   97OSM   H17F 9710   3.918   0.182   8.873 -0.6971 -1.5437 -0.2095
   97OSM   H17G 9711   3.920   0.062   9.004  0.1331 -0.6341 -1.5847
   97OSM   C18F 9712   4.106   0.080   8.887  0.0637 -0.2683 -0.4251
   97OSM   H18F 9713   4.162   0.013   8.956 -1.0352  1.1731  1.9835
   97OSM   H18G 9714   4.180   0.158   8.860 -1.3783  1.0136 -0.8294
   97OSM   H18H 9715   4.071   0.023   8.798  0.2162  2.1861 -2.1690
   98OSM      N 9716   3.947   0.881  10.940  0.0834  0.0781  0.6380
   98OSM    C15 9717   3.981   1.024  10.965  1.2958  0.3122 -0.1217
   98OSM   H15A 9718   4.083   1.051  10.941  2.2251 -2.0354  0.8863
   98OSM   H15B 9719   3.959   1.048  11.068 -0.6271  0.3221 -0.5041
   98OSM   H15C 9720   3.909   1.078  10.905 -0.8570 -0.1711  1.9009
   98OSM    C14 9721   3.972   0.846  10.794 -0.7795  0.1886 -0.5070
   98OSM   H14A 9722   3.925   0.913  10.723  1.6168  0.6250 -1.8029
   98OSM   H14B 9723   3.918   0.754  10.780 -0.2135 -0.8792  3.2981
   98OSM   H14C 9724   4.079   0.840  10.778 -0.7528  0.7625 -0.5840
   98OSM    C13 9725   4.041   0.795  11.018  0.7829  0.2081  0.6073
   98OSM   H13A 9726   4.036   0.698  10.971 -2.4405  1.0328 -1.0303
   98OSM   H13B 9727   4.011   0.796  11.121  0.5422 -1.1701  0.5615
   98OSM   H13C 9728   4.144   0.828  11.016  0.4006  1.4877  0.8237
   98OSM    C12 9729   3.802   0.851  10.972  0.3335  0.4686  0.1674
   98OSM   H12A 9730   3.736   0.912  10.912  0.1421  0.5992  0.5049
   98OSM   H12B 9731   3.779   0.893  11.069 -2.9214  3.3291 -1.6380
   98OSM    C11 9732   3.755   0.707  10.965  0.3539  0.4275  0.1128
   98OSM   H11A 9733   3.660   0.709  11.024 -0.7997 -2.6006 -1.4181
   98OSM   H11B 9734   3.822   0.647  11.029  1.4235  0.7779 -0.6574
   98OSM      P 9735   3.782   0.503  10.807  0.0726  0.2724 -0.1538
   98OSM    O13 9736   3.800   0.408  10.921 -0.3168  0.7202 -0.1238
   98OSM    O14 9737   3.695   0.444  10.702 -0.2080  0.1603  0.2700
   98OSM    O11 9738   3.927   0.532  10.744  0.3309 -0.1813 -0.2655
   98OSM    O12 9739   3.732   0.653  10.834 -0.3362 -0.2548  0.1886
   98OSM    C1S 9740   3.959   0.472  10.614 -0.4840  0.7012 -0.3047
   98OSM    H1S 9741   3.880   0.496  10.540 -2.5400 -0.6828  1.3162
   98OSM    H1T 9742   3.973   0.363  10.631  1.6422  1.1021  0.8961
   98OSM     NF 9743   4.128   0.501  10.424  0.0933  0.7554  0.2337
   98OSM    HNF 9744   4.195   0.430  10.404 -1.6427 -0.9016 -0.0252
   98OSM    C2S 9745   4.097   0.529  10.563  1.0191  0.1543 -0.3515
   98OSM    H2S 9746   4.077   0.638  10.573  0.3514 -0.0046  0.0669
   98OSM    C3S 9747   4.210   0.490  10.659  0.2054 -0.2029  0.2831
   98OSM    H3S 9748   4.217   0.379  10.666 -0.7807 -0.2207  1.3002
   98OSM     O3 9749   4.188   0.528  10.795 -0.4254  0.2715 -0.0794
   98OSM    HO3 9750   4.093   0.541  10.803 -0.3330 -0.1133  4.8491
   98OSM    C4S 9751   4.329   0.563  10.612  0.0243  0.4219  0.4470
   98OSM    H4S 9752   4.317   0.670  10.594  1.9878  0.9805  2.0847
   98OSM    C5S 9753   4.448   0.505  10.589  0.1621 -0.0673  0.2952
   98OSM    H5S 9754   4.462   0.399  10.615  1.4357 -0.0051 -0.0818
   98OSM    C6S 9755   4.568   0.589  10.542  0.6735 -0.3997  1.0137
   98OSM    H6S 9756   4.640   0.611  10.624  0.6898 -1.7627  1.3914
   98OSM    H6T 9757   4.532   0.689  10.509  0.6058 -0.1951  1.6950
   98OSM    C7S 9758   4.645   0.518  10.423  0.0507  0.5139  0.0820
   98OSM    H7S 9759   4.679   0.417  10.452  0.8731  0.2198 -1.7689
   98OSM    H7T 9760   4.741   0.570  10.403  1.6100 -1.2912  2.3339
   98OSM    C8S 9761   4.566   0.514  10.288  0.1251 -0.6352 -0.4545
   98OSM    H8S 9762   4.550   0.622  10.268 -0.0284 -0.1620  2.0022
   98OSM    H8T 9763   4.465   0.471  10.305  1.6266 -3.9889  0.7502
   98OSM    C9S 9764   4.643   0.455  10.163 -0.3030 -0.0165 -0.1637
   98OSM    H9S 9765   4.625   0.346  10.168 -0.0043 -0.2134 -2.4064
   98OSM    H9T 9766   4.751   0.482  10.165 -0.6887  1.7001 -0.8552
   98OSM   C10S 9767   4.588   0.515  10.040  0.5531 -0.2353 -0.0442
   98OSM   H10S 9768   4.591   0.625  10.047  1.9788 -0.3732  2.9302
   98OSM   H10T 9769   4.479   0.495  10.032 -0.1734  2.9405  0.7252
   98OSM   C11S 9770   4.652   0.457   9.913  0.2875  0.0117 -0.2141
   98OSM   H11S 9771   4.619   0.352   9.899 -3.9629  0.9342  1.3492
   98OSM   H11T 9772   4.761   0.473   9.926  0.1931  0.9525 -0.4673
   98OSM   C12S 9773   4.591   0.532   9.795 -1.0430  0.4566 -0.0770
   98OSM   H12S 9774   4.591   0.641   9.817 -2.5751  0.0127  2.5480
   98OSM   H12T 9775   4.485   0.504   9.780 -0.8524 -0.1708 -0.3089
   98OSM   C13S 9776   4.660   0.511   9.660 -0.2709 -0.6551 -0.2674
   98OSM   H13S 9777   4.656   0.406   9.624  1.1702  0.0222 -2.6713
   98OSM   H13T 9778   4.767   0.541   9.666 -0.3211 -0.5396  0.1217
   98OSM   C14S 9779   4.580   0.585   9.555  0.5129 -1.6407  1.0142
   98OSM   H14S 9780   4.588   0.696   9.560 -0.0540 -1.6244  1.7333
   98OSM   H14T 9781   4.475   0.554   9.572 -0.6193  0.3906 -1.5649
   98OSM   C15S 9782   4.635   0.553   9.413 -0.7849  0.1407 -0.2807
   98OSM   H15S 9783   4.570   0.479   9.362 -1.0893  0.8437 -0.9441
   98OSM   H15T 9784   4.737   0.512   9.426 -0.9754 -0.0140  0.8792
   98OSM   C16S 9785   4.643   0.684   9.332 -0.1447  0.0856 -0.5493
   98OSM   H16S 9786   4.689   0.770   9.386 -3.3226  1.7353 -0.2482
   98OSM   H16T 9787   4.543   0.724   9.305 -0.4159  1.1624  1.7275
   98OSM   C17S 9788   4.727   0.663   9.201 -0.2204 -0.3063  0.4430
   98OSM   H17S 9789   4.660   0.592   9.148 -0.6837  1.5571 -1.5560
   98OSM   H17T 9790   4.828   0.622   9.226 -0.3187 -0.8220  0.0145
   98OSM   C18S 9791   4.738   0.787   9.104  0.0094  0.4807 -0.5180
   98OSM   H18S 9792   4.781   0.755   9.007  2.3679  2.0417 -0.0927
   98OSM   H18T 9793   4.805   0.865   9.146  1.4882 -1.2546  0.5108
   98OSM   H18U 9794   4.636   0.831   9.102 -1.3737 -2.5039 -0.5366
   98OSM    C1F 9795   4.047   0.527  10.321 -0.2385 -0.3358 -0.2297
   98OSM     OF 9796   3.957   0.605  10.328  0.4514  0.2659 -0.8021
   98OSM    C2F 9797   4.063   0.446  10.205  0.4241  0.2929 -0.0398
   98OSM    H2F 9798   4.025   0.344  10.226  0.6020  0.7318  2.9274
   98OSM    H2G 9799   4.172   0.435  10.189  0.3567 -0.4708  0.0081
   98OSM    C3F 9800   3.984   0.502  10.082 -0.2424 -0.3243  0.1576
   98OSM    H3F 9801   3.881   0.531  10.110 -0.2843  2.4941 -2.3279
   98OSM    H3G 9802   4.001   0.424  10.005  0.7864 -1.8398  1.8415
   98OSM    C4F 9803   4.067   0.626  10.025  0.2048 -0.0238 -0.2050
   98OSM    H4F 9804   4.174   0.599  10.010  0.3118  0.0660  0.3594
   98OSM    H4G 9805   4.080   0.706  10.100  2.8951  1.2434 -1.8873
   98OSM    C5F 9806   3.989   0.687   9.908 -0.7562  0.1251  0.3697
   98OSM    H5F 9807   4.039   0.782   9.879 -1.1214  0.7359  1.6367
   98OSM    H5G 9808   3.885   0.704   9.946  0.1054  0.4410  2.7486
   98OSM    C6F 9809   3.993   0.598   9.784 -0.3522 -0.3358 -0.0890
   98OSM    H6F 9810   3.938   0.504   9.809 -0.2418 -0.0271  1.4172
   98OSM    H6G 9811   4.096   0.566   9.757 -0.5052 -0.8689 -0.0575
   98OSM    C7F 9812   3.937   0.648   9.649  0.2609  0.4547  0.4505
   98OSM    H7F 9813   3.832   0.680   9.667  0.8868  1.4835  2.7756
   98OSM    H7G 9814   3.935   0.557   9.586  0.1045  0.9497 -0.2669
   98OSM    C8F 9815   4.009   0.762   9.574  0.3241  0.2124 -0.9132
   98OSM    H8F 9816   4.020   0.844   9.648 -1.1195 -0.4432  0.0639
   98OSM    H8G 9817   3.950   0.793   9.485  1.9451  0.7445 -1.8576
   98OSM    C9F 9818   4.145   0.719   9.526 -0.1337 -0.1578  0.0801
   98OSM    H9F 9819   4.204   0.674   9.607 -0.0451  2.2761  1.4645
   98OSM   C10F 9820   4.199   0.741   9.403 -0.5774  0.0052  0.3478
   98OSM   H10F 9821   4.306   0.724   9.384 -0.8105 -1.1080 -0.0289
   98OSM   C11F 9822   4.137   0.803   9.283  0.3032  0.1763 -0.3351
   98OSM   H11F 9823   4.180   0.904   9.265 -0.5448  0.4354 -0.9605
   98OSM   H11G 9824   4.032   0.830   9.305  0.8461  1.3695  1.0556
   98OSM   C12F 9825   4.154   0.722   9.151 -0.4175  0.3819  0.1428
   98OSM   H12F 9826   4.100   0.630   9.181 -1.4704 -0.2260 -3.1981
   98OSM   H12G 9827   4.263   0.718   9.131  0.2324  4.7580  1.6947
   98OSM   C13F 9828   4.085   0.802   9.033 -0.3117 -0.1107 -0.6199
   98OSM   H13F 9829   4.130   0.904   9.035 -0.6171  0.1219  3.3599
   98OSM   H13G 9830   3.979   0.811   9.068  0.1620  2.7914  0.3823
   98OSM   C14F 9831   4.103   0.740   8.900  0.3948 -0.5255  0.2989
   98OSM   H14F 9832   4.213   0.740   8.882  0.8824  2.8408  2.5159
   98OSM   H14G 9833   4.058   0.808   8.825  1.6679  0.9967  0.8679
   98OSM   C15F 9834   4.062   0.594   8.877  0.1732 -0.0385 -0.7399
   98OSM   H15F 9835   3.960   0.559   8.905  0.7912 -0.9263  0.4798
   98OSM   H15G 9836   4.139   0.536   8.931 -0.8059 -2.1829 -1.5303
   98OSM   C16F 9837   4.070   0.553   8.727  0.1222  0.0338  0.0043
   98OSM   H16F 9838   4.164   0.592   8.683  0.0938  1.7893  1.3951
   98OSM   H16G 9839   3.986   0.598   8.669  0.8076  2.5246  0.8128
   98OSM   C17F 9840   4.085   0.402   8.710  0.4681  0.5091 -0.3481
   98OSM   H17F 9841   4.004   0.348   8.762  0.2969  1.8894  0.8728
   98OSM   H17G 9842   4.180   0.383   8.765 -0.1965  1.9444  1.3763
   98OSM   C18F 9843   4.091   0.368   8.567 -0.2272  0.1764  0.0024
   98OSM   H18F 9844   3.990   0.392   8.530  1.1164  1.3136 -3.2978
   98OSM   H18G 9845   4.110   0.260   8.548  1.8073  0.7909 -1.9916
   98OSM   H18H 9846   4.174   0.424   8.519 -0.4458  0.0970 -0.4740
   99OSM      N 9847   6.436   6.708  10.917 -0.0556 -1.2616  0.0857
   99OSM    C15 9848   6.503   6.590  10.975 -0.7653  0.3752 -0.6383
   99OSM   H15A 9849   6.446   6.499  10.991  1.8284 -1.6361 -2.0932
   99OSM   H15B 9850   6.558   6.613  11.065  0.3248  1.0936 -1.4611
   99OSM   H15C 9851   6.581   6.558  10.908 -2.0456 -1.0621 -1.5253
   99OSM    C14 9852   6.321   6.683  10.818 -0.0858  0.0354 -0.4574
   99OSM   H14A 9853   6.261   6.772  10.807  0.6867  0.8973  1.7576
   99OSM   H14B 9854   6.254   6.615  10.868 -0.6554  0.8123 -0.1492
   99OSM   H14C 9855   6.355   6.650  10.721 -1.3243  0.0011 -0.9025
   99OSM    C13 9856   6.369   6.788  11.032  0.4741 -1.1944  0.0182
   99OSM   H13A 9857   6.317   6.882  11.022  0.3129 -1.0798  1.6672
   99OSM   H13B 9858   6.440   6.809  11.110 -0.7195  1.2155  0.5641
   99OSM   H13C 9859   6.282   6.737  11.072 -2.5574  2.7453 -0.8398
   99OSM    C12 9860   6.534   6.806  10.851 -0.4389  0.2556  0.1798
   99OSM   H12A 9861   6.616   6.831  10.916 -1.4143  2.0039  0.7910
   99OSM   H12B 9862   6.469   6.890  10.832  0.0274  0.9178  1.4250
   99OSM    C11 9863   6.600   6.759  10.718 -0.1951  0.9717  0.1715
   99OSM   H11A 9864   6.668   6.841  10.686 -1.2993  0.9773 -2.4221
   99OSM   H11B 9865   6.528   6.755  10.634  0.7978  1.0795 -0.7040
   99OSM      P 9866   6.818   6.630  10.763 -0.1034 -0.1226 -0.5357
   99OSM    O13 9867   6.858   6.765  10.803 -0.1720 -0.0528  0.3015
   99OSM    O14 9868   6.852   6.524  10.858  0.2008  0.7972 -0.1493
   99OSM    O11 9869   6.886   6.592  10.631 -0.3946 -0.4082 -0.0317
   99OSM    O12 9870   6.664   6.631  10.736  0.0628  0.0022  0.2038
   99OSM    C1S 9871   6.885   6.690  10.517 -0.0353  0.2214 -0.0973
   99OSM    H1S 9872   6.907   6.790  10.561 -1.6532  0.1709  0.8840
   99OSM    H1T 9873   6.780   6.694  10.481 -0.2091 -1.5848  0.1315
   99OSM     NF 9874   7.008   6.757  10.310 -0.7443 -0.3493  0.2569
   99OSM    HNF 9875   6.955   6.763  10.226 -1.1599 -0.4540  0.5081
   99OSM    C2S 9876   6.990   6.647  10.402 -0.2750 -0.4751  0.1442
   99OSM    H2S 9877   7.079   6.637  10.468 -0.3379  4.0952  1.2513
   99OSM    C3S 9878   6.938   6.514  10.341  0.0834 -0.2196 -0.0751
   99OSM    H3S 9879   6.839   6.542  10.299  1.0231  1.0620 -1.5738
   99OSM     O3 9880   6.920   6.408  10.434  0.4468  0.4962 -0.0751
   99OSM    HO3 9881   6.937   6.450  10.519  2.6645  0.4811 -0.4734
   99OSM    C4S 9882   7.028   6.476  10.234 -0.1826 -0.3267  0.1776
   99OSM    H4S 9883   6.980   6.475  10.135 -0.2877  2.2812  0.1490
   99OSM    C5S 9884   7.146   6.413  10.245 -1.0156 -0.3777 -0.1825
   99OSM    H5S 9885   7.178   6.373  10.342  1.1221  0.2241 -0.5895
   99OSM    C6S 9886   7.218   6.365  10.121 -0.9938 -0.3971  0.9540
   99OSM    H6S 9887   7.169   6.278  10.071 -0.9320  0.2080 -0.2033
   99OSM    H6T 9888   7.319   6.338  10.158 -1.1756 -0.1981  1.6016
   99OSM    C7S 9889   7.239   6.472  10.004  0.0772  0.4055  0.6972
   99OSM    H7S 9890   7.310   6.545  10.049  0.8943  0.0624 -0.0120
   99OSM    H7T 9891   7.138   6.514   9.986  0.9595  1.9770 -0.8780
   99OSM    C8S 9892   7.301   6.418   9.869  0.2664 -0.2550  0.2965
   99OSM    H8S 9893   7.226   6.351   9.823  1.4310 -0.5093 -1.3160
   99OSM    H8T 9894   7.384   6.346   9.886  1.4652  1.2155  0.9236
   99OSM    C9S 9895   7.349   6.524   9.769  0.1414 -0.1323 -0.1683
   99OSM    H9S 9896   7.427   6.586   9.818 -0.4856 -1.7419  3.1713
   99OSM    H9T 9897   7.259   6.581   9.741 -2.5688 -2.1381  3.5489
   99OSM   C10S 9898   7.403   6.461   9.642  0.3716 -0.2850  0.4984
   99OSM   H10S 9899   7.326   6.396   9.595 -1.3910  1.7240  0.4756
   99OSM   H10T 9900   7.492   6.398   9.664  2.4351  1.3595 -2.4594
   99OSM   C11S 9901   7.439   6.566   9.542 -0.5254 -0.2722  0.2720
   99OSM   H11S 9902   7.517   6.634   9.583 -1.4082  1.2135 -0.4331
   99OSM   H11T 9903   7.349   6.625   9.514  1.0050  0.5975 -3.3317
   99OSM   C12S 9904   7.499   6.513   9.415 -0.2406 -0.5897  0.3058
   99OSM   H12S 9905   7.588   6.449   9.434 -0.1726 -0.4637  0.4120
   99OSM   H12T 9906   7.425   6.452   9.358 -0.3837  0.4453 -0.6325
   99OSM   C13S 9907   7.546   6.620   9.309  0.2984 -0.3755  0.4008
   99OSM   H13S 9908   7.630   6.680   9.350  0.1940 -0.6739  1.0664
   99OSM   H13T 9909   7.455   6.685   9.300  1.2432  0.8493 -0.7110
   99OSM   C14S 9910   7.600   6.562   9.172  1.0997  0.5415 -1.1539
   99OSM   H14S 9911   7.671   6.483   9.204 -1.1005 -1.3118 -0.6365
   99OSM   H14T 9912   7.658   6.645   9.125  0.1727 -0.2697 -3.9042
   99OSM   C15S 9913   7.490   6.509   9.080 -0.0534 -0.3601 -0.7584
   99OSM   H15S 9914   7.401   6.575   9.080 -0.9859 -1.5649 -0.8968
   99OSM   H15T 9915   7.451   6.416   9.128  0.3935  0.1264  0.5865
   99OSM   C16S 9916   7.543   6.479   8.944 -0.4690 -0.6520 -0.6041
   99OSM   H16S 9917   7.614   6.397   8.970 -0.3692 -0.4802 -0.3252
   99OSM   H16T 9918   7.604   6.563   8.904 -0.4880 -0.0966  0.4998
   99OSM   C17S 9919   7.443   6.420   8.837  0.0130  1.0095 -0.5226
   99OSM   H17S 9920   7.482   6.427   8.733  0.7600  0.1536 -0.3168
   99OSM   H17T 9921   7.343   6.465   8.849 -0.3058  0.0749  0.4712
   99OSM   C18S 9922   7.430   6.265   8.859  0.0786 -0.2849  0.0137
   99OSM   H18S 9923   7.514   6.197   8.832  0.1146 -1.0329  1.8350
   99OSM   H18T 9924   7.340   6.246   8.797 -1.6504  0.7080  2.0801
   99OSM   H18U 9925   7.404   6.236   8.963 -0.7525 -1.0052 -0.3800
   99OSM    C1F 9926   7.062   6.866  10.364 -0.0773  0.1260  0.2722
   99OSM     OF 9927   7.128   6.856  10.466  0.1417  0.0459 -0.3235
   99OSM    C2F 9928   7.030   6.997  10.303  0.0998 -0.5928  0.3454
   99OSM    H2F 9929   7.038   7.074  10.383 -0.6857 -1.7598  1.5910
   99OSM    H2G 9930   6.929   6.998  10.255  0.5050 -0.9022 -0.5353
   99OSM    C3F 9931   7.137   7.038  10.195 -0.0647 -0.1616  0.1304
   99OSM    H3F 9932   7.230   7.064  10.251  0.4657 -0.3513 -0.6524
   99OSM    H3G 9933   7.172   6.958  10.127 -1.2805  1.1547 -2.1647
   99OSM    C4F 9934   7.092   7.161  10.119  0.1826  0.2603 -0.0482
   99OSM    H4F 9935   7.179   7.212  10.074  0.2064 -0.4802 -0.8689
   99OSM    H4G 9936   7.053   7.237  10.189 -0.8831 -0.5193  0.2341
   99OSM    C5F 9937   6.994   7.131  10.004 -0.3990 -1.0705 -0.5086
   99OSM    H5F 9938   6.893   7.116  10.050 -0.7045 -0.6232 -1.0239
   99OSM    H5G 9939   7.028   7.038   9.953 -1.8493 -0.8793 -1.9226
   99OSM    C6F 9940   6.997   7.239   9.896 -0.0473  0.0607 -0.0290
   99OSM    H6F 9941   7.101   7.254   9.859 -0.8140  0.8205 -1.9631
   99OSM    H6G 9942   6.969   7.338   9.936 -2.4493 -0.4797 -0.2360
   99OSM    C7F 9943   6.924   7.206   9.762  0.2206  0.2596 -0.5483
   99OSM    H7F 9944   6.831   7.157   9.800  1.5188 -1.1048  0.9973
   99OSM    H7G 9945   6.995   7.139   9.711  1.1692 -0.7626  1.9484
   99OSM    C8F 9946   6.900   7.331   9.681 -0.7018 -0.1634 -0.4672
   99OSM    H8F 9947   6.994   7.375   9.643 -0.3961  0.1235  0.5687
   99OSM    H8G 9948   6.844   7.401   9.748 -1.0578 -0.3232 -0.5941
   99OSM    C9F 9949   6.812   7.285   9.572  0.7764  0.0663  0.0700
   99OSM    H9F 9950   6.714   7.253   9.611  1.9231 -1.4164  1.8712
   99OSM   C10F 9951   6.836   7.288   9.438  0.4288 -0.3139 -1.2139
   99OSM   H10F 9952   6.759   7.236   9.379 -0.8596 -1.4402  1.3047
   99OSM   C11F 9953   6.949   7.347   9.364 -1.6048 -0.2662 -0.0799
   99OSM   H11F 9954   7.011   7.420   9.420 -0.5943 -0.2377 -1.1746
   99OSM   H11G 9955   6.910   7.393   9.271 -1.3587  0.4131  0.1505
   99OSM   C12F 9956   7.064   7.243   9.325 -0.0372 -0.4421  1.1053
   99OSM   H12F 9957   7.131   7.295   9.253  0.3604 -1.6226  0.5931
   99OSM   H12G 9958   7.012   7.163   9.268  0.2998  1.0714 -1.4705
   99OSM   C13F 9959   7.154   7.202   9.439 -0.5961  0.7717  0.7517
   99OSM   H13F 9960   7.102   7.148   9.521  0.7065 -0.6114  0.7104
   99OSM   H13G 9961   7.202   7.295   9.476  2.1161 -0.2722  0.0920
   99OSM   C14F 9962   7.264   7.099   9.406  0.4763  0.0584  0.5375
   99OSM   H14F 9963   7.329   7.141   9.327 -0.2028 -1.9143 -1.1522
   99OSM   H14G 9964   7.219   7.006   9.365  0.9065  0.5503 -1.1265
   99OSM   C15F 9965   7.361   7.067   9.524  0.0472 -0.2501 -0.2285
   99OSM   H15F 9966   7.386   7.165   9.569  0.6347  0.1696 -1.4180
   99OSM   H15G 9967   7.454   7.033   9.475  0.6369  0.1662  0.5839
   99OSM   C16F 9968   7.308   6.949   9.618  0.3936 -0.8812  0.5622
   99OSM   H16F 9969   7.286   6.861   9.554 -0.7331  0.3874 -0.8616
   99OSM   H16G 9970   7.213   6.992   9.656  0.4882 -0.2485  0.0888
   99OSM   C17F 9971   7.398   6.913   9.729 -0.4677 -0.1960  0.0885
   99OSM   H17F 9972   7.498   6.877   9.697  1.0704  2.4636  1.5399
   99OSM   H17G 9973   7.339   6.843   9.792  1.5500 -0.8135  1.3654
   99OSM   C18F 9974   7.422   7.030   9.825 -0.2219  0.1279 -0.8185
   99OSM   H18F 9975   7.487   6.991   9.906 -2.0455 -0.1915  0.5538
   99OSM   H18G 9976   7.327   7.058   9.876  1.0190 -0.3575  1.9072
   99OSM   H18H 9977   7.471   7.118   9.778 -0.0312  0.7689  0.5483
  100OSM      N 9978   2.082   3.521  10.841 -0.0959 -0.8476 -0.0022
  100OSM    C15 9979   2.079   3.415  10.942 -0.6664 -0.3348 -0.0508
  100OSM   H15A 9980   2.075   3.317  10.897  1.0234 -0.3340 -0.2784
  100OSM   H15B 9981   1.989   3.420  11.002 -0.8290 -0.8786 -0.2392
  100OSM   H15C 9982   2.156   3.432  11.016 -1.5965  1.0895  0.6339
  100OSM    C14 9983   2.078   3.656  10.915 -0.5303  0.3997  0.1506
  100OSM   H14A 9984   2.166   3.666  10.976 -0.8207 -2.0053  1.0617
  100OSM   H14B 9985   1.997   3.662  10.986  1.0761 -0.8305  2.1758
  100OSM   H14C 9986   2.074   3.739  10.846 -0.3213  0.9722  0.8187
  100OSM    C13 9987   2.217   3.513  10.774 -0.4834 -0.7935  0.8292
  100OSM   H13A 9988   2.284   3.505  10.858  0.3467 -2.6983  0.0492
  100OSM   H13B 9989   2.242   3.599  10.713  2.1615 -1.7819  0.3621
  100OSM   H13C 9990   2.231   3.419  10.722 -0.1013 -0.9508  1.2112
  100OSM    C12 9991   1.967   3.517  10.745 -0.0541 -0.3109 -0.0696
  100OSM   H12A 9992   1.957   3.611  10.693 -1.6275  0.7285  1.9873
  100OSM   H12B 9993   1.871   3.506  10.793 -1.3437  2.1500 -1.8860
  100OSM    C11 9994   1.967   3.410  10.633 -0.0782 -0.2183  0.4975
  100OSM   H11A 9995   2.054   3.432  10.567 -1.5005  2.2887 -0.7103
  100OSM   H11B 9996   1.881   3.439  10.569 -0.3134  0.9566  1.3022
  100OSM      P 9997   1.834   3.224  10.735  0.2346 -0.4557 -0.3499
  100OSM    O13 9998   1.874   3.110  10.818  0.5809  0.2417 -0.1963
  100OSM    O14 9999   1.744   3.324  10.797 -0.0054 -0.3678  0.2468
  100OSM    O1110000   1.758   3.168  10.605  0.0559  0.3122 -0.0659
  100OSM    O1210001   1.971   3.280  10.683  0.2773 -0.6638  0.3415
  100OSM    C1S10002   1.830   3.091  10.497 -0.0999  0.2860 -0.2498
  100OSM    H1S10003   1.840   2.983  10.519 -0.1322  0.2086 -0.6085
  100OSM    H1T10004   1.929   3.127  10.461 -1.0290  3.4391  0.0002
  100OSM     NF10005   1.819   3.003  10.264  0.1223  0.1193  0.1619
  100OSM    HNF10006   1.889   3.031  10.199 -1.6493 -0.3427 -2.0789
  100OSM    C2S10007   1.758   3.103  10.350 -0.4238 -0.2307 -0.1474
  100OSM    H2S10008   1.650   3.077  10.360 -0.6311  1.2597  2.2814
  100OSM    C3S10009   1.757   3.253  10.305 -1.1972 -0.2161 -0.3429
  100OSM    H3S10010   1.860   3.295  10.300 -0.6746 -0.7864  3.1836
  100OSM     O310011   1.694   3.335  10.398  0.5320  0.4598  0.6062
  100OSM    HO310012   1.675   3.269  10.466  0.6258 -0.7229 -0.4799
  100OSM    C4S10013   1.698   3.275  10.164 -0.4031  0.1854  0.7591
  100OSM    H4S10014   1.772   3.285  10.084 -0.3373  0.3907  0.8439
  100OSM    C5S10015   1.563   3.312  10.143 -0.2715  0.0265 -0.2025
  100OSM    H5S10016   1.495   3.329  10.227  0.2650 -0.3724  0.3164
  100OSM    C6S10017   1.497   3.336  10.012  0.3431 -0.2646 -0.6620
  100OSM    H6S10018   1.488   3.446  10.004  0.7082 -0.0405  1.4639
  100OSM    H6T10019   1.395   3.298  10.031  1.0994 -1.4603  1.4062
  100OSM    C7S10020   1.548   3.286   9.872  0.2259  0.4745 -0.2895
  100OSM    H7S10021   1.579   3.181   9.891  1.4986  0.7847 -0.5700
  100OSM    H7T10022   1.639   3.344   9.846  1.6523 -2.1710 -1.5697
  100OSM    C8S10023   1.454   3.315   9.754  0.0956 -0.1768 -0.4498
  100OSM    H8S10024   1.424   3.418   9.779 -0.9206 -0.5527 -0.0738
  100OSM    H8T10025   1.364   3.250   9.768  0.6192 -0.4410  2.4782
  100OSM    C9S10026   1.520   3.306   9.618  0.1376  0.0836  0.3789
  100OSM    H9S10027   1.567   3.208   9.596  0.3262  0.3164 -0.2974
  100OSM    H9T10028   1.598   3.385   9.620 -0.8421  1.0719  2.4914
  100OSM   C10S10029   1.421   3.349   9.505 -0.1830  0.3897 -0.3720
  100OSM   H10S10030   1.396   3.450   9.543  0.6660 -0.5748  3.0915
  100OSM   H10T10031   1.337   3.277   9.495  1.9521 -2.1792 -1.2176
  100OSM   C11S10032   1.488   3.371   9.369  0.5026 -0.7769  0.3373
  100OSM   H11S10033   1.415   3.407   9.294  0.5566 -1.9459 -0.3054
  100OSM   H11T10034   1.519   3.272   9.328  1.6674 -1.0185  1.7242
  100OSM   C12S10035   1.611   3.464   9.365 -0.3580  0.6037  0.0062
  100OSM   H12S10036   1.689   3.425   9.434 -1.6663 -1.7645  0.2550
  100OSM   H12T10037   1.591   3.570   9.391  1.1953  0.8477  0.3304
  100OSM   C13S10038   1.676   3.459   9.222  0.2029 -0.0049 -0.2686
  100OSM   H13S10039   1.673   3.354   9.186  1.2862 -0.7351  1.6537
  100OSM   H13T10040   1.785   3.480   9.226 -0.1380  1.8811  0.2359
  100OSM   C14S10041   1.606   3.554   9.134 -0.6112 -0.9146  0.4711
  100OSM   H14S10042   1.627   3.655   9.173 -0.5926 -1.1838  1.1670
  100OSM   H14T10043   1.496   3.546   9.147 -0.3389 -1.1254  3.2933
  100OSM   C15S10044   1.660   3.537   8.990  0.6941 -0.4175 -0.1558
  100OSM   H15S10045   1.768   3.557   9.002  0.8360 -1.1996 -0.0664
  100OSM   H15T10046   1.633   3.626   8.929  0.8168 -0.3159 -0.0611
  100OSM   C16S10047   1.659   3.397   8.930  0.4151  0.0594  0.4412
  100OSM   H16S10048   1.553   3.373   8.907  0.3033 -1.7169  2.4709
  100OSM   H16T10049   1.701   3.316   8.993  1.3018  0.2064  0.0523
  100OSM   C17S10050   1.748   3.393   8.800  0.4496 -0.3522 -0.2563
  100OSM   H17S10051   1.754   3.288   8.765 -0.0333 -0.0451 -1.3278
  100OSM   H17T10052   1.847   3.429   8.834  0.8816 -1.6561 -0.0795
  100OSM   C18S10053   1.699   3.475   8.675  0.3694  0.4979  0.0082
  100OSM   H18S10054   1.672   3.576   8.711 -2.0636 -0.2606  0.5470
  100OSM   H18T10055   1.611   3.426   8.627 -0.5244  0.7120  1.3879
  100OSM   H18U10056   1.783   3.483   8.603  0.9613  0.0120  0.6382
  100OSM    C1F10057   1.789   2.873  10.268  0.1423 -0.5302 -0.5393
  100OSM     OF10058   1.729   2.822  10.364 -0.3324  0.0751  0.0882
  100OSM    C2F10059   1.834   2.796  10.148 -0.5679  0.6316  0.1129
  100OSM    H2F10060   1.917   2.730  10.179  2.6031  3.1948 -2.2315
  100OSM    H2G10061   1.871   2.872  10.076 -1.1735  2.1234  1.3003
  100OSM    C3F10062   1.723   2.708  10.083 -0.6329  0.0316 -0.9772
  100OSM    H3F10063   1.630   2.765  10.060 -1.8472 -0.8209  1.3974
  100OSM    H3G10064   1.686   2.650  10.170 -2.0484 -0.7718 -2.0651
  100OSM    C4F10065   1.775   2.620   9.970  0.4369 -0.1522  0.1357
  100OSM    H4F10066   1.714   2.529   9.956 -2.0917  1.4426  0.0875
  100OSM    H4G10067   1.873   2.574   9.992 -1.2582 -2.6962  3.2191
  100OSM    C5F10068   1.776   2.694   9.837  0.4602  0.1318  0.1070
  100OSM    H5F10069   1.795   2.802   9.854  0.9268 -0.0537  0.7984
  100OSM    H5G10070   1.670   2.694   9.804  0.4442 -0.4197  0.1522
  100OSM    C6F10071   1.863   2.639   9.726 -0.0945 -0.4942  0.3081
  100OSM    H6F10072   1.884   2.530   9.733 -1.2077 -0.7520 -0.0221
  100OSM    H6G10073   1.962   2.689   9.733  0.5312 -1.6532 -0.0365
  100OSM    C7F10074   1.812   2.680   9.586 -0.3695  0.0556  0.4549
  100OSM    H7F10075   1.787   2.788   9.578  3.2362  1.0680  0.8382
  100OSM    H7G10076   1.724   2.615   9.564  0.7942 -1.7455  0.8888
  100OSM    C8F10077   1.920   2.660   9.477 -0.4236  0.4068 -0.0630
  100OSM    H8F10078   2.011   2.696   9.529  0.3499  1.2645 -1.9031
  100OSM    H8G10079   1.900   2.730   9.393 -0.0785  0.2177 -0.3052
  100OSM    C9F10080   1.949   2.528   9.415  0.2869 -0.6140 -1.0672
  100OSM    H9F10081   1.934   2.441   9.481  1.9757  1.0813  1.7655
  100OSM   C10F10082   1.991   2.509   9.291 -0.8159  0.9708  0.2854
  100OSM   H10F10083   2.021   2.409   9.256 -1.0909  0.2112  2.1039
  100OSM   C11F10084   2.017   2.619   9.189 -0.6263 -0.0882  0.4388
  100OSM   H11F10085   2.027   2.719   9.236 -0.1051 -0.5390  1.3109
  100OSM   H11G10086   1.935   2.624   9.114 -2.4710 -1.9557  2.2032
  100OSM   C12F10087   2.148   2.593   9.118 -0.7575 -0.3305 -0.8834
  100OSM   H12F10088   2.157   2.483   9.106 -2.5124 -0.8390  1.6555
  100OSM   H12G10089   2.220   2.623   9.197  0.2082 -1.8057 -1.1663
  100OSM   C13F10090   2.176   2.672   8.985  0.0683  0.1730 -1.3960
  100OSM   H13F10091   2.282   2.647   8.963  0.2067  0.4670 -1.0718
  100OSM   H13G10092   2.177   2.780   9.012 -1.1619 -0.3910  1.1314
  100OSM   C14F10093   2.072   2.639   8.875  0.8406  0.2436  0.1265
  100OSM   H14F10094   1.990   2.707   8.907 -0.0249 -1.3510  1.4662
  100OSM   H14G10095   2.036   2.536   8.892  0.5043  0.1893 -0.8550
  100OSM   C15F10096   2.118   2.658   8.728 -0.4814 -0.2719 -0.1062
  100OSM   H15F10097   2.034   2.634   8.660 -0.1647 -0.5042 -0.4196
  100OSM   H15G10098   2.199   2.585   8.706 -0.9078 -0.1239 -2.3564
  100OSM   C16F10099   2.164   2.795   8.691  0.2207 -0.6074 -0.3446
  100OSM   H16F10100   2.242   2.831   8.762 -0.2207 -0.7567  0.2234
  100OSM   H16G10101   2.084   2.866   8.720  0.7289 -0.0552 -0.2615
  100OSM   C17F10102   2.213   2.803   8.548  0.0970  0.2605  0.0476
  100OSM   H17F10103   2.127   2.797   8.479  1.7062 -0.2739 -2.0190
  100OSM   H17G10104   2.280   2.715   8.536 -0.0180  0.4501 -2.4207
  100OSM   C18F10105   2.279   2.942   8.530  0.0579  0.2448 -0.4017
  100OSM   H18F10106   2.379   2.924   8.576  0.9535  2.1874 -1.4867
  100OSM   H18G10107   2.219   3.016   8.586 -1.6924 -1.0565 -0.4662
  100OSM   H18H10108   2.298   2.962   8.422  1.1901 -2.5661 -0.8279
  101OSM      N10109   4.729   2.406  10.968  0.3416 -0.3259 -0.4409
  101OSM    C1510110   4.781   2.270  10.995  0.0238  0.7545 -0.7345
  101OSM   H15A10111   4.877   2.257  10.948  0.0225 -1.1052 -0.3133
  101OSM   H15B10112   4.710   2.200  10.953  2.0543 -0.0693 -3.0016
  101OSM   H15C10113   4.795   2.252  11.101  0.2426  2.1752 -0.5058
  101OSM    C1410114   4.622   2.455  11.056 -0.2946  0.4243 -0.3630
  101OSM   H14A10115   4.592   2.555  11.031  1.0897  0.5581 -1.6466
  101OSM   H14B10116   4.657   2.456  11.158 -0.4529  2.2926 -0.3044
  101OSM   H14C10117   4.532   2.395  11.056 -0.3024  0.3890  1.2535
  101OSM    C1310118   4.847   2.503  10.969  0.0499 -0.5127 -0.9033
  101OSM   H13A10119   4.893   2.513  11.066  1.4346  1.4399 -1.6960
  101OSM   H13B10120   4.810   2.602  10.948 -3.0961 -1.3824  0.0816
  101OSM   H13C10121   4.926   2.475  10.900  0.1891 -0.7201 -0.6628
  101OSM    C1210122   4.675   2.404  10.823  0.0692  0.2999 -0.8054
  101OSM   H12A10123   4.749   2.374  10.751 -2.3416 -1.9799 -2.5167
  101OSM   H12B10124   4.659   2.509  10.802  1.3180  0.7649  0.4142
  101OSM    C1110125   4.540   2.328  10.794  0.4437  0.7854 -0.2984
  101OSM   H11A10126   4.512   2.339  10.687 -1.7911  0.6626  0.2173
  101OSM   H11B10127   4.451   2.361  10.852  0.5339  1.6390 -0.6443
  101OSM      P10128   4.476   2.098  10.894 -0.1638 -0.4593  0.1216
  101OSM    O1310129   4.563   2.059  11.012  0.2795 -0.3021 -0.8124
  101OSM    O1410130   4.338   2.145  10.922 -0.0050  0.8940  0.1237
  101OSM    O1110131   4.470   1.971  10.802 -0.1358 -0.3287  0.3885
  101OSM    O1210132   4.559   2.191  10.803 -0.5268  0.3266 -0.1189
  101OSM    C1S10133   4.395   1.965  10.683 -0.1155  0.6255 -0.1858
  101OSM    H1S10134   4.310   2.037  10.680 -0.3827  0.2853 -1.6250
  101OSM    H1T10135   4.350   1.864  10.674  2.8718 -0.7732 -0.8882
  101OSM     NF10136   4.413   2.000  10.443  0.1712 -0.3862  0.1145
  101OSM    HNF10137   4.383   1.927  10.382 -0.0617  0.4452 -0.7899
  101OSM    C2S10138   4.493   1.977  10.556  0.0983  0.2225 -0.1069
  101OSM    H2S10139   4.548   2.071  10.578  0.2503  0.2610 -0.6315
  101OSM    C3S10140   4.585   1.855  10.544  0.3629  0.4023 -0.4713
  101OSM    H3S10141   4.521   1.765  10.538 -4.2980  3.1627  1.6591
  101OSM     O310142   4.676   1.838  10.655  0.1558  0.3282 -0.0567
  101OSM    HO310143   4.630   1.888  10.723  1.4292  0.5460  0.6752
  101OSM    C4S10144   4.666   1.867  10.423 -0.0457 -0.1329  0.7921
  101OSM    H4S10145   4.736   1.952  10.436  1.3931 -1.3599  1.3589
  101OSM    C5S10146   4.675   1.779  10.321  0.1037  0.1992  0.5185
  101OSM    H5S10147   4.619   1.684  10.324  1.9875 -0.9535  0.6207
  101OSM    C6S10148   4.772   1.784  10.200 -0.1989  0.4154  0.3930
  101OSM    H6S10149   4.835   1.693  10.192 -1.6092 -0.5061 -0.7436
  101OSM    H6T10150   4.843   1.869  10.211  0.8101 -0.2468 -0.6760
  101OSM    C7S10151   4.709   1.801  10.063  1.5211 -0.5160  0.1522
  101OSM    H7S10152   4.636   1.884  10.074  0.5849 -0.8139 -2.8647
  101OSM    H7T10153   4.656   1.712  10.023  1.9026 -1.0427  0.8093
  101OSM    C8S10154   4.796   1.853   9.947 -0.2518 -0.1022  0.0953
  101OSM    H8S10155   4.880   1.782   9.935  0.3646  0.8054 -1.0773
  101OSM    H8T10156   4.843   1.950   9.975 -1.0097  0.1702  0.4496
  101OSM    C9S10157   4.727   1.868   9.806  0.1245  0.0922 -0.3035
  101OSM    H9S10158   4.653   1.950   9.817 -1.7003 -1.6085  0.9965
  101OSM    H9T10159   4.674   1.773   9.784 -0.3189  0.2871 -0.0825
  101OSM   C10S10160   4.828   1.881   9.700 -0.6135 -0.7042  0.5093
  101OSM   H10S10161   4.907   1.804   9.710  1.4543  1.4825  2.2426
  101OSM   H10T10162   4.877   1.981   9.700 -1.3045 -0.3565  0.0451
  101OSM   C11S10163   4.753   1.870   9.562 -0.7225 -0.5835  1.5052
  101OSM   H11S10164   4.662   1.933   9.566  0.9204  1.9177  2.8553
  101OSM   H11T10165   4.713   1.767   9.554 -0.1895 -0.6558 -1.9930
  101OSM   C12S10166   4.845   1.917   9.442 -0.8785  0.0974  0.0572
  101OSM   H12S10167   4.933   1.850   9.435  0.3986  1.8070 -1.0707
  101OSM   H12T10168   4.891   2.013   9.473 -0.0634  0.3490 -1.7960
  101OSM   C13S10169   4.770   1.958   9.312 -0.0581  0.5784  0.0285
  101OSM   H13S10170   4.707   2.048   9.329  0.1283  1.0077 -1.4808
  101OSM   H13T10171   4.693   1.880   9.289 -0.4331  1.4131 -1.7208
  101OSM   C14S10172   4.865   1.993   9.198  0.0171  0.2456  0.0250
  101OSM   H14S10173   4.865   1.902   9.135  1.4780 -0.3659  0.8535
  101OSM   H14T10174   4.971   2.005   9.229 -0.6033  1.6005  1.7738
  101OSM   C15S10175   4.837   2.116   9.109 -0.0002 -0.3953 -0.2993
  101OSM   H15S10176   4.913   2.118   9.028 -0.8686 -2.9186 -1.2804
  101OSM   H15T10177   4.832   2.208   9.171 -1.5146 -1.6167  1.5064
  101OSM   C16S10178   4.701   2.116   9.030 -0.2929  0.3375 -0.1306
  101OSM   H16S10179   4.613   2.130   9.098 -2.1037  0.6706 -2.4289
  101OSM   H16T10180   4.679   2.017   8.985  1.9944 -0.1247 -0.3421
  101OSM   C17S10181   4.710   2.221   8.913 -0.0457  0.3530  0.5485
  101OSM   H17S10182   4.806   2.227   8.859 -0.4477 -1.0676 -0.3878
  101OSM   H17T10183   4.695   2.316   8.968  1.0142 -0.0796  1.6240
  101OSM   C18S10184   4.591   2.208   8.812  0.0133 -0.3755 -0.0107
  101OSM   H18S10185   4.577   2.100   8.791  1.6358 -0.7657  0.7335
  101OSM   H18T10186   4.603   2.270   8.720  2.0251  1.6094  1.4941
  101OSM   H18U10187   4.500   2.235   8.869  1.3186 -0.9561  2.4685
  101OSM    C1F10188   4.384   2.122  10.401  0.2902  0.1263  0.4318
  101OSM     OF10189   4.418   2.227  10.455 -0.0743 -0.9491  0.0388
  101OSM    C2F10190   4.301   2.113  10.275 -0.0922 -0.7811 -0.0355
  101OSM    H2F10191   4.204   2.066  10.301 -0.2180 -0.6681 -0.3071
  101OSM    H2G10192   4.352   2.053  10.197  0.4448  1.2241 -1.2932
  101OSM    C3F10193   4.273   2.253  10.212 -0.0619  0.4448  0.0242
  101OSM    H3F10194   4.231   2.322  10.287  0.8429  1.3092 -0.2573
  101OSM    H3G10195   4.188   2.246  10.140 -0.4026  1.0779  0.3606
  101OSM    C4F10196   4.396   2.314  10.149 -0.5842 -0.2488 -0.4402
  101OSM    H4F10197   4.446   2.240  10.083  0.7955 -1.1954  1.5624
  101OSM    H4G10198   4.470   2.336  10.228  0.7748 -1.6774 -1.2545
  101OSM    C5F10199   4.365   2.441  10.070  0.3594  0.8975  0.0590
  101OSM    H5F10200   4.317   2.513  10.140 -0.5608 -0.0653  0.4522
  101OSM    H5G10201   4.293   2.417   9.988 -0.1256 -1.4702  1.0882
  101OSM    C6F10202   4.488   2.510  10.005 -0.0715 -0.2030  0.1691
  101OSM    H6F10203   4.464   2.591   9.933  0.4807  0.0875  0.3075
  101OSM    H6G10204   4.542   2.569  10.082 -4.6593  2.8985  1.4012
  101OSM    C7F10205   4.580   2.399   9.941  0.0165 -0.3514 -0.4860
  101OSM    H7F10206   4.621   2.332  10.020 -0.9181  0.1496  0.4589
  101OSM    H7G10207   4.660   2.464   9.900 -0.4612 -0.1880 -1.1933
  101OSM    C8F10208   4.511   2.322   9.832  1.0756  0.5514  0.3934
  101OSM    H8F10209   4.447   2.396   9.779  0.7035 -0.1846 -0.1996
  101OSM    H8G10210   4.450   2.238   9.870  0.3692  1.0745  0.4358
  101OSM    C9F10211   4.618   2.260   9.747 -0.1793  0.2591  0.1025
  101OSM    H9F10212   4.695   2.202   9.799 -0.5486  0.1038  0.4791
  101OSM   C10F10213   4.629   2.280   9.615  0.5548 -0.5354  0.8485
  101OSM   H10F10214   4.712   2.233   9.560  0.2706 -0.1294  0.0592
  101OSM   C11F10215   4.534   2.373   9.536 -0.0562  0.1225 -0.8311
  101OSM   H11F10216   4.513   2.459   9.604  1.9137  0.4356 -0.5793
  101OSM   H11G10217   4.442   2.314   9.514 -0.4144  0.3507 -0.0140
  101OSM   C12F10218   4.598   2.430   9.408 -0.3462  0.2951 -0.2884
  101OSM   H12F10219   4.538   2.497   9.344  1.1226  2.3420  0.3863
  101OSM   H12G10220   4.624   2.343   9.345 -0.1544  0.4693 -0.4477
  101OSM   C13F10221   4.715   2.522   9.428  0.4096 -0.1617  0.4897
  101OSM   H13F10222   4.774   2.494   9.519  0.9657  0.1637  0.2386
  101OSM   H13G10223   4.683   2.623   9.459  0.9193  1.0054 -2.5280
  101OSM   C14F10224   4.808   2.530   9.305 -0.1938  0.5371 -0.0296
  101OSM   H14F10225   4.844   2.426   9.297  3.1998  1.5253  0.6737
  101OSM   H14G10226   4.899   2.593   9.320 -0.8257  1.8698 -1.5359
  101OSM   C15F10227   4.743   2.573   9.171 -0.0747  0.0868  0.2123
  101OSM   H15F10228   4.686   2.668   9.179 -2.6226 -1.3296 -0.1558
  101OSM   H15G10229   4.670   2.497   9.137 -0.6846  1.3165 -1.3083
  101OSM   C16F10230   4.847   2.572   9.061  0.6538 -0.4471 -0.1817
  101OSM   H16F10231   4.898   2.474   9.056  0.8972 -0.4193  1.3862
  101OSM   H16G10232   4.929   2.642   9.089 -0.5109  1.3853 -1.1267
  101OSM   C17F10233   4.777   2.617   8.932  0.5612 -0.1505  0.3678
  101OSM   H17F10234   4.765   2.728   8.930 -0.7016 -0.2892 -0.6040
  101OSM   H17G10235   4.670   2.591   8.926 -0.4541  3.3375  1.0912
  101OSM   C18F10236   4.852   2.579   8.812  0.1748 -0.1221  0.3120
  101OSM   H18F10237   4.958   2.612   8.813 -0.2657  1.3736  0.6524
  101OSM   H18G10238   4.807   2.633   8.725  2.7814  1.0038 -0.4299
  101OSM   H18H10239   4.853   2.469   8.801 -1.1855 -0.1799  0.6081
  102OSM      N10240   6.245   3.493  10.850  0.0226 -0.1118 -0.3029
  102OSM    C1510241   6.145   3.459  10.956  0.3694 -0.0121 -0.6455
  102OSM   H15A10242   6.129   3.551  11.009  0.2394  0.8794 -2.1665
  102OSM   H15B10243   6.209   3.401  11.021  2.4066 -1.8115 -3.9482
  102OSM   H15C10244   6.055   3.404  10.932 -0.5967  0.9414  0.6686
  102OSM    C1410245   6.175   3.580  10.749 -0.5759  0.4960 -0.2230
  102OSM   H14A10246   6.091   3.536  10.697  1.3212 -0.0908 -3.0168
  102OSM   H14B10247   6.247   3.599  10.671  1.7916 -1.6270  1.3051
  102OSM   H14C10248   6.153   3.678  10.791  1.6081  1.8341 -1.9795
  102OSM    C1310249   6.367   3.553  10.907 -0.4036 -0.5196 -0.4636
  102OSM   H13A10250   6.420   3.486  10.973  1.6173 -0.1473 -1.6437
  102OSM   H13B10251   6.349   3.648  10.954  1.0875 -0.0760 -0.7454
  102OSM   H13C10252   6.440   3.565  10.828 -0.0742 -0.7484 -0.1955
  102OSM    C1210253   6.283   3.362  10.776  0.2737 -0.3847  0.4101
  102OSM   H12A10254   6.197   3.316  10.730 -1.1928  2.0637  0.5552
  102OSM   H12B10255   6.316   3.292  10.852  1.0609 -1.1697 -0.6230
  102OSM    C1110256   6.399   3.365  10.678 -0.0831  0.6124 -0.2980
  102OSM   H11A10257   6.376   3.449  10.609 -0.0737 -1.0549 -2.4530
  102OSM   H11B10258   6.394   3.278  10.608 -1.5075  1.3052 -1.1047
  102OSM      P10259   6.641   3.265  10.718 -0.6716  0.0398 -0.3957
  102OSM    O1310260   6.764   3.298  10.798 -0.3441 -0.1798 -0.4013
  102OSM    O1410261   6.585   3.139  10.744  0.0681  0.7472 -0.4931
  102OSM    O1110262   6.677   3.281  10.561  0.6363 -0.1903 -0.8238
  102OSM    O1210263   6.534   3.380  10.731 -0.4278  0.1621 -0.0178
  102OSM    C1S10264   6.727   3.402  10.514  0.6509 -0.6136 -0.2161
  102OSM    H1S10265   6.823   3.428  10.564  1.5062 -3.3278 -0.2634
  102OSM    H1T10266   6.653   3.483  10.533  1.1157 -0.3949  0.7268
  102OSM     NF10267   6.789   3.543  10.310  0.2081  0.1440  0.1737
  102OSM    HNF10268   6.707   3.595  10.286 -0.8888 -0.4532  2.3266
  102OSM    C2S10269   6.751   3.407  10.360 -0.3397  0.0138 -0.1150
  102OSM    H2S10270   6.839   3.340  10.351 -0.2354  0.1176  0.1046
  102OSM    C3S10271   6.639   3.351  10.279 -0.0200  0.5090  0.5072
  102OSM    H3S10272   6.542   3.397  10.309 -1.3069 -2.2932  0.9007
  102OSM     O310273   6.621   3.212  10.307  0.0195  0.4526 -0.4286
  102OSM    HO310274   6.662   3.193  10.391  0.1076 -1.4477 -0.8727
  102OSM    C4S10275   6.656   3.362  10.132 -0.8164  0.6421  0.1834
  102OSM    H4S10276   6.727   3.289  10.091 -0.7069  0.9543 -0.1903
  102OSM    C5S10277   6.602   3.441  10.041  0.3846  0.7286  0.3368
  102OSM    H5S10278   6.519   3.504  10.076 -1.3074 -0.4957 -1.2661
  102OSM    C6S10279   6.618   3.432   9.889  0.5015 -0.3381  0.1565
  102OSM    H6S10280   6.666   3.337   9.856  1.3937  0.6409 -1.5246
  102OSM    H6T10281   6.697   3.504   9.857  0.4376  0.3744  1.5447
  102OSM    C7S10282   6.490   3.442   9.806 -0.6004  0.1526  0.1231
  102OSM    H7S10283   6.424   3.527   9.834 -0.3833 -0.2295  1.9759
  102OSM    H7T10284   6.423   3.359   9.839  1.0067 -1.5839 -0.8248
  102OSM    C8S10285   6.509   3.423   9.657  0.0197  0.0019  0.1880
  102OSM    H8S10286   6.559   3.327   9.633 -0.4033 -0.2971  0.4838
  102OSM    H8T10287   6.560   3.512   9.615  0.2264 -0.5882 -0.8477
  102OSM    C9S10288   6.376   3.415   9.579 -0.4445 -0.2121 -0.2411
  102OSM    H9S10289   6.322   3.511   9.575 -1.8860 -0.9799 -4.3349
  102OSM    H9T10290   6.316   3.336   9.630 -1.5061  0.7725  0.0769
  102OSM   C10S10291   6.384   3.376   9.434 -0.4058  0.3057  0.4321
  102OSM   H10S10292   6.283   3.352   9.394 -0.2166 -0.9900  0.7018
  102OSM   H10T10293   6.456   3.295   9.416 -0.9436 -0.7018  2.4761
  102OSM   C11S10294   6.432   3.489   9.342  0.1276  0.4977 -0.3257
  102OSM   H11S10295   6.538   3.511   9.368 -0.5064  3.2453  0.2465
  102OSM   H11T10296   6.366   3.573   9.370 -2.9358 -2.0192  0.6510
  102OSM   C12S10297   6.410   3.450   9.192  0.1321 -0.4688 -0.8175
  102OSM   H12S10298   6.301   3.428   9.182 -0.3805  0.2847  1.9997
  102OSM   H12T10299   6.476   3.368   9.156  1.2083  0.0780 -0.1329
  102OSM   C13S10300   6.435   3.558   9.094  0.7209  0.1727  0.8685
  102OSM   H13S10301   6.542   3.589   9.094  1.1793 -1.3242  0.8833
  102OSM   H13T10302   6.383   3.652   9.123  0.1452  0.4509 -0.9048
  102OSM   C14S10303   6.403   3.512   8.953  0.4048 -0.0255 -0.8823
  102OSM   H14S10304   6.306   3.462   8.932 -0.6102  1.7698 -0.6525
  102OSM   H14T10305   6.483   3.435   8.942 -1.2303 -2.2509  1.4661
  102OSM   C15S10306   6.406   3.639   8.860  0.7025  0.6572  0.0522
  102OSM   H15S10307   6.497   3.701   8.877  1.5525 -0.3533 -0.6478
  102OSM   H15T10308   6.317   3.701   8.885  1.0105  1.2278 -0.2495
  102OSM   C16S10309   6.407   3.589   8.711  0.1090  0.2226 -0.1998
  102OSM   H16S10310   6.310   3.541   8.687 -0.3513  1.2097 -0.3766
  102OSM   H16T10311   6.489   3.514   8.707  0.4272  0.5539  0.0520
  102OSM   C17S10312   6.446   3.699   8.597 -0.5404  0.6092 -0.5037
  102OSM   H17S10313   6.446   3.649   8.498  1.8877  1.7623 -1.1535
  102OSM   H17T10314   6.549   3.738   8.606  0.3350 -1.6585  0.1120
  102OSM   C18S10315   6.337   3.808   8.589  0.2840 -0.5664  0.2901
  102OSM   H18S10316   6.240   3.759   8.562 -0.7428  2.5737 -2.3131
  102OSM   H18T10317   6.365   3.878   8.507 -0.0226 -0.1702  0.5191
  102OSM   H18U10318   6.322   3.865   8.683  0.2278  3.6303 -2.0072
  102OSM    C1F10319   6.901   3.603  10.344 -0.7112 -1.2015 -1.0253
  102OSM     OF10320   6.991   3.545  10.409  0.0444  0.3366  0.0068
  102OSM    C2F10321   6.925   3.750  10.313 -0.1858 -0.0408  0.0966
  102OSM    H2F10322   6.966   3.792  10.407  0.7833  1.7103 -1.0666
  102OSM    H2G10323   6.832   3.797  10.273  2.5511  3.6097 -2.5924
  102OSM    C3F10324   7.038   3.772  10.208 -0.4381  0.3996 -0.1232
  102OSM    H3F10325   7.011   3.733  10.107  3.7835  1.0196 -1.6968
  102OSM    H3G10326   7.128   3.716  10.242 -0.2184 -1.7915 -3.6965
  102OSM    C4F10327   7.077   3.924  10.196 -0.7259  0.4292  0.0115
  102OSM    H4F10328   7.171   3.941  10.139 -1.1837 -1.9266 -1.6088
  102OSM    H4G10329   7.106   3.954  10.299 -0.5672 -0.4677  0.2411
  102OSM    C5F10330   6.965   4.017  10.150  0.0867 -0.3369  0.3726
  102OSM    H5F10331   6.893   4.023  10.235  0.8769  0.8586  0.9835
  102OSM    H5G10332   6.912   3.965  10.067  1.0870  0.5579 -0.8749
  102OSM    C6F10333   6.997   4.164  10.104  0.6153 -0.0708 -0.6488
  102OSM    H6F10334   7.070   4.171  10.021  0.7988 -2.6358 -0.7814
  102OSM    H6G10335   7.052   4.209  10.189  1.1230  0.0123 -1.0190
  102OSM    C7F10336   6.863   4.245  10.068 -0.6965  0.2370  0.0211
  102OSM    H7F10337   6.800   4.247  10.161 -0.3891 -3.2169  0.4270
  102OSM    H7G10338   6.804   4.176  10.004  1.2954 -2.6912  1.1785
  102OSM    C8F10339   6.881   4.382  10.008 -0.3486 -0.4678  0.5212
  102OSM    H8F10340   6.912   4.372   9.902 -2.4260  1.6293 -0.3704
  102OSM    H8G10341   6.966   4.423  10.066  1.1889 -1.9557 -0.5976
  102OSM    C9F10342   6.759   4.472  10.019  0.1210  0.5116  0.2008
  102OSM    H9F10343   6.713   4.473  10.119 -0.5285 -1.0763 -0.0617
  102OSM   C10F10344   6.690   4.515   9.916 -0.0315 -0.9787 -0.2707
  102OSM   H10F10345   6.603   4.572   9.951  0.5418  0.8152 -1.6275
  102OSM   C11F10346   6.709   4.483   9.768 -0.2630 -0.1548 -0.6332
  102OSM   H11F10347   6.624   4.423   9.729 -0.1680 -0.7070 -0.0272
  102OSM   H11G10348   6.799   4.417   9.759 -0.4180 -0.2333 -1.6970
  102OSM   C12F10349   6.738   4.598   9.669 -0.1386 -0.2063  0.1293
  102OSM   H12F10350   6.805   4.671   9.719 -0.4313 -0.8289  1.4735
  102OSM   H12G10351   6.642   4.652   9.657 -0.6682 -1.5215 -2.0473
  102OSM   C13F10352   6.797   4.551   9.533 -0.8967 -0.0332 -0.8676
  102OSM   H13F10353   6.895   4.504   9.553 -1.7832 -0.1261  4.5938
  102OSM   H13G10354   6.824   4.642   9.475  1.3195 -1.0913 -1.6103
  102OSM   C14F10355   6.718   4.449   9.446  0.7590  0.7040 -0.2267
  102OSM   H14F10356   6.618   4.494   9.434  0.8024  0.7174 -0.5423
  102OSM   H14G10357   6.720   4.351   9.499  0.9624  0.0449 -1.4098
  102OSM   C15F10358   6.796   4.424   9.318 -0.0944  0.2637 -0.1970
  102OSM   H15F10359   6.763   4.327   9.275 -2.0291  1.2666 -1.1113
  102OSM   H15G10360   6.905   4.435   9.337  0.1593  1.4024 -2.0083
  102OSM   C16F10361   6.753   4.531   9.209 -0.0069  0.8084  0.3835
  102OSM   H16F10362   6.788   4.635   9.230  1.4204  0.2947  0.6780
  102OSM   H16G10363   6.644   4.518   9.195 -0.0162  1.5587 -0.3110
  102OSM   C17F10364   6.828   4.492   9.071  0.2633  0.3820 -0.2535
  102OSM   H17F10365   6.861   4.386   9.075  1.0884  0.6521  0.8141
  102OSM   H17G10366   6.920   4.554   9.063  0.9776 -0.5294  0.5958
  102OSM   C18F10367   6.749   4.509   8.941 -0.0187  0.2712 -0.3373
  102OSM   H18F10368   6.788   4.456   8.851  2.6668  0.8807  0.3713
  102OSM   H18G10369   6.745   4.620   8.938 -1.5561  0.2446  0.0217
  102OSM   H18H10370   6.645   4.475   8.958 -0.1279  1.6515  2.2695
  103OSM      N10371   4.718   1.484  10.815  0.5829  0.2141  0.2670
  103OSM    C1510372   4.722   1.532  10.677 -0.4067 -0.0834  0.2087
  103OSM   H15A10373   4.646   1.482  10.619 -1.9954  1.6293  0.7002
  103OSM   H15B10374   4.818   1.512  10.632 -0.4077  1.1622 -0.3818
  103OSM   H15C10375   4.713   1.639  10.671 -2.1738  0.0801  3.5807
  103OSM    C1410376   4.752   1.338  10.825  0.5671  0.8459 -0.1778
  103OSM   H14A10377   4.678   1.284  10.768  0.2398  2.6948 -1.6279
  103OSM   H14B10378   4.737   1.296  10.923 -0.6787 -0.7368 -0.9937
  103OSM   H14C10379   4.851   1.311  10.793  0.2632 -2.4821  1.3223
  103OSM    C1310380   4.813   1.558  10.903 -0.1895  0.1785  0.2313
  103OSM   H13A10381   4.915   1.526  10.887  0.5354  1.7330  1.4744
  103OSM   H13B10382   4.792   1.531  11.005 -0.8995 -0.7999 -0.1509
  103OSM   H13C10383   4.804   1.663  10.877  0.4361  0.2792  0.4052
  103OSM    C1210384   4.581   1.505  10.872 -0.2828  0.3422 -0.0420
  103OSM   H12A10385   4.572   1.611  10.890  0.1945  0.6162 -1.3151
  103OSM   H12B10386   4.566   1.450  10.964 -1.2900  0.2329 -0.2596
  103OSM    C1110387   4.462   1.454  10.785  0.8848 -0.2208  0.4928
  103OSM   H11A10388   4.453   1.503  10.686  0.4277  1.3894  1.3066
  103OSM   H11B10389   4.370   1.500  10.825  0.9650  1.3425 -1.0177
  103OSM      P10390   4.394   1.228  10.894  0.7898  0.3413  0.2034
  103OSM    O1310391   4.490   1.148  10.972 -0.4037 -0.0607 -0.5629
  103OSM    O1410392   4.299   1.316  10.966 -0.5019  0.6182 -0.4979
  103OSM    O1110393   4.300   1.131  10.811 -0.3366  0.3124 -0.1760
  103OSM    O1210394   4.467   1.309  10.788 -0.4654 -0.3061 -0.3605
  103OSM    C1S10395   4.207   1.189  10.714 -0.2959 -0.7364  0.8886
  103OSM    H1S10396   4.196   1.300  10.711  0.1880 -0.6998 -1.8295
  103OSM    H1T10397   4.107   1.142  10.729 -0.8795 -0.2974 -1.2482
  103OSM     NF10398   4.143   1.204  10.479  0.0557  0.3080  0.0222
  103OSM    HNF10399   4.069   1.150  10.439  0.0571  0.5708 -0.3350
  103OSM    C2S10400   4.237   1.148  10.564  0.1577  0.7787 -0.4336
  103OSM    H2S10401   4.334   1.194  10.534 -0.8251  2.6567 -0.8815
  103OSM    C3S10402   4.222   0.995  10.551  0.0488  0.3913  0.6361
  103OSM    H3S10403   4.117   0.960  10.548 -0.0556  0.7377 -0.5750
  103OSM     O310404   4.272   0.915  10.656  0.4255  0.0083 -0.3727
  103OSM    HO310405   4.289   0.985  10.720 -0.6558 -1.5047  1.6621
  103OSM    C4S10406   4.287   0.938  10.413 -0.0720  0.6694 -0.3265
  103OSM    H4S10407   4.393   0.964  10.402  0.0343  0.3584 -0.0571
  103OSM    C5S10408   4.236   0.865  10.309 -0.3699  0.1600 -0.2604
  103OSM    H5S10409   4.131   0.837  10.296 -0.3158  0.4542 -1.4552
  103OSM    C6S10410   4.315   0.817  10.191 -0.2740  0.5241  0.3815
  103OSM    H6S10411   4.295   0.710  10.173 -0.9763  0.7565 -0.2917
  103OSM    H6T10412   4.422   0.820  10.218 -0.2741 -2.1754  0.9472
  103OSM    C7S10413   4.291   0.914  10.072  0.0618 -0.4198  0.0231
  103OSM    H7S10414   4.319   1.020  10.085  0.2543 -0.2643 -1.4711
  103OSM    H7T10415   4.186   0.906  10.037  0.2949  0.4368 -0.9332
  103OSM    C8S10416   4.378   0.871   9.948 -0.4097  0.6503  0.1544
  103OSM    H8S10417   4.360   0.763   9.929  0.7553  0.4157  0.3171
  103OSM    H8T10418   4.480   0.901   9.978 -1.3085  3.7892  0.4451
  103OSM    C9S10419   4.332   0.948   9.836 -0.4764  0.6140 -0.3643
  103OSM    H9S10420   4.318   1.057   9.855 -0.6960  0.6810 -0.8875
  103OSM    H9T10421   4.234   0.918   9.793 -2.9146  1.2652  4.0722
  103OSM   C10S10422   4.426   0.929   9.718  0.4161 -0.5126 -0.4641
  103OSM   H10S10423   4.427   0.824   9.682 -1.3727 -2.0907  3.6092
  103OSM   H10T10424   4.532   0.948   9.748  0.0597 -1.2918  1.3735
  103OSM   C11S10425   4.400   1.027   9.605 -0.5875  0.2760  0.3018
  103OSM   H11S10426   4.411   1.132   9.639  1.9581  1.3436 -3.1646
  103OSM   H11T10427   4.292   1.022   9.579 -0.4469 -0.2500 -0.2038
  103OSM   C12S10428   4.501   1.005   9.490 -0.1377 -0.4163 -0.9266
  103OSM   H12S10429   4.463   0.920   9.430  1.1688 -1.1226 -0.7823
  103OSM   H12T10430   4.601   0.978   9.529  0.5766  0.1519 -2.3002
  103OSM   C13S10431   4.517   1.121   9.397  0.3721 -0.5726  0.5536
  103OSM   H13S10432   4.520   1.215   9.456 -0.1393  0.7192 -1.4186
  103OSM   H13T10433   4.427   1.126   9.332  0.6326 -2.7607 -0.0716
  103OSM   C14S10434   4.640   1.110   9.310 -0.0861  0.1065  0.1505
  103OSM   H14S10435   4.667   1.005   9.287 -0.0609  0.0821  0.2930
  103OSM   H14T10436   4.732   1.146   9.361  2.5989 -3.0234 -2.0443
  103OSM   C15S10437   4.617   1.201   9.192 -0.9956  1.1206 -0.2427
  103OSM   H15S10438   4.609   1.303   9.237  0.6234  0.9732  0.4389
  103OSM   H15T10439   4.519   1.169   9.151 -2.1242 -0.2893  3.1528
  103OSM   C16S10440   4.732   1.200   9.087 -0.2675 -0.4084  0.5453
  103OSM   H16S10441   4.745   1.096   9.050 -4.0815 -0.9958  0.4387
  103OSM   H16T10442   4.827   1.225   9.138  0.6351 -2.7462  0.1278
  103OSM   C17S10443   4.710   1.310   8.974 -0.5746 -0.0912 -0.8437
  103OSM   H17S10444   4.807   1.323   8.921 -0.2145  2.2021  0.2256
  103OSM   H17T10445   4.672   1.399   9.030  1.6657 -0.0274  0.7194
  103OSM   C18S10446   4.603   1.276   8.876 -0.3246 -0.0423 -0.5069
  103OSM   H18S10447   4.650   1.191   8.823  0.3429  0.4495 -0.7315
  103OSM   H18T10448   4.588   1.350   8.794 -0.1491 -2.2683 -2.6603
  103OSM   H18U10449   4.510   1.239   8.922  0.1909 -1.0486 -0.2553
  103OSM    C1F10450   4.138   1.334  10.455  0.2618  0.0954 -0.4410
  103OSM     OF10451   4.222   1.412  10.502 -0.2334 -0.3801  0.0091
  103OSM    C2F10452   4.020   1.383  10.374  0.5035  0.3981  0.2466
  103OSM    H2F10453   3.938   1.392  10.448  0.0201 -2.9566  0.2589
  103OSM    H2G10454   4.011   1.304  10.297  0.3726 -0.7014  1.3628
  103OSM    C3F10455   4.047   1.520  10.303  0.2345  0.5807  0.2913
  103OSM    H3F10456   4.149   1.504  10.261  0.5059  0.6761  0.9129
  103OSM    H3G10457   4.036   1.605  10.373 -0.5717  1.4219 -0.8158
  103OSM    C4F10458   3.944   1.540  10.184  0.2437  0.0900 -0.1416
  103OSM    H4F10459   3.845   1.525  10.232  0.4059 -4.1260 -0.6927
  103OSM    H4G10460   3.962   1.455  10.115 -1.3499  0.4158 -1.0086
  103OSM    C5F10461   3.966   1.677  10.122  0.0224  0.3014 -0.4079
  103OSM    H5F10462   3.935   1.754  10.196  2.0263  0.7769 -0.0138
  103OSM    H5G10463   3.907   1.686  10.029  0.5121 -0.7599 -0.8387
  103OSM    C6F10464   4.112   1.696  10.074  0.1940  0.1557 -0.7961
  103OSM    H6F10465   4.138   1.604  10.016  0.1710  1.1185 -2.3908
  103OSM    H6G10466   4.175   1.698  10.165 -0.8496  0.2290 -0.0563
  103OSM    C7F10467   4.129   1.817   9.985 -0.0777  0.1862 -0.0418
  103OSM    H7F10468   4.096   1.903  10.046 -1.3225 -1.6891  2.0915
  103OSM    H7G10469   4.054   1.818   9.903 -3.0879  2.5575  2.5236
  103OSM    C8F10470   4.278   1.817   9.933  0.4282  0.0902  0.2911
  103OSM    H8F10471   4.271   1.744   9.850 -1.1729 -0.5727  0.9723
  103OSM    H8G10472   4.348   1.792  10.015  0.2534 -0.5979  0.2364
  103OSM    C9F10473   4.306   1.961   9.902 -0.2895  0.7888  0.2480
  103OSM    H9F10474   4.307   2.033   9.986  0.4742  0.5257  0.4704
  103OSM   C10F10475   4.328   2.000   9.777 -0.2621 -0.1189  0.0830
  103OSM   H10F10476   4.348   2.107   9.761 -4.2285  0.5871 -1.3648
  103OSM   C11F10477   4.324   1.913   9.656  0.2122 -0.1328  0.5775
  103OSM   H11F10478   4.311   1.803   9.664 -2.4167  0.0533 -0.3310
  103OSM   H11G10479   4.411   1.938   9.591 -0.6570  0.3651 -0.4260
  103OSM   C12F10480   4.207   1.950   9.568  0.9223  0.0667  0.4532
  103OSM   H12F10481   4.197   2.056   9.537 -3.3721 -0.0181  0.9862
  103OSM   H12G10482   4.112   1.928   9.621  0.7692 -1.8959 -0.5416
  103OSM   C13F10483   4.200   1.856   9.443  0.3294  0.3180  0.7238
  103OSM   H13F10484   4.196   1.754   9.486  1.6619  0.2752  0.7844
  103OSM   H13G10485   4.287   1.867   9.374  0.2072 -1.7422  0.1809
  103OSM   C14F10486   4.082   1.874   9.343 -0.5177  0.2444 -0.6145
  103OSM   H14F10487   4.065   1.979   9.312 -1.1402 -0.0753 -1.3889
  103OSM   H14G10488   3.988   1.847   9.395 -0.1925  1.1054  0.4639
  103OSM   C15F10489   4.085   1.784   9.224 -0.0469  0.3704 -0.5885
  103OSM   H15F10490   3.990   1.766   9.168 -0.1407  0.2914 -0.4065
  103OSM   H15G10491   4.129   1.684   9.241  0.1036  0.4818 -0.3109
  103OSM   C16F10492   4.180   1.835   9.107 -0.1937 -0.0824  0.2586
  103OSM   H16F10493   4.158   1.777   9.014 -1.7918  1.9749 -0.7501
  103OSM   H16G10494   4.284   1.819   9.142 -0.4399  0.0140  1.0556
  103OSM   C17F10495   4.177   1.992   9.092 -0.3202  0.2733  0.0199
  103OSM   H17F10496   4.200   2.043   9.188  0.2602 -1.1256  0.6569
  103OSM   H17G10497   4.074   2.029   9.074 -0.6144  0.7350  2.3558
  103OSM   C18F10498   4.273   2.044   8.992 -0.7117  0.0716 -0.7027
  103OSM   H18F10499   4.380   2.013   9.000 -0.9423 -0.2689  1.8950
  103OSM   H18G10500   4.277   2.155   8.991  0.2989  0.0674  0.4658
  103OSM   H18H10501   4.240   2.005   8.894 -1.8829 -3.8704  1.0743
  104OSM      N10502   0.517   4.306  10.949  0.1354 -0.0966 -0.8366
  104OSM    C1510503   0.465   4.237  10.824  0.8119  0.1209  0.4918
  104OSM   H15A10504   0.528   4.172  10.765 -0.7134 -1.4697  0.5428
  104OSM   H15B10505   0.436   4.317  10.758 -0.9904  0.5515  1.7225
  104OSM   H15C10506   0.375   4.181  10.846 -1.1929  2.3441 -1.4068
  104OSM    C1410507   0.531   4.198  11.052  0.0740 -0.1490  0.1190
  104OSM   H14A10508   0.600   4.120  11.022  1.9305  2.1361 -2.0334
  104OSM   H14B10509   0.433   4.168  11.083 -1.1940  3.2944 -0.0833
  104OSM   H14C10510   0.576   4.248  11.137  1.2248  2.0723 -1.6674
  104OSM    C1310511   0.657   4.357  10.903  0.4614  0.1699  0.0622
  104OSM   H13A10512   0.716   4.355  10.994 -3.0522  1.8368  2.6651
  104OSM   H13B10513   0.649   4.451  10.852 -2.6434 -0.3452 -0.6311
  104OSM   H13C10514   0.691   4.281  10.834 -0.9049 -1.8871  1.5038
  104OSM    C1210515   0.432   4.423  11.000 -0.3167 -0.6965 -0.3549
  104OSM   H12A10516   0.486   4.475  11.078 -2.3608  2.0660 -0.6215
  104OSM   H12B10517   0.347   4.383  11.051  0.5297 -2.9136 -0.5942
  104OSM    C1110518   0.388   4.529  10.893 -0.1056 -0.2223  0.1677
  104OSM   H11A10519   0.472   4.540  10.821  0.9828 -0.4103  1.3740
  104OSM   H11B10520   0.375   4.629  10.940  2.9283  0.7172 -0.7346
  104OSM      P10521   0.139   4.491  10.874  0.0573  0.0691 -0.0875
  104OSM    O1310522   0.050   4.407  10.794  0.3492  0.1544 -0.0899
  104OSM    O1410523   0.150   4.457  11.019  0.2904  0.0544 -0.0477
  104OSM    O1110524   0.084   4.641  10.875 -0.5989  0.1285  0.9260
  104OSM    O1210525   0.280   4.495  10.811  0.2907 -0.3980 -0.2875
  104OSM    C1S10526   0.109   4.723  10.761 -0.4859  0.1986  0.3246
  104OSM    H1S10527   0.182   4.675  10.692  0.1128  0.5936  0.6713
  104OSM    H1T10528   0.167   4.810  10.799  0.4752 -0.3848  0.2321
  104OSM     NF10529   0.016   4.824  10.549  0.6933  0.0510  0.6042
  104OSM    HNF10530   0.038   4.921  10.547  1.0341  0.1221  3.8038
  104OSM    C2S10531  -0.016   4.777  10.688  1.0417  0.5156  0.1955
  104OSM    H2S10532  -0.082   4.690  10.665 -1.5133  1.9715  1.5887
  104OSM    C3S10533  -0.091   4.867  10.790  0.6104  0.4577 -0.3496
  104OSM    H3S10534  -0.031   4.953  10.825 -1.5337  1.7508  0.3283
  104OSM     O310535  -0.121   4.789  10.909 -0.0755  0.4765  0.0094
  104OSM    HO310536  -0.084   4.705  10.882  1.2852  0.3502  2.0371
  104OSM    C4S10537  -0.222   4.921  10.734 -0.4183  0.2802 -0.1738
  104OSM    H4S10538  -0.303   4.849  10.715 -0.7731  0.7094 -0.2906
  104OSM    C5S10539  -0.251   5.047  10.697  0.0288 -0.1100 -0.0538
  104OSM    H5S10540  -0.180   5.131  10.690 -0.3205  0.2549  0.6230
  104OSM    C6S10541  -0.378   5.083  10.642 -0.2757  0.4430  0.1150
  104OSM    H6S10542  -0.370   5.180  10.588  1.1007  1.2570  1.6671
  104OSM    H6T10543  -0.451   5.106  10.723  1.6676  1.1567  1.7759
  104OSM    C7S10544  -0.434   4.991  10.532  0.4408  0.3089 -0.2711
  104OSM    H7S10545  -0.528   5.029  10.486  0.9471  2.5517  0.4578
  104OSM    H7T10546  -0.467   4.895  10.577 -0.6087  0.1277 -1.3634
  104OSM    C8S10547  -0.342   4.985  10.414 -0.5638  0.0635 -0.0818
  104OSM    H8S10548  -0.240   4.957  10.450 -0.0098  0.2192 -1.4529
  104OSM    H8T10549  -0.346   5.082  10.360 -0.5832 -0.1063 -0.3912
  104OSM    C9S10550  -0.385   4.883  10.306  0.5670  0.3815  0.4711
  104OSM    H9S10551  -0.481   4.925  10.266  0.7848 -0.9940 -1.6464
  104OSM    H9T10552  -0.409   4.791  10.362  0.0790  0.9685  1.2500
  104OSM   C10S10553  -0.286   4.867  10.193 -0.6222 -0.0228 -0.6247
  104OSM   H10S10554  -0.280   4.760  10.162 -2.5668 -0.5870  0.7557
  104OSM   H10T10555  -0.186   4.889  10.234 -0.9492 -1.4404  1.0578
  104OSM   C11S10556  -0.299   4.956  10.066  0.0988  0.4493 -0.3944
  104OSM   H11S10557  -0.295   5.062  10.102  0.8322 -0.0609  1.1583
  104OSM   H11T10558  -0.400   4.939  10.025 -0.1648 -0.7462  0.6664
  104OSM   C12S10559  -0.192   4.920   9.964 -0.5897 -0.5489  0.0513
  104OSM   H12S10560  -0.212   4.816   9.930  1.2221 -0.6095 -0.9577
  104OSM   H12T10561  -0.090   4.912  10.009 -1.2466  0.6720  1.8618
  104OSM   C13S10562  -0.180   5.016   9.847 -0.5814 -0.1556 -0.0951
  104OSM   H13S10563  -0.168   5.122   9.879 -1.4952  0.2119 -0.9133
  104OSM   H13T10564  -0.277   5.025   9.793  0.8012  2.3073 -2.3904
  104OSM   C14S10565  -0.050   4.988   9.756  0.2335  0.4277  0.1049
  104OSM   H14S10566  -0.053   4.889   9.707  0.9028 -0.6699  2.1500
  104OSM   H14T10567   0.035   4.988   9.828  0.0617 -2.5487  0.4188
  104OSM   C15S10568  -0.043   5.106   9.653 -0.5165 -0.0236  0.3363
  104OSM   H15S10569   0.055   5.090   9.603 -0.9705  1.1467 -0.9656
  104OSM   H15T10570  -0.037   5.204   9.706  0.1415 -0.3500  0.8896
  104OSM   C16S10571  -0.139   5.097   9.531 -0.6749 -0.4154  0.6054
  104OSM   H16S10572  -0.247   5.098   9.556 -0.4777 -1.1407  1.5508
  104OSM   H16T10573  -0.126   4.997   9.484 -1.2927 -0.0509 -0.3622
  104OSM   C17S10574  -0.104   5.186   9.407 -0.1493  0.1386 -0.6026
  104OSM   H17S10575  -0.171   5.159   9.323  1.3077  0.6336 -1.9650
  104OSM   H17T10576   0.004   5.171   9.386  0.0963  1.8656 -0.7430
  104OSM   C18S10577  -0.129   5.336   9.437  0.0934  0.0955 -0.2698
  104OSM   H18S10578  -0.070   5.400   9.367  1.9541 -1.5419 -0.3091
  104OSM   H18T10579  -0.110   5.371   9.540 -0.4885 -1.0412  0.2400
  104OSM   H18U10580  -0.232   5.360   9.405 -1.0791 -2.2016  1.4611
  104OSM    C1F10581   0.071   4.745  10.458  0.4678 -0.2292  0.0092
  104OSM     OF10582   0.067   4.626  10.473 -0.1255  0.0225 -0.2439
  104OSM    C2F10583   0.120   4.807  10.336 -0.5927  0.4463  0.1530
  104OSM    H2F10584   0.227   4.827  10.361  0.0939  1.1511 -2.8531
  104OSM    H2G10585   0.068   4.901  10.309 -0.9094 -0.0311 -0.9808
  104OSM    C3F10586   0.126   4.715  10.206 -0.1701  0.7600  0.1605
  104OSM    H3F10587   0.023   4.704  10.166  0.2822 -1.8286 -0.4233
  104OSM    H3G10588   0.151   4.616  10.248 -0.1083  0.1429 -1.2706
  104OSM    C4F10589   0.221   4.758  10.095  0.2824 -0.8930  0.0798
  104OSM    H4F10590   0.324   4.771  10.135 -0.2789  1.4025  0.9005
  104OSM    H4G10591   0.173   4.850  10.056 -2.0546 -2.2022 -0.3084
  104OSM    C5F10592   0.229   4.659   9.973 -0.8548 -0.3126  0.2782
  104OSM    H5F10593   0.128   4.635   9.933 -0.9968  0.0452  0.4102
  104OSM    H5G10594   0.281   4.570  10.013  1.7632  1.8303  2.0097
  104OSM    C6F10595   0.309   4.727   9.860 -1.0138 -0.3475 -0.0242
  104OSM    H6F10596   0.417   4.712   9.881 -1.0362  0.8102  1.0975
  104OSM    H6G10597   0.286   4.836   9.863 -1.4937 -0.4592  0.5760
  104OSM    C7F10598   0.259   4.673   9.720 -0.5320  0.5606 -0.0062
  104OSM    H7F10599   0.156   4.709   9.702 -0.3558  1.4818  0.7016
  104OSM    H7G10600   0.255   4.563   9.733  2.6506  0.2960 -0.2634
  104OSM    C8F10601   0.370   4.699   9.618  0.4762  1.2785  0.1505
  104OSM    H8F10602   0.454   4.637   9.656 -0.0214  1.7889  2.2215
  104OSM    H8G10603   0.404   4.805   9.621  1.6859  1.0088 -1.8915
  104OSM    C9F10604   0.332   4.663   9.473  1.8510  0.4387  0.4498
  104OSM    H9F10605   0.372   4.570   9.431 -1.8807 -2.5489  2.8352
  104OSM   C10F10606   0.256   4.735   9.385  0.1736 -0.3965  0.2318
  104OSM   H10F10607   0.247   4.699   9.281  0.1480 -0.5888  0.2995
  104OSM   C11F10608   0.185   4.865   9.415  0.0739  0.9966 -0.1912
  104OSM   H11F10609   0.230   4.909   9.507  3.1484 -1.5612 -0.3181
  104OSM   H11G10610   0.078   4.842   9.436  0.2596 -0.5471 -0.8222
  104OSM   C12F10611   0.206   4.960   9.301 -0.0704 -0.6032 -0.3955
  104OSM   H12F10612   0.314   4.963   9.274 -0.0066  0.1977 -0.0965
  104OSM   H12G10613   0.168   5.060   9.332  0.4713  0.3907 -2.7037
  104OSM   C13F10614   0.116   4.929   9.175 -1.0692  0.0999 -0.7657
  104OSM   H13F10615   0.066   5.024   9.146  2.4607  2.1895 -0.6840
  104OSM   H13G10616   0.033   4.866   9.212 -0.0942 -1.1782 -0.6544
  104OSM   C14F10617   0.199   4.875   9.056 -0.1141 -0.3890 -0.2765
  104OSM   H14F10618   0.255   4.784   9.085 -0.0617 -0.0592  0.6930
  104OSM   H14G10619   0.282   4.946   9.033  0.3472 -0.4637  1.0410
  104OSM   C15F10620   0.115   4.849   8.933  0.1468 -0.2362  0.0415
  104OSM   H15F10621   0.053   4.937   8.907  0.7226  0.9172  2.2832
  104OSM   H15G10622   0.037   4.773   8.949  0.5867 -0.8211 -0.5723
  104OSM   C16F10623   0.199   4.811   8.809 -0.1801 -0.3975  0.8046
  104OSM   H16F10624   0.256   4.720   8.840 -0.5967 -1.1023 -0.4547
  104OSM   H16G10625   0.266   4.896   8.781 -0.8143 -0.0444  0.3412
  104OSM   C17F10626   0.109   4.767   8.696  0.0718  0.8187 -0.5253
  104OSM   H17F10627   0.053   4.858   8.665 -1.1414 -0.0632 -0.9936
  104OSM   H17G10628   0.040   4.689   8.737  1.1407  0.4710  0.6802
  104OSM   C18F10629   0.195   4.696   8.589 -0.3146  0.0348  0.5578
  104OSM   H18F10630   0.131   4.652   8.510  0.3772 -0.6938  0.3848
  104OSM   H18G10631   0.247   4.605   8.628 -1.4362 -0.7735  0.1931
  104OSM   H18H10632   0.264   4.770   8.543 -1.7770  1.1527  0.0981
  105OSM      N10633   3.406   2.575  11.062  0.0087 -0.2746  0.5202
  105OSM    C1510634   3.386   2.564  11.210  0.5082  0.1500 -0.3889
  105OSM   H15A10635   3.409   2.659  11.256 -0.0943  1.3552 -2.4415
  105OSM   H15B10636   3.460   2.494  11.247  1.5633  1.3372 -0.1938
  105OSM   H15C10637   3.290   2.528  11.243  1.3568 -0.8877  1.0432
  105OSM    C1410638   3.554   2.612  11.039 -0.0154  0.2290  0.6231
  105OSM   H14A10639   3.567   2.715  11.067  0.1982  0.0777  1.1027
  105OSM   H14B10640   3.577   2.613  10.934  1.2863  3.6467  0.8167
  105OSM   H14C10641   3.617   2.551  11.103  0.5447  0.0711 -0.0759
  105OSM    C1310642   3.379   2.441  11.009 -0.2392 -0.2423  0.3248
  105OSM   H13A10643   3.392   2.430  10.902 -2.3335 -1.2014  0.1110
  105OSM   H13B10644   3.278   2.415  11.036 -1.0928  2.4395 -0.0634
  105OSM   H13C10645   3.443   2.364  11.051 -0.7068 -0.2221  1.0855
  105OSM    C1210646   3.313   2.675  10.991 -0.3697  0.6547  0.2143
  105OSM   H12A10647   3.295   2.757  11.058 -1.2783  0.5843  0.0640
  105OSM   H12B10648   3.217   2.628  10.978 -0.8222  1.2940  1.1739
  105OSM    C1110649   3.357   2.749  10.860 -0.1901  0.3290 -0.0294
  105OSM   H11A10650   3.269   2.815  10.847 -0.8641 -0.5646 -0.0301
  105OSM   H11B10651   3.355   2.681  10.772  0.2385 -1.7014  1.4438
  105OSM      P10652   3.563   2.885  10.757  0.1972 -0.0457 -0.0070
  105OSM    O1310653   3.671   2.973  10.804 -0.7241 -0.2793 -0.0179
  105OSM    O1410654   3.596   2.768  10.670 -0.2431 -0.3562 -0.3765
  105OSM    O1110655   3.459   2.972  10.674 -0.3206  0.2161 -0.0693
  105OSM    O1210656   3.480   2.826  10.882  0.3113 -0.7199 -0.5594
  105OSM    C1S10657   3.511   3.078  10.583 -0.5268 -0.0351 -0.5981
  105OSM    H1S10658   3.621   3.084  10.595 -0.6490 -0.1663  0.8811
  105OSM    H1T10659   3.456   3.174  10.591  0.1232  0.2895  0.1104
  105OSM     NF10660   3.559   3.148  10.339 -0.5286  0.4605 -0.0729
  105OSM    HNF10661   3.497   3.217  10.303 -0.9379 -1.1730 -2.7243
  105OSM    C2S10662   3.500   3.042  10.423 -0.0914 -1.3877 -0.1946
  105OSM    H2S10663   3.553   2.945  10.407  0.7025 -1.0672  0.4039
  105OSM    C3S10664   3.343   3.017  10.391 -0.2516  0.2987  0.7969
  105OSM    H3S10665   3.305   3.117  10.420  0.0996  0.3639  1.0493
  105OSM     O310666   3.285   2.912  10.464 -0.1091  0.0541 -0.3640
  105OSM    HO310667   3.350   2.883  10.529 -0.2132  0.0210 -0.2735
  105OSM    C4S10668   3.316   2.997  10.245 -0.4927 -0.0421 -0.4139
  105OSM    H4S10669   3.271   3.092  10.213 -1.0272  0.2220  1.0401
  105OSM    C5S10670   3.317   2.892  10.164 -0.2765 -0.0741  0.3360
  105OSM    H5S10671   3.340   2.793  10.206  0.2677 -0.9917 -1.9626
  105OSM    C6S10672   3.272   2.879  10.018 -0.3376 -0.3463 -0.0266
  105OSM    H6S10673   3.162   2.863  10.018 -0.4881  0.4943  1.0197
  105OSM    H6T10674   3.315   2.788   9.973  0.6061 -0.0052  0.1739
  105OSM    C7S10675   3.294   3.011   9.935 -0.0728 -0.0106 -0.1888
  105OSM    H7S10676   3.403   3.033   9.940 -0.6636  3.1092  0.9648
  105OSM    H7T10677   3.248   3.100   9.982  0.3197 -0.8849  2.0002
  105OSM    C8S10678   3.258   2.999   9.791  0.2524 -0.1846 -0.1372
  105OSM    H8S10679   3.322   2.930   9.732  2.3138  1.0750  0.5375
  105OSM    H8T10680   3.297   3.089   9.740  0.9578 -0.1344  0.4769
  105OSM    C9S10681   3.109   3.003   9.763 -0.2013  0.0839 -0.8377
  105OSM    H9S10682   3.057   3.059   9.844  2.3057 -2.4762  2.8223
  105OSM    H9T10683   3.080   2.896   9.764  2.5706 -0.7426  0.0156
  105OSM   C10S10684   3.061   3.057   9.629 -0.0865 -0.3416  0.7033
  105OSM   H10S10685   3.067   3.168   9.633 -2.1990 -0.1797  0.9537
  105OSM   H10T10686   2.950   3.052   9.621 -0.0357  0.8714 -1.8815
  105OSM   C11S10687   3.127   3.006   9.503 -0.1336 -0.7687 -0.0710
  105OSM   H11S10688   3.106   2.897   9.495  2.0404 -1.1137 -2.3321
  105OSM   H11T10689   3.235   3.013   9.525 -0.7122 -1.4668  3.5438
  105OSM   C12S10690   3.078   3.074   9.376 -0.6164  0.1658  0.2175
  105OSM   H12S10691   3.119   3.178   9.376  0.1527 -0.1232 -0.7388
  105OSM   H12T10692   2.967   3.077   9.365 -0.5307  0.1357 -0.6706
  105OSM   C13S10693   3.141   3.002   9.251  0.6795 -0.3929  0.2872
  105OSM   H13S10694   3.106   2.896   9.256 -2.0447  0.3990 -0.5300
  105OSM   H13T10695   3.252   3.007   9.254  0.7369 -0.7995 -0.7333
  105OSM   C14S10696   3.093   3.068   9.117 -0.0568 -0.2932 -0.4075
  105OSM   H14S10697   3.104   3.178   9.113  1.4758 -0.4685 -1.9621
  105OSM   H14T10698   2.984   3.055   9.099  0.2919 -1.2643 -2.0512
  105OSM   C15S10699   3.174   3.026   8.990  0.4342  0.7138  0.1187
  105OSM   H15S10700   3.163   2.918   8.967 -0.2451  0.1563  2.6541
  105OSM   H15T10701   3.275   3.046   9.030  0.2503  0.3515  0.7880
  105OSM   C16S10702   3.139   3.122   8.877  0.4305  0.1436 -0.0887
  105OSM   H16S10703   3.168   3.228   8.897 -0.7167  0.7774 -1.5073
  105OSM   H16T10704   3.031   3.116   8.850  0.4629 -2.4217  0.1876
  105OSM   C17S10705   3.217   3.095   8.744  0.3503 -0.0093 -0.7842
  105OSM   H17S10706   3.323   3.103   8.778 -0.0116 -1.0897  0.6729
  105OSM   H17T10707   3.190   3.180   8.678 -0.4245  1.3367  1.1933
  105OSM   C18S10708   3.178   2.969   8.675 -0.5241  0.3327  0.1266
  105OSM   H18S10709   3.249   2.942   8.594  0.3757  0.7805  0.7480
  105OSM   H18T10710   3.081   2.977   8.622 -1.3376  0.8898  1.6560
  105OSM   H18U10711   3.174   2.883   8.744 -1.0621  0.7672  0.6410
  105OSM    C1F10712   3.693   3.148  10.318  0.1824 -0.7596 -0.1570
  105OSM     OF10713   3.761   3.050  10.346  0.5168 -0.5225  0.0013
  105OSM    C2F10714   3.745   3.268  10.244 -0.7424 -0.1777 -0.1731
  105OSM    H2F10715   3.817   3.318  10.312  0.6366 -1.0020 -0.9758
  105OSM    H2G10716   3.660   3.336  10.221 -1.2607 -0.3611  1.0900
  105OSM    C3F10717   3.830   3.233  10.113  0.7161  0.4204 -0.1120
  105OSM    H3F10718   3.912   3.159  10.129 -0.4524 -0.3839  2.8076
  105OSM    H3G10719   3.870   3.328  10.072 -2.7053  1.8305 -0.5095
  105OSM    C4F10720   3.737   3.187  10.002  0.7053  0.6097  0.4602
  105OSM    H4F10721   3.655   3.261   9.987 -1.7180 -2.1911 -1.0690
  105OSM    H4G10722   3.674   3.098  10.024  1.4075  0.0793  0.3270
  105OSM    C5F10723   3.797   3.166   9.863 -0.3708  0.4878 -0.4525
  105OSM    H5F10724   3.869   3.083   9.848 -0.8646  0.3770 -2.5799
  105OSM    H5G10725   3.852   3.253   9.821  0.9835 -0.1749 -0.0972
  105OSM    C6F10726   3.687   3.141   9.757 -0.1228  0.6230 -0.1556
  105OSM    H6F10727   3.712   3.197   9.665  0.5739 -0.9963 -0.9910
  105OSM    H6G10728   3.599   3.194   9.800  0.2764  1.1904 -0.0135
  105OSM    C7F10729   3.651   2.993   9.721  0.2290 -0.6830  0.3124
  105OSM    H7F10730   3.596   2.946   9.806  1.2621  0.1210  1.4571
  105OSM    H7G10731   3.746   2.937   9.706  1.2355  0.4320  2.1683
  105OSM    C8F10732   3.560   2.977   9.589  0.2787  0.5119 -0.4595
  105OSM    H8F10733   3.598   3.048   9.514 -0.4786  1.5608  0.1169
  105OSM    H8G10734   3.457   3.017   9.602 -0.9218 -2.1988 -0.8150
  105OSM    C9F10735   3.545   2.832   9.537 -0.7701 -0.1381 -0.3238
  105OSM    H9F10736   3.482   2.765   9.596 -2.2827  0.3590 -1.3227
  105OSM   C10F10737   3.599   2.782   9.425 -0.0845 -0.1220 -0.2054
  105OSM   H10F10738   3.582   2.675   9.408 -0.7296 -0.3738  1.8418
  105OSM   C11F10739   3.687   2.856   9.323  0.0691  0.2321  0.2624
  105OSM   H11F10740   3.780   2.799   9.301 -0.6504 -1.1470  0.6381
  105OSM   H11G10741   3.718   2.958   9.352  1.1641  0.2739 -0.9581
  105OSM   C12F10742   3.619   2.883   9.193 -0.3206 -1.0945  0.1479
  105OSM   H12F10743   3.687   2.948   9.133  0.9923 -1.8544  0.7467
  105OSM   H12G10744   3.521   2.927   9.221 -0.1630  0.1048 -1.0916
  105OSM   C13F10745   3.583   2.756   9.110  0.4498  0.0200 -0.4831
  105OSM   H13F10746   3.522   2.786   9.022  0.2316  0.5821 -0.1491
  105OSM   H13G10747   3.525   2.691   9.178 -0.5312  1.2729 -0.0771
  105OSM   C14F10748   3.702   2.687   9.041 -0.6360 -0.0903  0.4382
  105OSM   H14F10749   3.779   2.674   9.120  0.5965 -0.9324 -0.8370
  105OSM   H14G10750   3.743   2.757   8.964  0.3985 -0.5087  0.5847
  105OSM   C15F10751   3.662   2.547   8.986  0.2452  0.0787  0.5767
  105OSM   H15F10752   3.597   2.568   8.897 -3.5179 -2.1322  2.5266
  105OSM   H15G10753   3.572   2.508   9.039 -1.1993 -0.3626 -2.0039
  105OSM   C16F10754   3.775   2.456   8.939 -0.7490  0.2192  0.3593
  105OSM   H16F10755   3.841   2.435   9.027 -1.0589  2.1234  1.0929
  105OSM   H16G10756   3.835   2.504   8.859  1.0038  0.0866  1.5438
  105OSM   C17F10757   3.732   2.318   8.904  0.0594 -0.2128 -0.0456
  105OSM   H17F10758   3.683   2.312   8.804  0.2055  1.6786 -0.2604
  105OSM   H17G10759   3.664   2.261   8.970 -1.2979 -2.4260 -3.0683
  105OSM   C18F10760   3.859   2.233   8.890 -0.3017  0.0486  0.5954
  105OSM   H18F10761   3.934   2.238   8.973  1.7841 -1.0131 -1.1161
  105OSM   H18G10762   3.906   2.260   8.793  0.4730  0.3804  1.0543
  105OSM   H18H10763   3.830   2.127   8.876  0.8022 -0.1637 -0.2207
  106OSM      N10764   1.956   4.289  10.687  0.0977  0.4680 -0.1600
  106OSM    C1510765   1.879   4.289  10.815 -0.7032 -0.0261  0.8769
  106OSM   H15A10766   1.798   4.360  10.817 -1.0427 -0.2241 -1.5947
  106OSM   H15B10767   1.941   4.306  10.901  1.2801  1.6140 -0.7743
  106OSM   H15C10768   1.843   4.188  10.833  2.1986 -2.0083 -2.9265
  106OSM    C1410769   1.856   4.290  10.574 -0.4226  0.2401  0.0616
  106OSM   H14A10770   1.802   4.383  10.563  0.0296  0.4209 -0.7103
  106OSM   H14B10771   1.789   4.207  10.593  1.7371 -1.2815  1.4917
  106OSM   H14C10772   1.904   4.265  10.480 -1.3903  1.9741 -0.9498
  106OSM    C1310773   2.038   4.415  10.685 -0.6337 -1.3413  0.6355
  106OSM   H13A10774   2.106   4.421  10.769  0.7141 -0.3296 -0.4733
  106OSM   H13B10775   1.976   4.502  10.696  1.0750 -0.2342  2.0979
  106OSM   H13C10776   2.097   4.440  10.598 -0.0162  4.1298  2.2980
  106OSM    C1210777   2.045   4.167  10.664  0.2814  0.2706 -0.0733
  106OSM   H12A10778   1.994   4.075  10.687  1.9279 -0.3640  1.2425
  106OSM   H12B10779   2.116   4.168  10.745 -0.1746  1.5120  0.3260
  106OSM    C1110780   2.124   4.147  10.534 -0.7176 -0.1133 -0.3146
  106OSM   H11A10781   2.075   4.130  10.436  0.5406 -2.0419 -0.6665
  106OSM   H11B10782   2.170   4.050  10.560  1.0524  0.9160  0.6117
  106OSM      P10783   2.342   4.270  10.608 -0.3398  0.0550  0.2305
  106OSM    O1310784   2.369   4.407  10.637 -0.1743 -0.4128  1.0892
  106OSM    O1410785   2.329   4.182  10.722 -0.4275  0.1036  0.3756
  106OSM    O1110786   2.465   4.220  10.519  0.3440 -0.0152  0.6428
  106OSM    O1210787   2.223   4.249  10.512 -0.0345  0.0484 -0.0461
  106OSM    C1S10788   2.482   4.099  10.455  0.1242  0.2350 -0.0251
  106OSM    H1S10789   2.389   4.057  10.411  0.4021 -1.0103  0.5450
  106OSM    H1T10790   2.518   4.019  10.523  0.6451 -0.7484 -1.4095
  106OSM     NF10791   2.565   3.999  10.231 -0.4801  0.4254 -0.5080
  106OSM    HNF10792   2.631   3.926  10.213 -1.9265 -1.0853 -0.0091
  106OSM    C2S10793   2.582   4.105  10.334 -0.0214  0.8873  0.5015
  106OSM    H2S10794   2.561   4.200  10.282  1.8512  0.6124 -0.8803
  106OSM    C3S10795   2.727   4.126  10.390  0.4129 -0.4391  0.5478
  106OSM    H3S10796   2.765   4.027  10.424 -0.7335 -0.1699  2.8743
  106OSM     O310797   2.743   4.211  10.505  0.6757  0.0989  0.1362
  106OSM    HO310798   2.652   4.219  10.535  0.6788 -0.1413  0.2126
  106OSM    C4S10799   2.824   4.169  10.275 -0.0793 -0.2830 -0.2469
  106OSM    H4S10800   2.889   4.092  10.232  0.5539  0.2856 -0.3345
  106OSM    C5S10801   2.851   4.296  10.239  0.0833  0.7488  0.5256
  106OSM    H5S10802   2.811   4.379  10.299 -3.4497 -1.3491  1.3274
  106OSM    C6S10803   2.958   4.324  10.135 -0.3343  0.6795 -0.0592
  106OSM    H6S10804   3.043   4.255  10.156 -0.2360  0.4798 -1.0628
  106OSM    H6T10805   3.010   4.421  10.154 -0.6922  1.4418 -2.5830
  106OSM    C7S10806   2.916   4.316   9.985 -0.4318  0.5049  0.2272
  106OSM    H7S10807   2.824   4.377   9.968 -0.1026  0.9290 -0.0442
  106OSM    H7T10808   2.882   4.214   9.955  0.5719  0.5459 -1.1214
  106OSM    C8S10809   3.037   4.360   9.894 -0.1908 -0.7459 -0.0356
  106OSM    H8S10810   3.127   4.313   9.939  1.4390  0.7893 -1.5164
  106OSM    H8T10811   3.045   4.470   9.884 -0.4826 -0.8257 -1.2723
  106OSM    C9S10812   3.032   4.307   9.747  0.4211  0.6868  0.3619
  106OSM    H9S10813   2.950   4.354   9.688  1.4727 -0.6433 -2.3380
  106OSM    H9T10814   3.008   4.199   9.760 -0.4391  0.9115  0.7444
  106OSM   C10S10815   3.170   4.328   9.683  0.2766 -0.1598 -0.2105
  106OSM   H10S10816   3.240   4.262   9.739  0.7425  0.9311  0.5224
  106OSM   H10T10817   3.202   4.434   9.682 -2.0625  0.6423 -2.4090
  106OSM   C11S10818   3.167   4.281   9.541 -0.1515 -0.3392  0.7072
  106OSM   H11S10819   3.086   4.333   9.487  0.4921 -0.8324 -0.7908
  106OSM   H11T10820   3.130   4.177   9.527  1.5761 -0.8394 -0.4216
  106OSM   C12S10821   3.299   4.296   9.468  0.0644 -0.2189  0.0030
  106OSM   H12S10822   3.336   4.200   9.426  0.7822  0.3023 -0.6041
  106OSM   H12T10823   3.370   4.330   9.547 -1.8785 -1.2592  2.2930
  106OSM   C13S10824   3.292   4.389   9.347  0.3259 -0.1593  0.2881
  106OSM   H13S10825   3.259   4.494   9.365 -1.9109 -0.4373 -1.6977
  106OSM   H13T10826   3.211   4.346   9.285 -0.9594  0.3028  1.5886
  106OSM   C14S10827   3.419   4.395   9.266 -0.4918 -0.8190  0.3622
  106OSM   H14S10828   3.448   4.290   9.243 -1.5590 -1.1475  0.4446
  106OSM   H14T10829   3.495   4.446   9.329  0.8738  0.3352 -2.0804
  106OSM   C15S10830   3.406   4.489   9.146 -0.0680  0.5543 -0.4977
  106OSM   H15S10831   3.376   4.593   9.170  2.3747  1.2503 -0.1827
  106OSM   H15T10832   3.332   4.437   9.081  0.2315 -0.9888  0.3599
  106OSM   C16S10833   3.536   4.498   9.076  0.2765  0.1803 -0.1379
  106OSM   H16S10834   3.603   4.418   9.114  0.3111  0.1375 -0.2882
  106OSM   H16T10835   3.597   4.589   9.085 -0.1034  0.4201  0.0404
  106OSM   C17S10836   3.529   4.478   8.921  0.2066  0.2354 -0.5543
  106OSM   H17S10837   3.459   4.555   8.880 -2.0159 -0.9952  0.7255
  106OSM   H17T10838   3.500   4.376   8.888 -1.2381  0.4623 -0.0740
  106OSM   C18S10839   3.661   4.498   8.850 -0.1401  0.1934  0.2669
  106OSM   H18S10840   3.669   4.444   8.754 -0.3273  0.3242  0.1775
  106OSM   H18T10841   3.740   4.454   8.914 -2.8291 -0.3437  3.4720
  106OSM   H18U10842   3.669   4.607   8.828  0.1602  0.4212  1.4460
  106OSM    C1F10843   2.453   4.006  10.159  0.5499 -0.5841  0.0614
  106OSM     OF10844   2.385   4.110  10.137 -0.4856  0.1703  0.1502
  106OSM    C2F10845   2.412   3.881  10.087 -0.0761 -0.1641  0.4307
  106OSM    H2F10846   2.327   3.841  10.147  0.3653 -0.1945  1.0375
  106OSM    H2G10847   2.499   3.813  10.102 -0.6329 -0.8928  0.4228
  106OSM    C3F10848   2.378   3.909   9.935 -0.1905  0.1097  0.3450
  106OSM    H3F10849   2.465   3.962   9.891  1.2337 -1.0532  1.6615
  106OSM    H3G10850   2.309   3.995   9.920  0.2194  0.3092 -0.4351
  106OSM    C4F10851   2.333   3.788   9.857  0.2446  0.0987  0.4819
  106OSM    H4F10852   2.260   3.726   9.913  1.5803 -1.7703  0.2483
  106OSM    H4G10853   2.417   3.718   9.835  1.3763  1.2113  1.1652
  106OSM    C5F10854   2.262   3.841   9.737 -0.2470 -0.1587  0.2121
  106OSM    H5F10855   2.181   3.909   9.772 -1.3041 -1.1705 -0.1949
  106OSM    H5G10856   2.213   3.763   9.675 -1.0778  0.8005 -0.3629
  106OSM    C6F10857   2.345   3.932   9.643 -0.8476  0.2643 -0.6735
  106OSM    H6F10858   2.451   3.927   9.673 -1.5558 -2.4276  1.8844
  106OSM    H6G10859   2.319   4.039   9.652  2.6309  1.0589  3.4109
  106OSM    C7F10860   2.327   3.877   9.502 -0.2973 -0.4707  0.4661
  106OSM    H7F10861   2.221   3.897   9.474  0.0687  1.7322  0.4228
  106OSM    H7G10862   2.352   3.769   9.503 -2.4809 -1.0191  0.0251
  106OSM    C8F10863   2.433   3.941   9.408 -0.1778  0.5594 -0.8822
  106OSM    H8F10864   2.449   3.862   9.331  1.4263  0.0984 -0.1115
  106OSM    H8G10865   2.530   3.949   9.462 -0.2209 -3.2411  0.0585
  106OSM    C9F10866   2.388   4.073   9.348 -0.7641  0.5397 -0.9094
  106OSM    H9F10867   2.300   4.124   9.391  0.2474  0.5333  1.3415
  106OSM   C10F10868   2.461   4.129   9.250  0.0979 -0.2522  0.4083
  106OSM   H10F10869   2.423   4.227   9.219 -2.5939 -1.4891 -0.5692
  106OSM   C11F10870   2.581   4.077   9.182  0.0828 -0.3448  0.0847
  106OSM   H11F10871   2.612   3.978   9.220  2.2384  0.7722  1.4388
  106OSM   H11G10872   2.666   4.144   9.210 -2.4344  2.5109  1.4355
  106OSM   C12F10873   2.582   4.077   9.024  0.6098  0.3438 -0.5671
  106OSM   H12F10874   2.496   4.026   8.977 -0.6143  1.0507  0.8469
  106OSM   H12G10875   2.674   4.018   9.003 -0.2485 -1.2935  0.1052
  106OSM   C13F10876   2.612   4.209   8.954 -0.0556  0.0243 -0.3313
  106OSM   H13F10877   2.697   4.261   9.003 -1.3115  0.7507  1.1573
  106OSM   H13G10878   2.529   4.281   8.970 -0.5626 -0.1367 -2.0184
  106OSM   C14F10879   2.643   4.180   8.804 -0.2259 -0.2948 -0.0369
  106OSM   H14F10880   2.548   4.160   8.751  0.2789 -0.5648 -0.8770
  106OSM   H14G10881   2.708   4.091   8.792  3.1800  2.0702 -0.8092
  106OSM   C15F10882   2.698   4.300   8.738  0.7543 -0.2180  0.0462
  106OSM   H15F10883   2.784   4.317   8.806  0.6945 -3.7520  1.2070
  106OSM   H15G10884   2.624   4.382   8.753  0.2307 -0.8186  0.8666
  106OSM   C16F10885   2.738   4.285   8.590  0.5320  0.3989  0.4388
  106OSM   H16F10886   2.791   4.187   8.581  0.9730  0.6940 -0.2575
  106OSM   H16G10887   2.812   4.361   8.557  0.7151  0.0018 -0.0863
  106OSM   C17F10888   2.618   4.288   8.495  0.5868 -0.4726  0.7404
  106OSM   H17F10889   2.545   4.371   8.507  0.9769  0.5575 -2.9739
  106OSM   H17G10890   2.553   4.199   8.510 -0.8948  0.4212 -0.1755
  106OSM   C18F10891   2.671   4.299   8.355 -0.1616 -0.2827  0.3296
  106OSM   H18F10892   2.744   4.383   8.360  0.5707 -0.8553 -0.3875
  106OSM   H18G10893   2.586   4.317   8.286 -1.0796  0.7918  1.6719
  106OSM   H18H10894   2.721   4.207   8.318 -2.8117 -1.6094 -0.1454
  107OSM      N10895   5.877   6.139  10.739 -0.2213  0.2254 -0.7865
  107OSM    C1510896   5.885   5.996  10.710 -0.1069 -0.4089  0.5795
  107OSM   H15A10897   5.893   5.970  10.605 -0.0723 -1.1621  0.7652
  107OSM   H15B10898   5.791   5.952  10.736 -0.2863 -1.3944 -1.5191
  107OSM   H15C10899   5.959   5.947  10.772  0.2830 -0.5327  0.0317
  107OSM    C1410900   5.732   6.179  10.716 -0.0479 -0.5511  0.7141
  107OSM   H14A10901   5.666   6.128  10.784  1.8728 -0.4297  2.7452
  107OSM   H14B10902   5.693   6.160  10.617  0.8265  0.1291  0.2176
  107OSM   H14C10903   5.719   6.283  10.743  1.2070  0.3623 -1.8282
  107OSM    C1310904   5.912   6.169  10.879 -0.7756  0.0467 -0.5733
  107OSM   H13A10905   5.859   6.111  10.953  0.2084  1.1928  1.0739
  107OSM   H13B10906   5.890   6.273  10.896  0.8408  0.2729  0.3162
  107OSM   H13C10907   6.014   6.140  10.900 -0.7922 -0.8860 -1.6467
  107OSM    C1210908   5.970   6.211  10.650  0.7679  0.2990 -0.5489
  107OSM   H12A10909   5.959   6.318  10.657 -1.6465  0.0416  0.7312
  107OSM   H12B10910   5.931   6.203  10.550  0.2491 -0.8483 -0.2759
  107OSM    C1110911   6.121   6.166  10.647  0.4829  0.0616  0.1899
  107OSM   H11A10912   6.174   6.221  10.567  3.3544 -0.0480  1.8924
  107OSM   H11B10913   6.114   6.058  10.621 -1.9621  0.7161 -2.3789
  107OSM      P10914   6.246   6.323  10.817  0.0846 -0.7878 -0.1312
  107OSM    O1310915   6.129   6.402  10.871 -0.8775 -0.1926  0.4641
  107OSM    O1410916   6.361   6.309  10.901  0.4197  0.0602  0.4626
  107OSM    O1110917   6.305   6.391  10.683  0.0997 -1.0679 -0.4745
  107OSM    O1210918   6.192   6.183  10.776 -0.3323  0.3119 -0.6261
  107OSM    C1S10919   6.424   6.337  10.626  0.0583  0.0085  0.3511
  107OSM    H1S10920   6.426   6.226  10.627 -1.2393 -0.0255  0.5899
  107OSM    H1T10921   6.517   6.371  10.677  0.6926  0.7955 -1.2285
  107OSM     NF10922   6.551   6.296  10.410 -0.7425 -0.1270  0.2976
  107OSM    HNF10923   6.642   6.336  10.415 -0.7069  0.1422 -1.7211
  107OSM    C2S10924   6.436   6.364  10.470  0.7072 -0.0980 -0.1529
  107OSM    H2S10925   6.349   6.327  10.412 -0.9145  2.3974  0.5431
  107OSM    C3S10926   6.447   6.517  10.441 -0.3160  0.3806 -0.1563
  107OSM    H3S10927   6.550   6.550  10.469  0.0971 -0.1696 -0.9742
  107OSM     O310928   6.346   6.590  10.507 -0.5948 -0.6393  0.0065
  107OSM    HO310929   6.309   6.534  10.576 -1.4377 -0.6689 -0.4556
  107OSM    C4S10930   6.425   6.547  10.290 -0.5943  1.3050  0.2390
  107OSM    H4S10931   6.321   6.552  10.254 -0.7124 -0.4262  0.2223
  107OSM    C5S10932   6.521   6.590  10.207  0.6654 -0.1432 -0.5661
  107OSM    H5S10933   6.624   6.606  10.240 -0.4539  0.1733  3.1988
  107OSM    C6S10934   6.489   6.629  10.064  0.1259  0.1937 -0.1895
  107OSM    H6S10935   6.567   6.574  10.007 -1.5246 -2.7155  0.1455
  107OSM    H6T10936   6.508   6.738  10.058  0.2326  0.1677 -0.3225
  107OSM    C7S10937   6.354   6.594   9.998 -0.5979  0.4851  0.1617
  107OSM    H7S10938   6.276   6.650  10.054 -0.8862  0.8701 -0.5965
  107OSM    H7T10939   6.334   6.485   9.999 -0.5710  0.4280  3.4330
  107OSM    C8S10940   6.342   6.652   9.850  0.2184 -0.6548 -0.3986
  107OSM    H8S10941   6.405   6.595   9.778  2.1722  1.4727 -0.4980
  107OSM    H8T10942   6.376   6.758   9.852 -0.9217 -0.2583 -1.1123
  107OSM    C9S10943   6.199   6.651   9.795 -0.4271  0.4569 -0.3015
  107OSM    H9S10944   6.132   6.705   9.864 -2.7719 -1.1919 -1.1241
  107OSM    H9T10945   6.159   6.547   9.805  2.5475 -0.7526  0.2411
  107OSM   C10S10946   6.179   6.710   9.659  0.0184  0.1767 -0.0289
  107OSM   H10S10947   6.227   6.810   9.655  0.0046  0.1699 -0.4369
  107OSM   H10T10948   6.078   6.727   9.618  0.3088  1.4101 -0.2837
  107OSM   C11S10949   6.244   6.627   9.546  0.0615 -0.0252  0.5400
  107OSM   H11S10950   6.177   6.539   9.530 -2.4687  2.0986 -1.6084
  107OSM   H11T10951   6.348   6.596   9.567  0.8958  1.2822 -1.3584
  107OSM   C12S10952   6.251   6.691   9.404 -0.4743 -0.0750 -0.6722
  107OSM   H12S10953   6.327   6.772   9.397 -1.0006  0.4589 -0.1893
  107OSM   H12T10954   6.161   6.744   9.368  0.1005  0.4127 -1.4485
  107OSM   C13S10955   6.278   6.598   9.283 -0.0919 -0.0174  0.1146
  107OSM   H13S10956   6.199   6.522   9.270 -0.0635  0.0699 -0.6447
  107OSM   H13T10957   6.371   6.544   9.311 -0.6504 -0.3287  1.4377
  107OSM   C14S10958   6.309   6.676   9.162 -0.1892 -0.3399 -0.4724
  107OSM   H14S10959   6.370   6.762   9.198 -1.5343 -0.7988  3.4410
  107OSM   H14T10960   6.212   6.705   9.115 -0.2900 -2.3379 -1.6027
  107OSM   C15S10961   6.391   6.596   9.055 -0.3838  0.0572  0.0596
  107OSM   H15S10962   6.333   6.506   9.024 -0.1060  0.6506 -2.4678
  107OSM   H15T10963   6.491   6.578   9.099 -0.4339  0.2930  0.2720
  107OSM   C16S10964   6.404   6.677   8.923 -0.1597 -0.5771 -0.9821
  107OSM   H16S10965   6.461   6.771   8.941  2.3811 -2.0963 -0.5920
  107OSM   H16T10966   6.301   6.701   8.891 -0.9826 -0.5456  1.4759
  107OSM   C17S10967   6.474   6.598   8.817 -0.4995 -0.2862  0.6867
  107OSM   H17S10968   6.413   6.508   8.795  0.1966 -0.7572  0.6391
  107OSM   H17T10969   6.570   6.561   8.859  0.1637 -0.4321 -0.8727
  107OSM   C18S10970   6.504   6.673   8.688  0.2878 -0.1211  0.7016
  107OSM   H18S10971   6.561   6.610   8.616 -0.0593 -1.4233  1.5346
  107OSM   H18T10972   6.564   6.765   8.707  2.0904 -1.2013  0.5056
  107OSM   H18U10973   6.408   6.699   8.639  1.0549  0.7531 -0.4123
  107OSM    C1F10974   6.557   6.168  10.376  0.4216 -0.2267  0.2062
  107OSM     OF10975   6.456   6.093  10.390  0.1275  0.6023 -0.3887
  107OSM    C2F10976   6.692   6.126  10.312  0.6341  0.4965 -0.1087
  107OSM    H2F10977   6.686   6.018  10.288 -1.0202  0.6493 -0.4821
  107OSM    H2G10978   6.771   6.141  10.389  1.0480  1.6811 -0.7275
  107OSM    C3F10979   6.720   6.195  10.174 -0.2499  0.5001 -0.0509
  107OSM    H3F10980   6.824   6.163  10.151 -0.7270 -2.0422  0.9330
  107OSM    H3G10981   6.728   6.305  10.187 -0.4093  0.6857 -1.4306
  107OSM    C4F10982   6.633   6.147  10.062  0.0710  0.3069  0.0194
  107OSM    H4F10983   6.529   6.185  10.070 -0.3852 -0.9908  0.6004
  107OSM    H4G10984   6.622   6.037  10.073 -1.6581  0.6061  2.1103
  107OSM    C5F10985   6.688   6.198   9.927 -0.8368  0.7251 -0.2448
  107OSM    H5F10986   6.771   6.133   9.892 -1.3306 -0.8727  1.3970
  107OSM    H5G10987   6.725   6.302   9.932 -2.1392  1.1450  1.9642
  107OSM    C6F10988   6.576   6.213   9.826 -0.1399  0.2842 -0.6932
  107OSM    H6F10989   6.491   6.268   9.872 -1.8790 -1.2641 -1.9147
  107OSM    H6G10990   6.536   6.114   9.798 -0.6433 -0.6150  2.6788
  107OSM    C7F10991   6.610   6.265   9.686  0.2437 -0.0504 -0.4582
  107OSM    H7F10992   6.698   6.212   9.644  1.8116  2.3656 -0.4793
  107OSM    H7G10993   6.635   6.372   9.703  3.1284 -1.0593  2.9837
  107OSM    C8F10994   6.494   6.261   9.580  0.5395 -0.2602 -0.7133
  107OSM    H8F10995   6.400   6.295   9.628  1.5307 -0.2053  1.2767
  107OSM    H8G10996   6.478   6.156   9.545 -1.7794 -0.4046  0.5928
  107OSM    C9F10997   6.526   6.357   9.471  0.1669  0.1309 -0.2168
  107OSM    H9F10998   6.490   6.459   9.487 -0.9621  0.2925 -3.1905
  107OSM   C10F10999   6.561   6.329   9.344  0.3422  0.5218 -0.6010
  107OSM   H10F11000   6.574   6.410   9.271  1.8220 -0.8941 -1.9744
  107OSM   C11F11001   6.587   6.188   9.304  0.6523 -0.1290 -0.0288
  107OSM   H11F11002   6.498   6.124   9.319  0.6259  0.0235  0.4856
  107OSM   H11G11003   6.678   6.157   9.359  0.1007 -1.4308  0.1875
  107OSM   C12F11004   6.619   6.177   9.159  0.0276 -0.2064 -0.3228
  107OSM   H12F11005   6.636   6.072   9.127  0.0023 -0.1832 -0.4146
  107OSM   H12G11006   6.706   6.242   9.136  0.3783 -0.7508 -0.5608
  107OSM   C13F11007   6.497   6.209   9.067 -0.3102 -0.0629 -0.3139
  107OSM   H13F11008   6.461   6.310   9.095  0.9351 -0.2759  2.4863
  107OSM   H13G11009   6.420   6.133   9.093 -0.6420  0.5615  0.5826
  107OSM   C14F11010   6.530   6.185   8.921 -0.1736  0.2019  0.4083
  107OSM   H14F11011   6.564   6.080   8.903 -1.9538 -0.2297 -0.6512
  107OSM   H14G11012   6.616   6.255   8.924  0.8614 -1.0556  1.8455
  107OSM   C15F11013   6.412   6.221   8.827  0.4776  1.1442  0.9052
  107OSM   H15F11014   6.365   6.320   8.845 -2.2976  0.2839 -0.9127
  107OSM   H15G11015   6.336   6.142   8.848  2.0208 -0.4288  0.7604
  107OSM   C16F11016   6.438   6.217   8.670  0.0696  0.2795  0.7844
  107OSM   H16F11017   6.498   6.128   8.643  1.1377  0.9491  0.8922
  107OSM   H16G11018   6.499   6.307   8.645 -0.0622  0.0782 -0.2899
  107OSM   C17F11019   6.308   6.214   8.592 -0.5997 -0.4792  0.3994
  107OSM   H17F11020   6.239   6.298   8.618  0.3258  0.0759  1.1388
  107OSM   H17G11021   6.252   6.124   8.624 -3.1946  0.9812  0.2303
  107OSM   C18F11022   6.329   6.226   8.437  0.6808  0.8958  0.0438
  107OSM   H18F11023   6.229   6.237   8.390  0.8376  0.3061 -0.4500
  107OSM   H18G11024   6.381   6.140   8.389  1.7804  1.5230  0.0848
  107OSM   H18H11025   6.386   6.319   8.418  1.6190  0.4604  0.6184
  108OSM      N11026   2.446   0.775  10.676  0.4606 -0.1983  0.7175
  108OSM    C1511027   2.577   0.850  10.693 -0.4522  0.2900  0.3761
  108OSM   H15A11028   2.663   0.795  10.659  0.1106 -0.8571  3.3588
  108OSM   H15B11029   2.585   0.877  10.797 -1.9460  1.9960  0.1114
  108OSM   H15C11030   2.577   0.939  10.631 -0.1865  0.1446  0.1667
  108OSM    C1411031   2.457   0.635  10.721 -0.6335  0.0404  0.4342
  108OSM   H14A11032   2.524   0.632  10.805  0.8795 -2.2532 -0.7389
  108OSM   H14B11033   2.516   0.572  10.656 -2.2790 -2.6352  1.3621
  108OSM   H14C11034   2.358   0.591  10.719 -0.6302  0.0421 -0.6498
  108OSM    C1311035   2.337   0.847  10.754 -0.6347 -0.3097  0.1666
  108OSM   H13A11036   2.244   0.805  10.721  0.0380 -1.1648 -0.6835
  108OSM   H13B11037   2.348   0.953  10.732  0.8135 -0.0457  1.9641
  108OSM   H13C11038   2.346   0.832  10.860 -1.8767  0.5113  0.4134
  108OSM    C1211039   2.402   0.776  10.533 -0.8435 -0.1988  0.5638
  108OSM   H12A11040   2.469   0.717  10.473  0.1497  1.7590 -0.3407
  108OSM   H12B11041   2.400   0.879  10.500  1.4005 -0.3137 -0.0815
  108OSM    C1111042   2.265   0.717  10.503  0.4343  0.5798  0.2369
  108OSM   H11A11043   2.261   0.623  10.562 -0.6423 -0.6061 -1.6308
  108OSM   H11B11044   2.244   0.673  10.403 -2.1139 -3.8710  2.4132
  108OSM      P11045   2.113   0.926  10.460  0.5069  0.4294  0.1801
  108OSM    O1311046   2.004   0.995  10.537  0.4317  0.9495 -0.2615
  108OSM    O1411047   2.235   1.004  10.429  0.2398  0.0677 -0.0553
  108OSM    O1111048   2.064   0.864  10.320 -0.3255  0.5478  0.1742
  108OSM    O1211049   2.154   0.800  10.540 -0.4922  0.1968  0.2363
  108OSM    C1S11050   1.960   0.758  10.316  0.4575 -0.1049  0.7086
  108OSM    H1S11051   1.861   0.801  10.342  0.8153  0.6169  0.9001
  108OSM    H1T11052   1.986   0.682  10.393  1.3959 -0.0004  0.5079
  108OSM     NF11053   1.827   0.597  10.181 -0.7177  0.9261 -0.2642
  108OSM    HNF11054   1.846   0.501  10.197  2.2380  1.4532 -0.1151
  108OSM    C2S11055   1.949   0.683  10.179 -0.4514 -0.7906 -0.6187
  108OSM    H2S11056   1.923   0.765  10.108 -1.3453 -1.2659 -0.8486
  108OSM    C3S11057   2.082   0.620  10.134 -0.1248 -0.1320 -0.0749
  108OSM    H3S11058   2.108   0.539  10.206  1.0917 -0.5026 -0.8930
  108OSM     O311059   2.191   0.713  10.138  0.8152 -0.5418 -0.5080
  108OSM    HO311060   2.166   0.777  10.205  2.0069 -0.1668 -0.4007
  108OSM    C4S11061   2.070   0.571   9.995  0.2621 -0.5200 -0.1488
  108OSM    H4S11062   2.090   0.659   9.932 -0.4935 -0.5620 -0.4611
  108OSM    C5S11063   2.047   0.447   9.946  0.8016  0.3010 -0.0125
  108OSM    H5S11064   2.023   0.374  10.024 -1.0773  0.4373 -0.4181
  108OSM    C6S11065   2.029   0.402   9.803 -0.0158 -0.2079 -0.5965
  108OSM    H6S11066   1.928   0.357   9.796  0.4944 -2.0624  2.1371
  108OSM    H6T11067   2.102   0.324   9.773 -0.9108 -0.6788 -1.5942
  108OSM    C7S11068   2.048   0.508   9.693 -0.1957  0.2832 -0.1324
  108OSM    H7S11069   2.143   0.556   9.726 -0.6219  0.2908  1.1437
  108OSM    H7T11070   1.970   0.587   9.692 -0.4316  0.0454 -0.5440
  108OSM    C8S11071   2.070   0.435   9.561 -0.2734 -0.2030 -0.6027
  108OSM    H8S11072   1.985   0.365   9.549 -0.0030 -0.8219  0.8618
  108OSM    H8T11073   2.167   0.382   9.567  0.2094  0.5923 -1.1695
  108OSM    C9S11074   2.078   0.532   9.445  0.0827  0.0890 -0.3128
  108OSM    H9S11075   2.174   0.586   9.459 -0.3940  0.3600  2.5848
  108OSM    H9T11076   1.994   0.604   9.456  0.1096  0.0197  0.3795
  108OSM   C10S11077   2.066   0.475   9.307  0.3413  0.0418  0.2148
  108OSM   H10S11078   2.149   0.405   9.287 -1.3302 -1.6940 -1.0159
  108OSM   H10T11079   2.077   0.557   9.233  1.7816 -1.1844 -1.0026
  108OSM   C11S11080   1.932   0.413   9.290  0.1761 -0.1166 -0.0056
  108OSM   H11S11081   1.852   0.486   9.314 -0.6823 -0.4823 -1.6206
  108OSM   H11T11082   1.922   0.329   9.362  1.0622 -0.4005 -0.2027
  108OSM   C12S11083   1.907   0.370   9.140 -0.5516 -0.3918  0.3898
  108OSM   H12S11084   1.932   0.445   9.062 -0.4683  0.1510  0.9361
  108OSM   H12T11085   1.798   0.351   9.127 -0.5449  0.4940 -1.3101
  108OSM   C13S11086   1.972   0.236   9.091 -0.0530 -0.0634 -0.9879
  108OSM   H13S11087   1.955   0.167   9.177 -2.0677  3.1333  1.4138
  108OSM   H13T11088   2.082   0.239   9.079  0.6980  2.7795  3.8957
  108OSM   C14S11089   1.900   0.177   8.966  0.3508  0.0884  1.0381
  108OSM   H14S11090   1.796   0.215   8.956  0.3691 -0.4680 -2.3664
  108OSM   H14T11091   1.887   0.068   8.986  0.3436  0.1018  1.1073
  108OSM   C15S11092   1.959   0.204   8.831  0.4311 -0.0388  0.5893
  108OSM   H15S11093   2.065   0.171   8.829  0.5637  0.3860 -0.4423
  108OSM   H15T11094   1.953   0.312   8.807 -0.8128 -0.3169 -0.4683
  108OSM   C16S11095   1.894   0.112   8.725  0.4373  0.2207  0.1625
  108OSM   H16S11096   1.785   0.133   8.722  0.7447  1.7808 -1.3771
  108OSM   H16T11097   1.905   0.007   8.760  3.4297  0.6931  0.8881
  108OSM   C17S11098   1.944   0.143   8.586  0.4471 -0.1537  0.1611
  108OSM   H17S11099   2.051   0.115   8.575  0.3261 -0.2924 -0.7815
  108OSM   H17T11100   1.933   0.253   8.575  0.1124 -0.1420  0.5962
  108OSM   C18S11101   1.866   0.078   8.473  0.1694 -0.5941  0.2520
  108OSM   H18S11102   1.771   0.132   8.456  1.1845  0.8854 -0.9136
  108OSM   H18T11103   1.846  -0.026   8.507 -1.7799 -0.4291 -0.2290
  108OSM   H18U11104   1.929   0.074   8.382  1.3474  1.2324  0.9513
  108OSM    C1F11105   1.702   0.644  10.183  0.5111  0.0027  0.3109
  108OSM     OF11106   1.678   0.767  10.167 -0.0478  0.5067  0.2431
  108OSM    C2F11107   1.592   0.541  10.198  0.8991  0.0171  0.7016
  108OSM    H2F11108   1.498   0.599  10.197 -1.3404 -3.3063  1.8207
  108OSM    H2G11109   1.611   0.499  10.299  0.6208  1.0291  1.1895
  108OSM    C3F11110   1.599   0.439  10.080  0.3061  0.3687  1.0789
  108OSM    H3F11111   1.519   0.363  10.097  0.6144 -0.7576 -1.9044
  108OSM    H3G11112   1.690   0.376  10.083 -0.3001 -0.7078 -1.2225
  108OSM    C4F11113   1.573   0.496   9.939 -0.5272 -0.4478 -0.3224
  108OSM    H4F11114   1.651   0.570   9.912  0.9188 -2.1022 -0.8529
  108OSM    H4G11115   1.477   0.552   9.938  0.0504  0.6739  1.7627
  108OSM    C5F11116   1.563   0.397   9.822  0.3453 -0.1068 -0.2105
  108OSM    H5F11117   1.476   0.332   9.845 -0.0591  0.8394  0.9983
  108OSM    H5G11118   1.652   0.330   9.828  2.3628  2.4847  1.0212
  108OSM    C6F11119   1.543   0.462   9.684 -0.1650 -0.2226  0.0771
  108OSM    H6F11120   1.625   0.533   9.660  0.9416 -1.8468 -1.1226
  108OSM    H6G11121   1.443   0.510   9.674 -1.0036 -1.9553 -0.3391
  108OSM    C7F11122   1.550   0.360   9.567  0.6596 -0.0554  0.8270
  108OSM    H7F11123   1.452   0.312   9.549 -0.8011  4.0198 -4.5241
  108OSM    H7G11124   1.621   0.276   9.584 -0.5063 -0.8737  1.9316
  108OSM    C8F11125   1.593   0.429   9.435 -0.2157  0.5336  0.5305
  108OSM    H8F11126   1.611   0.356   9.354 -1.1789  2.4082 -1.4614
  108OSM    H8G11127   1.689   0.483   9.449  0.9501 -0.7709 -1.9586
  108OSM    C9F11128   1.484   0.518   9.388  0.1026  0.0198 -0.2984
  108OSM    H9F11129   1.464   0.604   9.454  0.9382  0.5071 -0.6677
  108OSM   C10F11130   1.406   0.516   9.274 -0.2643 -0.5679 -0.1605
  108OSM   H10F11131   1.338   0.599   9.252 -3.1135 -3.1455 -1.8786
  108OSM   C11F11132   1.417   0.415   9.159 -0.5206  0.2995  0.3442
  108OSM   H11F11133   1.316   0.374   9.141  0.6828 -2.0620 -1.6784
  108OSM   H11G11134   1.479   0.328   9.193  0.5649  1.7622  2.3258
  108OSM   C12F11135   1.483   0.474   9.036 -0.5571 -0.1658  0.3077
  108OSM   H12F11136   1.463   0.404   8.952  0.3934 -0.2963  0.1812
  108OSM   H12G11137   1.593   0.475   9.049 -0.2196  0.6106 -2.2259
  108OSM   C13F11138   1.428   0.611   8.987  1.3021  0.5603 -0.0538
  108OSM   H13F11139   1.459   0.693   9.055 -2.2708 -0.0088  2.5388
  108OSM   H13G11140   1.317   0.611   8.998  1.3463 -1.7266  1.0045
  108OSM   C14F11141   1.459   0.635   8.840 -1.1885  1.1884  0.2288
  108OSM   H14F11142   1.414   0.736   8.829  0.1501  1.7606 -0.2674
  108OSM   H14G11143   1.404   0.561   8.779  1.8695 -1.4086  0.3732
  108OSM   C15F11144   1.610   0.638   8.813  0.2439 -0.0511 -0.3526
  108OSM   H15F11145   1.638   0.538   8.774 -0.3072  0.1223 -1.2131
  108OSM   H15G11146   1.674   0.659   8.901  0.8230  1.1171 -1.0289
  108OSM   C16F11147   1.642   0.739   8.703  0.2774 -0.4805 -0.8389
  108OSM   H16F11148   1.631   0.845   8.737 -0.9786 -0.1354 -2.2430
  108OSM   H16G11149   1.569   0.730   8.620 -1.2526 -0.0560  0.4035
  108OSM   C17F11150   1.791   0.721   8.653 -0.4272 -0.4641 -0.1372
  108OSM   H17F11151   1.848   0.686   8.742 -1.1186  0.5002  0.6997
  108OSM   H17G11152   1.812   0.818   8.602 -2.9091 -0.0823 -0.5234
  108OSM   C18F11153   1.805   0.622   8.537 -0.0219  0.0206  0.0370
  108OSM   H18F11154   1.772   0.521   8.570  0.5679  0.1946  1.1985
  108OSM   H18G11155   1.914   0.614   8.521  0.4794 -0.1608  2.9812
  108OSM   H18H11156   1.751   0.672   8.453 -0.2690  0.4028  0.4220
  109OSM      N11157   1.374   6.751  11.063  0.3108 -0.2512  0.2050
  109OSM    C1511158   1.313   6.842  11.163 -0.2517  0.6232 -0.4773
  109OSM   H15A11159   1.356   6.839  11.262 -2.1001  1.0231  0.3843
  109OSM   H15B11160   1.206   6.828  11.171 -0.0822 -1.5769 -1.4979
  109OSM   H15C11161   1.321   6.944  11.130  0.1589  0.1406 -1.9421
  109OSM    C1411162   1.518   6.789  11.047  0.3477 -0.6522 -0.2381
  109OSM   H14A11163   1.518   6.881  10.991 -2.4948 -0.0160  0.6744
  109OSM   H14B11164   1.570   6.713  10.990 -1.0522 -0.5795 -1.6792
  109OSM   H14C11165   1.571   6.806  11.140  1.8972  2.1506 -1.4867
  109OSM    C1311166   1.359   6.613  11.104  0.1099 -0.4871  0.4219
  109OSM   H13A11167   1.424   6.549  11.046 -0.1057  0.1314 -0.5432
  109OSM   H13B11168   1.259   6.575  11.099 -0.3544  0.8383 -1.3624
  109OSM   H13C11169   1.404   6.604  11.202  0.6292  1.6006  0.4349
  109OSM    C1211170   1.310   6.759  10.927 -0.2623  0.0523  0.3126
  109OSM   H12A11171   1.205   6.734  10.940 -0.0761 -1.2214 -0.4361
  109OSM   H12B11172   1.335   6.676  10.861  1.0589 -0.5824  1.5676
  109OSM    C1111173   1.312   6.888  10.843 -0.1234  0.2532 -0.3803
  109OSM   H11A11174   1.261   6.863  10.748  1.9178 -0.9013 -1.2550
  109OSM   H11B11175   1.413   6.914  10.803 -0.2341  2.0388  0.4120
  109OSM      P11176   1.089   7.017  10.926  0.0813  0.0782 -0.1087
  109OSM    O1311177   1.036   6.935  11.033 -0.1013  0.3178 -0.1522
  109OSM    O1411178   1.068   7.165  10.924  0.0492  0.3070 -0.5305
  109OSM    O1111179   1.035   6.959  10.785  0.0446  0.3690  0.4149
  109OSM    O1211180   1.251   6.997  10.911 -0.2857 -0.3504 -0.1263
  109OSM    C1S11181   1.058   7.037  10.666 -0.1850  0.3537  0.6879
  109OSM    H1S11182   1.160   7.082  10.660 -0.8039  1.7917  0.5329
  109OSM    H1T11183   1.000   7.131  10.667  2.9363  2.5567 -1.8198
  109OSM     NF11184   1.024   7.035  10.420 -0.4597 -0.2971 -0.0029
  109OSM    HNF11185   0.940   7.068  10.379  0.0626 -1.4152 -2.1201
  109OSM    C2S11186   1.018   6.952  10.539  0.4800  0.1160  0.7274
  109OSM    H2S11187   1.087   6.866  10.523  0.8940  0.5787  0.0164
  109OSM    C3S11188   0.879   6.883  10.566  1.1224  0.6366  0.3241
  109OSM    H3S11189   0.811   6.963  10.602 -0.9463 -1.3529  1.0790
  109OSM     O311190   0.865   6.793  10.676 -0.2038  0.4104  0.4319
  109OSM    HO311191   0.943   6.802  10.731 -0.0804  1.3408  0.1149
  109OSM    C4S11192   0.824   6.821  10.448  0.5650 -0.5509 -0.3988
  109OSM    H4S11193   0.904   6.769  10.393 -2.1848 -2.5518 -2.7768
  109OSM    C5S11194   0.695   6.817  10.402 -0.5566 -0.1944 -0.6664
  109OSM    H5S11195   0.617   6.871  10.457  0.9729 -0.0602  1.5107
  109OSM    C6S11196   0.666   6.772  10.261  0.5794 -0.3803 -0.8269
  109OSM    H6S11197   0.582   6.833  10.224  0.7452  0.7691  0.6179
  109OSM    H6T11198   0.618   6.673  10.278 -2.1606  0.9181 -0.4916
  109OSM    C7S11199   0.760   6.784  10.141  0.4919 -1.0068 -0.0508
  109OSM    H7S11200   0.847   6.719  10.168 -0.2743 -1.2546  2.0232
  109OSM    H7T11201   0.799   6.887  10.128 -1.1035 -0.4446 -0.5612
  109OSM    C8S11202   0.711   6.718  10.011 -0.5051 -0.6137  0.2304
  109OSM    H8S11203   0.628   6.786   9.982 -0.8630 -1.5619 -1.0189
  109OSM    H8T11204   0.669   6.616  10.022 -1.9273  0.0422  1.3443
  109OSM    C9S11205   0.812   6.705   9.903 -0.0970 -0.0176 -0.0112
  109OSM    H9S11206   0.865   6.803   9.892  0.3833 -0.1011  1.3240
  109OSM    H9T11207   0.756   6.696   9.808  0.2921  2.3667 -0.5264
  109OSM   C10S11208   0.904   6.579   9.929  0.4506  0.1290  0.3790
  109OSM   H10S11209   0.851   6.482   9.930  0.1682  0.2810  1.4536
  109OSM   H10T11210   0.950   6.604  10.028 -0.4094  0.5556  0.6822
  109OSM   C11S11211   1.024   6.556   9.825 -0.6592 -0.0584 -0.0455
  109OSM   H11S11212   1.082   6.465   9.851 -0.7017 -0.5721 -1.6443
  109OSM   H11T11213   1.094   6.642   9.834  1.9283 -1.6840 -2.8390
  109OSM   C12S11214   0.974   6.548   9.678 -0.3011 -0.7702  0.6061
  109OSM   H12S11215   0.894   6.621   9.654  0.6164  0.5939  1.5801
  109OSM   H12T11216   0.916   6.454   9.667 -1.0836 -0.2914  0.5609
  109OSM   C13S11217   1.097   6.561   9.578  0.9052 -0.1214  0.1176
  109OSM   H13S11218   1.172   6.483   9.603  1.3779  0.5018  0.6689
  109OSM   H13T11219   1.137   6.663   9.599 -1.2238  0.3611  2.1203
  109OSM   C14S11220   1.054   6.564   9.440  0.6019  0.8239 -0.0327
  109OSM   H14S11221   0.973   6.639   9.427 -2.4111 -2.1000  0.4268
  109OSM   H14T11222   1.009   6.465   9.417  2.3354 -0.3633  1.4069
  109OSM   C15S11223   1.175   6.585   9.350 -0.0273  0.0776 -0.3247
  109OSM   H15S11224   1.244   6.502   9.375 -2.8384 -2.0548  0.9438
  109OSM   H15T11225   1.224   6.683   9.366  0.1133  0.5839 -3.3280
  109OSM   C16S11226   1.151   6.589   9.203  0.4312 -0.3067 -0.5939
  109OSM   H16S11227   1.241   6.613   9.143 -0.2696  1.8499 -0.8592
  109OSM   H16T11228   1.081   6.670   9.174  0.1692  0.6763  2.3965
  109OSM   C17S11229   1.089   6.454   9.147  0.1180 -0.0505  0.2075
  109OSM   H17S11230   1.011   6.413   9.215  1.7529 -0.1817  2.0919
  109OSM   H17T11231   1.170   6.377   9.150  0.8100  0.4698 -2.7240
  109OSM   C18S11232   1.047   6.468   9.005  0.1942  0.6025 -0.1933
  109OSM   H18S11233   0.969   6.546   8.991 -0.8129 -0.1700  0.8777
  109OSM   H18T11234   0.993   6.374   8.983  0.0599  0.7615 -0.5434
  109OSM   H18U11235   1.129   6.473   8.931  0.2314  2.7412 -0.0751
  109OSM    C1F11236   1.138   7.072  10.356 -0.0751  0.0904  0.0598
  109OSM     OF11237   1.244   7.066  10.417 -0.3395 -0.6636 -0.1119
  109OSM    C2F11238   1.126   7.120  10.210 -0.1733 -0.5319  0.2319
  109OSM    H2F11239   1.134   7.230  10.200  0.7895 -0.7298 -1.4978
  109OSM    H2G11240   1.030   7.081  10.172 -0.3607 -0.2425  0.4067
  109OSM    C3F11241   1.240   7.065  10.119  0.0147 -0.1172  0.3265
  109OSM    H3F11242   1.256   6.956  10.135  0.8058 -0.0982 -0.2656
  109OSM    H3G11243   1.337   7.109  10.153 -1.4906  0.4172  4.4788
  109OSM    C4F11244   1.218   7.077   9.969 -0.0579 -0.1895  0.1329
  109OSM    H4F11245   1.312   7.046   9.917 -0.2190  1.3315 -1.1438
  109OSM    H4G11246   1.179   7.175   9.933 -1.0714 -0.3977  0.6295
  109OSM    C5F11247   1.095   6.983   9.924 -0.3821 -0.3742 -0.9775
  109OSM    H5F11248   1.000   7.034   9.951  0.3590  1.0017 -0.8888
  109OSM    H5G11249   1.092   6.889   9.984  2.0768 -0.6495 -1.1845
  109OSM    C6F11250   1.101   6.949   9.772 -0.4217  0.4285 -0.4526
  109OSM    H6F11251   1.032   6.864   9.753 -0.2554  0.0722  0.4861
  109OSM    H6G11252   1.201   6.916   9.736 -0.5384  0.5134 -0.8642
  109OSM    C7F11253   1.075   7.077   9.691  0.7018  0.7423  0.1282
  109OSM    H7F11254   1.146   7.156   9.726 -1.7167  2.0500  2.3965
  109OSM    H7G11255   0.972   7.098   9.724  0.0551 -2.1198  0.1512
  109OSM    C8F11256   1.082   7.063   9.538 -0.1150 -0.3215  0.3439
  109OSM    H8F11257   0.990   7.009   9.507 -0.3523  0.4205 -0.2981
  109OSM    H8G11258   1.167   7.004   9.498 -0.0414 -0.7069  1.0523
  109OSM    C9F11259   1.071   7.202   9.476 -0.1477  0.2671 -0.8499
  109OSM    H9F11260   1.158   7.269   9.489  1.0031 -1.1070 -1.2542
  109OSM   C10F11261   0.975   7.248   9.394  0.2118  0.6205 -0.4392
  109OSM   H10F11262   0.978   7.355   9.369  1.1303  0.4309 -1.1977
  109OSM   C11F11263   0.847   7.179   9.353  0.4244  1.2963 -0.0030
  109OSM   H11F11264   0.787   7.258   9.302  0.8380  1.1115 -0.7911
  109OSM   H11G11265   0.782   7.148   9.437  0.7921 -0.2657 -0.2602
  109OSM   C12F11266   0.866   7.056   9.256 -0.4754 -0.0524  0.4359
  109OSM   H12F11267   0.912   6.971   9.312  1.9364 -0.0356 -1.3618
  109OSM   H12G11268   0.939   7.080   9.176 -1.5057 -1.4682 -0.9793
  109OSM   C13F11269   0.738   7.013   9.189 -0.3250  0.2720 -0.1848
  109OSM   H13F11270   0.656   7.078   9.227 -2.7033 -1.3030 -2.2686
  109OSM   H13G11271   0.709   6.911   9.223 -0.0263  0.2126 -0.1062
  109OSM   C14F11272   0.735   7.020   9.035  0.4219 -0.6329  0.0496
  109OSM   H14F11273   0.816   6.954   8.996  2.1195  0.6910  1.1407
  109OSM   H14G11274   0.762   7.125   9.009  2.5747 -1.3061 -0.7060
  109OSM   C15F11275   0.599   6.980   8.987  0.5843 -0.2075  0.8906
  109OSM   H15F11276   0.531   7.054   9.034  1.0775 -0.6360  2.3443
  109OSM   H15G11277   0.575   6.881   9.030  0.2613 -0.8466 -0.6973
  109OSM   C16F11278   0.580   6.974   8.829  0.4248  0.2077  0.0404
  109OSM   H16F11279   0.470   6.966   8.815  0.1681  0.4161  1.7575
  109OSM   H16G11280   0.631   6.883   8.790  0.3910  0.3567 -0.3565
  109OSM   C17F11281   0.627   7.099   8.755 -1.1464 -0.0366  0.1439
  109OSM   H17F11282   0.617   7.082   8.646  1.5833  1.4166 -0.4175
  109OSM   H17G11283   0.735   7.108   8.779 -1.3400  0.6931  0.7708
  109OSM   C18F11284   0.561   7.224   8.807 -0.5667  0.1626 -0.2201
  109OSM   H18F11285   0.594   7.312   8.748 -2.3985  1.3326  0.4121
  109OSM   H18G11286   0.584   7.233   8.915 -3.4258 -0.9645  0.5675
  109OSM   H18H11287   0.450   7.216   8.803 -0.5902  0.5579 -0.3958
  110OSM      N11288   2.579   4.999  11.140 -0.3544  0.6835  0.5064
  110OSM    C1511289   2.715   5.057  11.164  0.8008  0.2042  0.1347
  110OSM   H15A11290   2.738   5.047  11.269  0.2791  2.0793  0.4683
  110OSM   H15B11291   2.714   5.163  11.146 -3.4810  0.1489 -1.0484
  110OSM   H15C11292   2.802   5.020  11.111  0.2108 -1.0861  0.0293
  110OSM    C1411293   2.579   4.853  11.169  0.1615  0.1567  0.0614
  110OSM   H14A11294   2.487   4.802  11.144  0.2802 -0.4801  0.8919
  110OSM   H14B11295   2.591   4.842  11.275  1.1274  0.0546 -0.0496
  110OSM   H14C11296   2.656   4.791  11.126  1.0023  1.0127  0.2877
  110OSM    C1311297   2.476   5.071  11.228  0.0119 -0.1090  0.7026
  110OSM   H13A11298   2.462   5.174  11.200  1.2578 -0.4813 -1.5234
  110OSM   H13B11299   2.514   5.062  11.328 -2.2094 -2.9804  1.4511
  110OSM   H13C11300   2.383   5.016  11.218  0.0485  0.1758 -2.2975
  110OSM    C1211301   2.546   5.008  10.995  0.0167 -0.1090  0.2608
  110OSM   H12A11302   2.442   4.978  10.989 -0.7283  2.2356  0.7674
  110OSM   H12B11303   2.617   4.945  10.943 -1.0275 -0.7168 -0.4838
  110OSM    C1111304   2.552   5.144  10.926  0.5364 -0.0502  0.6233
  110OSM   H11A11305   2.486   5.223  10.967  1.0554  1.0155 -0.5345
  110OSM   H11B11306   2.507   5.130  10.825 -1.0657  1.1382  1.1370
  110OSM      P11307   2.783   5.133  10.817  0.0101  0.0746  0.0701
  110OSM    O1311308   2.908   5.214  10.821 -0.1661 -0.3865 -0.6810
  110OSM    O1411309   2.808   4.993  10.862  0.6688  0.1379  0.3903
  110OSM    O1111310   2.714   5.132  10.676  0.1904  0.0577 -0.2260
  110OSM    O1211311   2.681   5.204  10.912  0.3353  0.2880 -0.0641
  110OSM    C1S11312   2.679   5.255  10.616  0.0817 -0.1198  0.0890
  110OSM    H1S11313   2.683   5.343  10.684  2.7253 -1.1522  1.4188
  110OSM    H1T11314   2.572   5.248  10.586  0.2437  1.1056 -0.8665
  110OSM     NF11315   2.738   5.412  10.455  0.0099 -1.1351 -0.6882
  110OSM    HNF11316   2.649   5.430  10.414  0.1650  1.3213 -0.0855
  110OSM    C2S11317   2.761   5.275  10.486 -0.0967  0.2288 -0.3820
  110OSM    H2S11318   2.868   5.256  10.510 -0.5341  0.2971  1.8162
  110OSM    C3S11319   2.712   5.166  10.389  0.8119 -0.9443  0.7126
  110OSM    H3S11320   2.606   5.186  10.362  0.8155 -1.2624  0.4562
  110OSM     O311321   2.716   5.034  10.432 -0.7192  0.3084  0.5112
  110OSM    HO311322   2.714   5.041  10.528  2.2262 -1.8646  0.8706
  110OSM    C4S11323   2.773   5.187  10.256 -0.4901 -0.0122  0.6567
  110OSM    H4S11324   2.713   5.264  10.204  1.2791  2.4613  2.0750
  110OSM    C5S11325   2.874   5.127  10.192  0.4702  0.0805  0.1636
  110OSM    H5S11326   2.929   5.041  10.233  0.3200 -0.9672 -1.6903
  110OSM    C6S11327   2.927   5.176  10.057  0.1022  0.4389 -0.4726
  110OSM    H6S11328   2.890   5.106   9.979 -2.2064  0.5879  0.4041
  110OSM    H6T11329   3.037   5.166  10.063  0.0039  0.3368  2.7472
  110OSM    C7S11330   2.887   5.316  10.011  0.7126 -0.0436 -0.7179
  110OSM    H7S11331   2.901   5.385  10.096  0.0985  0.2147 -0.8195
  110OSM    H7T11332   2.776   5.310   9.999  0.4006  0.3037  1.6274
  110OSM    C8S11333   2.952   5.368   9.873  0.2692  1.1878 -0.5929
  110OSM    H8S11334   2.924   5.305   9.786  2.3695 -2.6351  1.2560
  110OSM    H8T11335   3.063   5.367   9.880  0.2709 -0.3657 -0.6075
  110OSM    C9S11336   2.914   5.514   9.833  0.4529 -0.2809  0.7192
  110OSM    H9S11337   2.934   5.588   9.914  0.3925  1.1997 -0.5557
  110OSM    H9T11338   2.808   5.514   9.798  0.4572 -0.5408  0.7088
  110OSM   C10S11339   3.001   5.568   9.725 -0.2823  0.3240 -0.0194
  110OSM   H10S11340   3.106   5.566   9.760 -0.1396  2.4205 -0.2430
  110OSM   H10T11341   2.974   5.674   9.705  2.1949  1.5538  2.5013
  110OSM   C11S11342   3.004   5.488   9.594 -0.4160  0.1706  0.2624
  110OSM   H11S11343   3.011   5.379   9.611 -0.2683 -0.0797 -1.2813
  110OSM   H11T11344   3.098   5.514   9.540 -0.7677 -0.9319 -0.9033
  110OSM   C12S11345   2.882   5.506   9.501 -0.0787 -0.3485  0.3850
  110OSM   H12S11346   2.877   5.612   9.467  0.2842 -0.6563 -0.6743
  110OSM   H12T11347   2.788   5.494   9.559 -1.0876 -0.6072 -1.2163
  110OSM   C13S11348   2.879   5.405   9.379 -0.0524 -0.5420 -0.2571
  110OSM   H13S11349   2.864   5.304   9.422 -0.8328 -1.4006 -2.3821
  110OSM   H13T11350   2.971   5.426   9.319  0.0530  1.7270  0.5967
  110OSM   C14S11351   2.751   5.436   9.298 -0.4280  0.4429 -0.0631
  110OSM   H14S11352   2.724   5.544   9.294 -0.0692  0.6436  1.8397
  110OSM   H14T11353   2.660   5.384   9.335  0.4103 -0.8438  0.2364
  110OSM   C15S11354   2.766   5.383   9.155  1.1984 -0.0315 -0.4584
  110OSM   H15S11355   2.856   5.424   9.105 -0.9626  1.2741 -3.5684
  110OSM   H15T11356   2.683   5.423   9.093 -0.0675  0.7014  1.5772
  110OSM   C16S11357   2.758   5.228   9.153 -0.0112 -0.2136  0.4948
  110OSM   H16S11358   2.671   5.186   9.209 -0.3278 -2.9699 -1.8321
  110OSM   H16T11359   2.845   5.181   9.202  0.9996  0.6779 -0.3940
  110OSM   C17S11360   2.725   5.168   9.013  0.1131  0.1674  0.7894
  110OSM   H17S11361   2.647   5.227   8.961  2.3805  1.5377 -1.2762
  110OSM   H17T11362   2.673   5.073   9.038 -1.8659  0.7892 -0.6505
  110OSM   C18S11363   2.843   5.160   8.920  0.0456  0.3082  0.4404
  110OSM   H18S11364   2.808   5.120   8.822  0.0001  0.4884  0.3829
  110OSM   H18T11365   2.900   5.078   8.968 -0.0941  0.4601  0.8672
  110OSM   H18U11366   2.899   5.256   8.914  1.6225 -0.5593  0.6932
  110OSM    C1F11367   2.799   5.512  10.516  0.2444 -0.1369  0.2358
  110OSM     OF11368   2.892   5.489  10.593  0.1051  0.4376  0.1681
  110OSM    C2F11369   2.765   5.652  10.487 -0.3159 -0.2314 -0.4038
  110OSM    H2F11370   2.703   5.688  10.572  0.6593 -2.2150  1.2348
  110OSM    H2G11371   2.688   5.650  10.406 -1.2087 -0.7531  0.4240
  110OSM    C3F11372   2.883   5.745  10.452 -0.2679  1.3199  0.2897
  110OSM    H3F11373   2.955   5.736  10.536  3.3643 -0.7736 -2.7389
  110OSM    H3G11374   2.842   5.849  10.450 -0.2374  1.4176  2.5458
  110OSM    C4F11375   2.952   5.704  10.323 -0.2015 -0.0119  0.0531
  110OSM    H4F11376   2.870   5.663  10.260 -0.1779  2.0492 -1.4210
  110OSM    H4G11377   3.022   5.618  10.339 -2.1824 -1.6263  0.4567
  110OSM    C5F11378   3.013   5.815  10.239 -0.0137  0.1502 -0.0657
  110OSM    H5F11379   3.081   5.880  10.298 -0.7971 -0.6071  1.7274
  110OSM    H5G11380   2.936   5.879  10.191  0.1579  0.4499  0.0552
  110OSM    C6F11381   3.099   5.752  10.127 -0.1013 -0.3374 -0.3689
  110OSM    H6F11382   3.029   5.674  10.088 -0.3675 -0.6498  0.6997
  110OSM    H6G11383   3.189   5.704  10.170  0.4580  0.4215 -0.6769
  110OSM    C7F11384   3.148   5.857  10.023  0.7341  1.0386  0.9150
  110OSM    H7F11385   3.212   5.914  10.094  0.2441  0.9024  1.4731
  110OSM    H7G11386   3.074   5.931   9.986  2.0394  2.0963  0.3166
  110OSM    C8F11387   3.219   5.792   9.910 -0.3552  0.3662 -0.1081
  110OSM    H8F11388   3.148   5.723   9.860 -0.1439 -1.6051  2.1126
  110OSM    H8G11389   3.302   5.727   9.945 -1.1998  0.5087  2.3639
  110OSM    C9F11390   3.285   5.904   9.841  0.0552 -0.4607  1.1097
  110OSM    H9F11391   3.352   5.968   9.899 -0.4650  0.7880  0.3741
  110OSM   C10F11392   3.257   5.943   9.713  0.0614  0.4387 -0.7289
  110OSM   H10F11393   3.321   6.017   9.663  0.6679  0.1278 -0.4294
  110OSM   C11F11394   3.163   5.862   9.622  0.4380 -0.4335  0.4140
  110OSM   H11F11395   3.062   5.905   9.640  0.3754 -0.0044 -0.8685
  110OSM   H11G11396   3.162   5.754   9.648  1.0676 -0.3334  0.8874
  110OSM   C12F11397   3.213   5.864   9.476  0.1273 -0.3856  0.0552
  110OSM   H12F11398   3.318   5.829   9.478  0.6701  1.0816 -1.0008
  110OSM   H12G11399   3.229   5.966   9.434  0.1774 -0.1784  0.5659
  110OSM   C13F11400   3.149   5.759   9.388  0.1970 -0.4862 -0.1538
  110OSM   H13F11401   3.040   5.773   9.372  0.1984 -2.0543 -1.9918
  110OSM   H13G11402   3.157   5.666   9.449  1.0069  2.0443  3.9559
  110OSM   C14F11403   3.214   5.735   9.253 -0.4032  0.5556 -0.7628
  110OSM   H14F11404   3.323   5.732   9.278 -0.8305 -1.5016  1.1171
  110OSM   H14G11405   3.197   5.822   9.185  2.3780  1.6572 -0.2224
  110OSM   C15F11406   3.177   5.596   9.188 -0.4258  0.3028 -0.6727
  110OSM   H15F11407   3.067   5.602   9.177 -0.5020  1.7354  0.5213
  110OSM   H15G11408   3.202   5.519   9.264  2.1291  3.2513  1.7853
  110OSM   C16F11409   3.250   5.577   9.054 -0.5588  0.2429  0.1117
  110OSM   H16F11410   3.357   5.551   9.070 -1.1847 -1.3383  2.4018
  110OSM   H16G11411   3.263   5.679   9.012  2.4127 -0.3043 -0.5092
  110OSM   C17F11412   3.182   5.483   8.956 -0.2061 -0.4699 -0.5204
  110OSM   H17F11413   3.228   5.467   8.856  0.7022 -0.1798 -0.1519
  110OSM   H17G11414   3.073   5.506   8.947 -0.1198 -0.0655 -0.5701
  110OSM   C18F11415   3.172   5.343   9.019 -0.3071 -0.3486 -0.8175
  110OSM   H18F11416   3.272   5.314   9.057 -0.2616  0.6065 -0.1796
  110OSM   H18G11417   3.131   5.267   8.949  0.1028 -0.6753 -0.7074
  110OSM   H18H11418   3.104   5.337   9.107 -0.2978 -1.9190 -0.8913
  111OSM      N11419   3.064   3.480  10.839  0.0989 -0.2031 -0.1199
  111OSM    C1511420   3.205   3.439  10.879  0.0179  0.1097 -0.2939
  111OSM   H15A11421   3.194   3.365  10.956  3.0168 -1.6641 -1.4017
  111OSM   H15B11422   3.256   3.524  10.923 -0.0965  0.1614 -0.2616
  111OSM   H15C11423   3.270   3.391  10.807 -0.8290 -0.6733 -0.5493
  111OSM    C1411424   2.995   3.359  10.788  0.2590  0.1497  0.5022
  111OSM   H14A11425   2.995   3.281  10.862 -3.5787 -2.6397 -2.0545
  111OSM   H14B11426   3.045   3.312  10.704 -0.7512 -1.2414  0.6474
  111OSM   H14C11427   2.891   3.368  10.760  1.0228 -0.2433 -2.9616
  111OSM    C1311428   2.999   3.530  10.958  0.4667 -0.3201 -0.4701
  111OSM   H13A11429   2.998   3.453  11.034 -1.5249  0.9680  0.9009
  111OSM   H13B11430   2.895   3.534  10.930 -0.1847  1.1043  1.8503
  111OSM   H13C11431   3.032   3.626  10.994 -1.9584  0.3875  0.0903
  111OSM    C1211432   3.078   3.581  10.724  0.3934  0.1634 -0.5076
  111OSM   H12A11433   3.122   3.671  10.765 -0.5471  0.6741 -0.5874
  111OSM   H12B11434   2.977   3.609  10.695  0.7677  3.5195  0.9468
  111OSM    C1111435   3.156   3.553  10.604 -0.3413 -0.4931 -0.4286
  111OSM   H11A11436   3.250   3.498  10.628 -0.0412 -0.0220 -0.5113
  111OSM   H11B11437   3.182   3.642  10.543  1.7919 -2.0682 -1.9681
  111OSM      P11438   2.964   3.534  10.431 -0.6469 -0.4028 -0.8466
  111OSM    O1311439   2.924   3.444  10.324  0.5319 -0.1289 -0.1182
  111OSM    O1411440   2.861   3.590  10.520  0.2631  0.3431 -0.1684
  111OSM    O1111441   3.030   3.653  10.365 -0.4154  0.1723 -0.1078
  111OSM    O1211442   3.081   3.476  10.515 -0.0596  0.5276  0.1432
  111OSM    C1S11443   3.134   3.654  10.264  0.3780  0.6213 -0.1209
  111OSM    H1S11444   3.191   3.559  10.274 -1.3224 -0.4049  0.2631
  111OSM    H1T11445   3.207   3.735  10.287  0.1930  0.2955  1.7813
  111OSM     NF11446   3.190   3.651  10.027  1.1588  0.5258  0.7653
  111OSM    HNF11447   3.233   3.733   9.989  1.9548 -0.7556 -1.3071
  111OSM    C2S11448   3.080   3.683  10.121  0.7365  0.2049  0.6132
  111OSM    H2S11449   3.001   3.606  10.105  1.1167 -0.1278  0.3141
  111OSM    C3S11450   3.025   3.829  10.118  0.1103  0.3457  0.8480
  111OSM    H3S11451   3.115   3.891  10.138  1.3346 -1.2651  0.5757
  111OSM     O311452   2.932   3.852  10.220  0.2133  0.2031  0.1192
  111OSM    HO311453   2.935   3.774  10.276 -3.2294 -0.5258 -0.5190
  111OSM    C4S11454   2.966   3.872   9.979  0.8004 -1.1653  0.1423
  111OSM    H4S11455   3.045   3.890   9.906  1.2898  2.1002  1.3253
  111OSM    C5S11456   2.831   3.871   9.937 -0.0198 -0.4967  0.2845
  111OSM    H5S11457   2.746   3.844  10.001 -1.5380 -0.6686 -1.7460
  111OSM    C6S11458   2.788   3.910   9.792  0.2037  0.0043 -0.4230
  111OSM    H6S11459   2.747   4.013   9.806  0.9519  0.0940  1.3569
  111OSM    H6T11460   2.702   3.847   9.760  1.2795 -2.5490  1.4544
  111OSM    C7S11461   2.900   3.918   9.685  0.3243 -0.4624  0.0359
  111OSM    H7S11462   2.932   3.812   9.681  0.9515 -0.3465  1.6407
  111OSM    H7T11463   2.984   3.977   9.727  0.0548 -0.2731  0.3126
  111OSM    C8S11464   2.842   3.966   9.554  0.4349  0.3442 -0.3078
  111OSM    H8S11465   2.804   4.070   9.559  1.2043  0.7315 -1.8802
  111OSM    H8T11466   2.753   3.904   9.530 -0.8059  2.4697 -1.5089
  111OSM    C9S11467   2.956   3.953   9.452 -0.4522 -0.2364  0.2474
  111OSM    H9S11468   2.976   3.850   9.417 -0.5406  0.3374 -1.6464
  111OSM    H9T11469   3.051   3.993   9.493 -0.1917  1.2489 -1.6181
  111OSM   C10S11470   2.935   4.040   9.327  0.7137 -0.1663  0.5565
  111OSM   H10S11471   2.927   4.146   9.360  0.2920 -0.1235  0.3196
  111OSM   H10T11472   2.835   4.027   9.281  0.6014  2.4953 -0.1056
  111OSM   C11S11473   3.031   4.012   9.217 -0.1301  0.0502 -0.4257
  111OSM   H11S11474   3.023   3.903   9.199  0.4775  0.1816 -1.6023
  111OSM   H11T11475   3.135   4.026   9.254 -0.3753 -0.4940  0.4821
  111OSM   C12S11476   3.002   4.072   9.086  0.2888  0.0936 -0.2740
  111OSM   H12S11477   3.005   4.182   9.101 -1.2321 -0.0801  1.6803
  111OSM   H12T11478   2.896   4.047   9.065  0.3799 -1.4263  0.9015
  111OSM   C13S11479   3.090   4.038   8.973 -0.5785  0.1399  0.0831
  111OSM   H13S11480   3.065   3.934   8.941 -2.2174  0.0776  1.4769
  111OSM   H13T11481   3.192   4.032   9.018  0.1673  1.8180 -1.2987
  111OSM   C14S11482   3.102   4.134   8.854  0.4486 -0.8356 -0.0122
  111OSM   H14S11483   3.085   4.236   8.894 -0.1026 -0.8687 -0.1481
  111OSM   H14T11484   3.010   4.120   8.793 -0.5164 -0.9460  1.4254
  111OSM   C15S11485   3.229   4.124   8.765  0.3113  1.3432 -0.1847
  111OSM   H15S11486   3.224   4.031   8.704  0.3657  1.4447 -0.3428
  111OSM   H15T11487   3.319   4.113   8.829 -1.7040 -1.4239  2.5143
  111OSM   C16S11488   3.244   4.241   8.671 -0.6500  0.4211  0.6543
  111OSM   H16S11489   3.338   4.230   8.613 -3.0317  0.8364 -3.7254
  111OSM   H16T11490   3.254   4.336   8.728  0.5875  1.0691 -0.5920
  111OSM   C17S11491   3.135   4.261   8.567 -0.8719  0.1428  0.4025
  111OSM   H17S11492   3.033   4.238   8.604 -0.4820 -3.2638 -0.2757
  111OSM   H17T11493   3.153   4.200   8.475 -1.4998  3.4630 -2.1012
  111OSM   C18S11494   3.152   4.404   8.507  0.8090 -0.6414  0.5098
  111OSM   H18S11495   3.261   4.424   8.497  0.2435  1.8108 -1.9177
  111OSM   H18T11496   3.114   4.480   8.580  2.5016 -0.1920  0.9784
  111OSM   H18U11497   3.104   4.421   8.409 -3.0228  1.8437  2.5520
  111OSM    C1F11498   3.229   3.527   9.997 -0.0947  1.0490  0.0432
  111OSM     OF11499   3.175   3.433  10.058 -0.8596 -0.0499 -0.1352
  111OSM    C2F11500   3.337   3.504   9.887 -0.3104  0.2047 -0.8066
  111OSM    H2F11501   3.406   3.424   9.922  1.0709  0.9736 -1.6521
  111OSM    H2G11502   3.400   3.595   9.874 -0.3221  0.0304 -2.1505
  111OSM    C3F11503   3.275   3.450   9.750 -0.1242  0.3011  0.1961
  111OSM    H3F11504   3.200   3.519   9.705  2.2390  1.2469 -2.6983
  111OSM    H3G11505   3.232   3.349   9.758  2.1904 -0.6640  1.5220
  111OSM    C4F11506   3.396   3.437   9.649 -0.3238  0.3626 -0.4333
  111OSM    H4F11507   3.470   3.373   9.702 -0.1892  1.2941  0.5316
  111OSM    H4G11508   3.424   3.542   9.630  2.5046 -0.4845 -1.4871
  111OSM    C5F11509   3.362   3.361   9.513 -0.4784 -0.0022  0.2421
  111OSM    H5F11510   3.285   3.431   9.474 -0.1568 -0.4772 -1.2820
  111OSM    H5G11511   3.311   3.266   9.537 -0.0317 -0.1481  0.6297
  111OSM    C6F11512   3.480   3.355   9.417  0.0548 -0.6982 -0.0913
  111OSM    H6F11513   3.573   3.332   9.475  1.0240  0.1218 -1.2664
  111OSM    H6G11514   3.497   3.456   9.374  2.1861  0.4082  2.9752
  111OSM    C7F11515   3.466   3.260   9.299 -0.5383 -0.3202  0.0289
  111OSM    H7F11516   3.376   3.289   9.241  0.7719  0.8342 -1.5117
  111OSM    H7G11517   3.449   3.162   9.350  2.6090 -0.5916  0.7456
  111OSM    C8F11518   3.590   3.239   9.216 -0.0697 -0.5213 -0.2788
  111OSM    H8F11519   3.580   3.148   9.154 -0.5432 -0.3906 -0.3994
  111OSM    H8G11520   3.671   3.220   9.290 -0.4086 -0.8758  0.0082
  111OSM    C9F11521   3.615   3.350   9.118 -0.0579  0.5780 -0.7083
  111OSM    H9F11522   3.659   3.437   9.169  0.7157 -0.1115 -0.1516
  111OSM   C10F11523   3.593   3.354   8.988  0.7132 -0.3819 -0.2204
  111OSM   H10F11524   3.629   3.436   8.924  1.8617  0.2879  1.2167
  111OSM   C11F11525   3.541   3.250   8.902 -0.0136  0.3550 -0.4502
  111OSM   H11F11526   3.454   3.296   8.849  0.5999  1.3628 -0.6121
  111OSM   H11G11527   3.494   3.167   8.959 -1.9644  3.3971  2.8809
  111OSM   C12F11528   3.643   3.180   8.811  0.0905  0.1349 -0.4471
  111OSM   H12F11529   3.696   3.108   8.878 -0.7423 -0.6691 -0.6336
  111OSM   H12G11530   3.711   3.258   8.770 -1.8497  0.4023 -3.3902
  111OSM   C13F11531   3.592   3.105   8.697  0.6666 -0.4236  0.5176
  111OSM   H13F11532   3.521   3.027   8.729 -0.9015  1.4466  1.8352
  111OSM   H13G11533   3.680   3.056   8.649  1.5456  1.4738  0.0540
  111OSM   C14F11534   3.524   3.198   8.596 -0.0362  0.9683  0.5553
  111OSM   H14F11535   3.597   3.278   8.571  0.2259 -0.3265 -3.3246
  111OSM   H14G11536   3.439   3.239   8.655 -1.0334 -1.0278  0.5890
  111OSM   C15F11537   3.476   3.137   8.463  0.2265  0.1176  0.3802
  111OSM   H15F11538   3.420   3.218   8.412 -0.2230 -0.8078 -0.6343
  111OSM   H15G11539   3.415   3.045   8.479  1.2652 -1.2875 -2.8399
  111OSM   C16F11540   3.593   3.085   8.378 -0.3383 -0.1699 -0.0042
  111OSM   H16F11541   3.636   2.999   8.433  0.9080  0.8618  0.6854
  111OSM   H16G11542   3.679   3.156   8.372  1.1274 -1.3198  3.9449
  111OSM   C17F11543   3.568   3.019   8.239  0.6131  0.1409 -0.1682
  111OSM   H17F11544   3.538   3.096   8.164  0.2147 -0.4767 -0.6524
  111OSM   H17G11545   3.488   2.943   8.246  0.6517  0.0524 -0.6131
  111OSM   C18F11546   3.689   2.952   8.176  0.2977 -0.3215 -0.3075
  111OSM   H18F11547   3.723   2.867   8.239 -0.3049 -0.0785  0.3567
  111OSM   H18G11548   3.773   3.025   8.168  0.0306  0.0000 -0.2049
  111OSM   H18H11549   3.660   2.913   8.076 -1.9167 -3.0711  1.2917
  112OSM      N11550   1.858   0.633  10.840 -0.1349  0.5304  0.3967
  112OSM    C1511551   1.722   0.580  10.813 -0.1768  0.9734 -0.6297
  112OSM   H15A11552   1.668   0.591  10.905  3.9686  0.5781  2.0957
  112OSM   H15B11553   1.730   0.475  10.792  2.2128  0.6652  1.4177
  112OSM   H15C11554   1.672   0.627  10.729  0.5628 -1.3783 -2.4914
  112OSM    C1411555   1.854   0.780  10.875  1.0913 -0.2467 -0.5198
  112OSM   H14A11556   1.944   0.818  10.920  0.1129  1.2523  0.2533
  112OSM   H14B11557   1.777   0.802  10.947 -0.3682  2.9696 -2.8019
  112OSM   H14C11558   1.848   0.846  10.790  0.7915  3.2828  1.9887
  112OSM    C1311559   1.920   0.551  10.950  0.2223  0.4099 -0.1152
  112OSM   H13A11560   1.866   0.561  11.043 -1.3898  0.1901 -0.9823
  112OSM   H13B11561   2.021   0.581  10.973  0.3061 -0.7780  1.1973
  112OSM   H13C11562   1.917   0.446  10.922 -0.1221  0.6157 -0.8880
  112OSM    C1211563   1.952   0.628  10.718  0.3735  0.9192  0.2071
  112OSM   H12A11564   2.047   0.672  10.746  0.2926  0.7346  0.7978
  112OSM   H12B11565   1.920   0.702  10.647 -0.4520  0.9279  0.5706
  112OSM    C1111566   1.968   0.501  10.634  0.1940  0.6944 -0.0603
  112OSM   H11A11567   2.019   0.512  10.536  0.3394  1.8381  0.1309
  112OSM   H11B11568   1.863   0.482  10.601  0.5826  0.2986 -1.1117
  112OSM      P11569   2.155   0.378  10.751 -0.1262  0.5293  0.1399
  112OSM    O1311570   2.203   0.497  10.831  0.2478  0.3434  0.0803
  112OSM    O1411571   2.187   0.249  10.813  0.5608 -0.0034  0.3186
  112OSM    O1111572   2.221   0.369  10.612  0.0453  0.1447 -0.6924
  112OSM    O1211573   2.008   0.383  10.706  0.3484 -0.0787 -1.1359
  112OSM    C1S11574   2.186   0.267  10.519  0.1088  0.7364 -0.1908
  112OSM    H1S11575   2.077   0.243  10.520  0.0240  0.5738 -3.2655
  112OSM    H1T11576   2.238   0.173  10.550  1.0167  0.2267 -2.9234
  112OSM     NF11577   2.184   0.189  10.290 -0.3199  0.4022  0.4365
  112OSM    HNF11578   2.260   0.129  10.264  0.6749  1.8592 -0.1129
  112OSM    C2S11579   2.226   0.301  10.370  0.0761  0.6395 -0.3393
  112OSM    H2S11580   2.173   0.397  10.350 -0.4732 -0.0337 -2.4228
  112OSM    C3S11581   2.381   0.333  10.360  0.3353 -0.0985 -0.9965
  112OSM    H3S11582   2.445   0.244  10.378  1.5517  0.7741 -0.9033
  112OSM     O311583   2.428   0.432  10.452 -0.2834 -0.5541  0.6990
  112OSM    HO311584   2.368   0.428  10.528 -0.0963  0.1081  0.8832
  112OSM    C4S11585   2.413   0.390  10.221  0.4697  0.2690 -0.1128
  112OSM    H4S11586   2.363   0.483  10.192  0.2945  0.1565 -0.1735
  112OSM    C5S11587   2.510   0.330  10.143 -0.5962 -0.5988  0.7835
  112OSM    H5S11588   2.563   0.244  10.187 -2.3673 -1.1390  1.9804
  112OSM    C6S11589   2.561   0.374  10.005  0.1825  0.4886 -0.4866
  112OSM    H6S11590   2.546   0.290   9.933 -0.1570 -2.1037  2.3787
  112OSM    H6T11591   2.672   0.381  10.005  0.1625  1.4959 -2.2971
  112OSM    C7S11592   2.483   0.493   9.949 -0.4902  0.2731  0.1705
  112OSM    H7S11593   2.485   0.583  10.014 -1.4543 -0.1609  0.8328
  112OSM    H7T11594   2.375   0.465   9.945 -0.3202 -2.2212  4.7155
  112OSM    C8S11595   2.554   0.540   9.822 -0.4699  0.6782  0.2215
  112OSM    H8S11596   2.602   0.451   9.777 -2.1338  0.8305 -2.0171
  112OSM    H8T11597   2.636   0.610   9.849 -0.6201  0.4919  1.1950
  112OSM    C9S11598   2.460   0.594   9.717 -0.4332 -0.5029 -0.7179
  112OSM    H9S11599   2.400   0.676   9.761  0.1580  0.2760 -1.3372
  112OSM    H9T11600   2.375   0.526   9.697 -1.8192  1.1904 -0.8023
  112OSM   C10S11601   2.539   0.640   9.595  0.4305  0.2465 -0.5707
  112OSM   H10S11602   2.588   0.546   9.559  0.0293  0.6345 -2.2378
  112OSM   H10T11603   2.622   0.697   9.641  0.7218 -1.2523  0.8414
  112OSM   C11S11604   2.461   0.691   9.480 -0.2152 -0.5577  0.4897
  112OSM   H11S11605   2.394   0.773   9.514  1.0556 -0.0557  1.9067
  112OSM   H11T11606   2.393   0.615   9.435  0.3652 -0.0762 -1.2727
  112OSM   C12S11607   2.557   0.759   9.379 -0.0175 -0.0162  0.6454
  112OSM   H12S11608   2.630   0.833   9.418  0.8708 -1.4746  1.8294
  112OSM   H12T11609   2.495   0.808   9.301  0.3086  0.1228  0.4702
  112OSM   C13S11610   2.643   0.661   9.295 -0.7570  0.4175  0.7853
  112OSM   H13S11611   2.726   0.617   9.354 -1.0409 -1.9135 -0.4363
  112OSM   H13T11612   2.698   0.709   9.211 -0.6520 -2.1551 -0.7314
  112OSM   C14S11613   2.573   0.545   9.241 -0.1891  0.4049 -0.1674
  112OSM   H14S11614   2.483   0.584   9.189  0.0591 -0.6520 -1.4377
  112OSM   H14T11615   2.536   0.485   9.327 -1.8756 -1.1962 -1.9262
  112OSM   C15S11616   2.668   0.476   9.140  0.2820  0.6430 -0.1562
  112OSM   H15S11617   2.761   0.445   9.194 -0.3835 -0.4673  0.3870
  112OSM   H15T11618   2.703   0.554   9.069  0.6918  0.0414 -0.6226
  112OSM   C16S11619   2.602   0.348   9.073  0.0443 -0.1829 -0.6039
  112OSM   H16S11620   2.548   0.281   9.144  2.5576 -1.2588  0.4176
  112OSM   H16T11621   2.683   0.281   9.037  0.9992  1.0234 -0.7634
  112OSM   C17S11622   2.500   0.380   8.960  0.7068 -0.1526  0.5420
  112OSM   H17S11623   2.550   0.442   8.883  0.0562  0.5822  0.6980
  112OSM   H17T11624   2.407   0.433   8.991  1.4959  0.6949  1.5189
  112OSM   C18S11625   2.460   0.254   8.883 -0.0854  0.1104 -0.8208
  112OSM   H18S11626   2.555   0.218   8.839 -1.0233 -1.9956 -1.2128
  112OSM   H18T11627   2.386   0.283   8.805 -1.2359 -0.9035 -0.1219
  112OSM   H18U11628   2.409   0.182   8.950  0.7602  2.4512  2.5838
  112OSM    C1F11629   2.068   0.185  10.227  0.0527 -0.1452 -0.7739
  112OSM     OF11630   1.994   0.287  10.232  0.2080 -0.3996  0.2316
  112OSM    C2F11631   2.023   0.059  10.157  0.0185 -0.5220 -0.2836
  112OSM    H2F11632   1.957   0.002  10.225  0.8727  1.2543  2.2027
  112OSM    H2G11633   2.117   0.005  10.132 -0.8413 -2.4335  0.4686
  112OSM    C3F11634   1.963   0.093  10.024  0.4520 -0.6974  0.7049
  112OSM    H3F11635   2.024   0.157   9.957 -1.3840  0.6707  0.2633
  112OSM    H3G11636   1.869   0.153  10.033 -0.2422 -1.7574  0.6646
  112OSM    C4F11637   1.916  -0.029   9.947  0.0126  0.2336 -0.6527
  112OSM    H4F11638   1.835  -0.079  10.006  0.3709 -0.8736 -1.0767
  112OSM    H4G11639   2.003  -0.097   9.949 -0.5518 -0.5017  0.8968
  112OSM    C5F11640   1.870  -0.009   9.808 -0.3804  0.2149 -0.6137
  112OSM    H5F11641   1.811   0.085   9.799 -0.8847 -0.0354  0.0480
  112OSM    H5G11642   1.794  -0.086   9.786 -4.3972  3.1841  1.5549
  112OSM    C6F11643   1.992  -0.014   9.707 -0.4309 -0.6580 -0.8456
  112OSM    H6F11644   2.068  -0.082   9.751 -0.1559  0.0646 -0.1929
  112OSM    H6G11645   2.040   0.086   9.700  1.0498 -1.3388 -0.7350
  112OSM    C7F11646   1.954  -0.065   9.564 -0.4044 -0.1273 -1.1173
  112OSM    H7F11647   1.858  -0.028   9.521  0.6091  2.1274 -1.5979
  112OSM    H7G11648   1.957  -0.176   9.572 -0.4433 -0.0937 -0.6670
  112OSM    C8F11649   2.056  -0.022   9.468  0.1126  0.2453 -0.5648
  112OSM    H8F11650   2.158  -0.038   9.508 -0.1346  0.7628  0.3044
  112OSM    H8G11651   2.040   0.088   9.465 -0.6537  0.1718  0.2712
  112OSM    C9F11652   2.021  -0.084   9.332  0.7763  0.2875 -0.2381
  112OSM    H9F11653   1.913  -0.101   9.318  0.9951 -0.6196 -0.9400
  112OSM   C10F11654   2.108  -0.118   9.233 -0.5742 -0.0701 -0.3041
  112OSM   H10F11655   2.067  -0.156   9.138 -2.2605  0.5161  0.1497
  112OSM   C11F11656   2.254  -0.110   9.210 -0.6974  0.7655  0.0425
  112OSM   H11F11657   2.310  -0.157   9.293  1.2798 -0.2534 -1.7398
  112OSM   H11G11658   2.276  -0.001   9.200  3.5378  0.1156  0.3464
  112OSM   C12F11659   2.302  -0.172   9.072 -0.1612  0.5946  0.1188
  112OSM   H12F11660   2.236  -0.135   8.991  1.0254 -1.9930 -2.1915
  112OSM   H12G11661   2.290  -0.282   9.082 -3.3395  0.7068 -1.3245
  112OSM   C13F11662   2.450  -0.130   9.045 -0.5048  0.3569  0.7266
  112OSM   H13F11663   2.515  -0.144   9.134  0.5445 -1.1616 -0.2346
  112OSM   H13G11664   2.443  -0.025   9.008 -0.6563 -0.3484 -1.3762
  112OSM   C14F11665   2.514  -0.214   8.936 -0.4037  0.5291  0.1899
  112OSM   H14F11666   2.450  -0.220   8.845 -0.3513 -0.0578  0.1893
  112OSM   H14G11667   2.525  -0.320   8.968 -0.6121  0.5903  0.4743
  112OSM   C15F11668   2.653  -0.158   8.886  0.0581  1.0176 -1.0486
  112OSM   H15F11669   2.725  -0.163   8.972 -2.0670  2.3635  0.9238
  112OSM   H15G11670   2.626  -0.054   8.861 -1.1963  1.5572  2.0159
  112OSM   C16F11671   2.702  -0.250   8.777 -0.8009  0.4276 -0.3716
  112OSM   H16F11672   2.692  -0.351   8.825 -0.5864 -0.0131 -1.2424
  112OSM   H16G11673   2.806  -0.231   8.744 -1.4009  1.9361 -1.4805
  112OSM   C17F11674   2.619  -0.247   8.648  0.5134 -0.1814 -0.1483
  112OSM   H17F11675   2.513  -0.279   8.657  0.0861  1.3753  0.5412
  112OSM   H17G11676   2.652  -0.334   8.587 -1.5812 -1.1707  0.0399
  112OSM   C18F11677   2.637  -0.121   8.562 -0.0310  0.0962 -0.3875
  112OSM   H18F11678   2.573  -0.123   8.471  0.1110  0.2578 -0.4915
  112OSM   H18G11679   2.745  -0.123   8.539 -0.0840  2.0364 -1.0557
  112OSM   H18H11680   2.626  -0.024   8.615  4.6741  0.5821  0.1013
  113OSM      N11681   2.540   0.240  11.026 -0.3269 -0.0114  0.0163
  113OSM    C1511682   2.538   0.393  11.014  0.7296 -0.7356  0.1832
  113OSM   H15A11683   2.443   0.420  10.970  1.4341  1.1420 -0.3026
  113OSM   H15B11684   2.615   0.432  10.948  1.1171 -1.4348  0.2122
  113OSM   H15C11685   2.556   0.433  11.113  1.9246 -0.2795 -0.1962
  113OSM    C1411686   2.681   0.198  11.046 -0.7149  0.2772 -0.5693
  113OSM   H14A11687   2.732   0.204  10.951 -2.9262 -0.7734 -1.9227
  113OSM   H14B11688   2.687   0.095  11.080  2.7108  0.8850  1.1357
  113OSM   H14C11689   2.729   0.262  11.118 -0.2164  2.8913 -3.0473
  113OSM    C1311690   2.452   0.204  11.144 -0.6970  0.0130 -0.7586
  113OSM   H13A11691   2.449   0.096  11.148 -0.3764 -0.0562 -1.9845
  113OSM   H13B11692   2.354   0.248  11.134 -0.8280 -0.0071  0.3104
  113OSM   H13C11693   2.496   0.243  11.235  1.5388 -1.8287 -0.9613
  113OSM    C1211694   2.488   0.175  10.894 -0.3067 -0.2486  0.0271
  113OSM   H12A11695   2.386   0.209  10.880 -0.6984 -0.1540  2.4995
  113OSM   H12B11696   2.489   0.067  10.898 -0.4367 -0.2427  0.3027
  113OSM    C1111697   2.572   0.196  10.766 -0.0849  0.0470  0.2493
  113OSM   H11A11698   2.592   0.302  10.740 -0.1507 -0.3408 -1.4831
  113OSM   H11B11699   2.508   0.160  10.683 -1.5891  1.5820  0.6790
  113OSM      P11700   2.688  -0.039  10.757 -0.2618  0.1310 -0.1684
  113OSM    O1311701   2.798  -0.099  10.834 -0.7165  0.7307  0.7120
  113OSM    O1411702   2.551  -0.086  10.786  0.4657  0.2086  0.3436
  113OSM    O1111703   2.716  -0.051  10.597 -0.0482  0.2808  0.3190
  113OSM    O1211704   2.691   0.119  10.775 -0.0484 -0.1388  0.3168
  113OSM    C1S11705   2.830   0.030  10.548 -0.1805  0.1390 -0.1395
  113OSM    H1S11706   2.929   0.019  10.597  1.1644  1.7665 -2.3031
  113OSM    H1T11707   2.806   0.138  10.549 -1.5831 -0.1239 -1.3704
  113OSM     NF11708   2.991   0.023  10.350  0.1740  0.1468  0.3057
  113OSM    HNF11709   2.999   0.109  10.299 -2.0426  0.2600  0.0589
  113OSM    C2S11710   2.859  -0.017  10.398 -0.1640 -0.0393 -0.4889
  113OSM    H2S11711   2.854  -0.127  10.388  3.8150 -0.3557 -0.6844
  113OSM    C3S11712   2.745   0.039  10.314 -0.0472  0.2032  0.5909
  113OSM    H3S11713   2.739   0.150  10.321  2.9719  0.5297 -0.5686
  113OSM     O311714   2.621   0.000  10.369  0.3982 -0.4697 -0.0168
  113OSM    HO311715   2.643  -0.021  10.460  0.7720 -1.3502 -0.3010
  113OSM    C4S11716   2.742  -0.004  10.173 -0.3402  0.0990 -0.1121
  113OSM    H4S11717   2.682  -0.092  10.146  0.2121 -0.4154  0.3397
  113OSM    C5S11718   2.792   0.068  10.069 -0.5026 -0.1336 -0.7791
  113OSM    H5S11719   2.833   0.169  10.087  0.3599 -0.7362  0.8120
  113OSM    C6S11720   2.802   0.018   9.927 -0.1050 -0.1644 -0.1672
  113OSM    H6S11721   2.906   0.021   9.887  0.0333  1.5939  0.2540
  113OSM    H6T11722   2.752   0.088   9.857  1.9883  0.9702 -0.6005
  113OSM    C7S11723   2.764  -0.128   9.893 -0.4371 -0.4046  0.9898
  113OSM    H7S11724   2.661  -0.156   9.926 -1.1844 -1.6528 -2.0539
  113OSM    H7T11725   2.830  -0.203   9.939  1.3203 -0.9040 -2.0700
  113OSM    C8S11726   2.758  -0.145   9.735 -0.5826 -0.8346 -0.3239
  113OSM    H8S11727   2.849  -0.103   9.687 -1.8480  0.9309 -1.3270
  113OSM    H8T11728   2.665  -0.092   9.705  0.4665  2.1361  1.1389
  113OSM    C9S11729   2.730  -0.291   9.689  0.8544  0.8275  0.3807
  113OSM    H9S11730   2.634  -0.330   9.731  0.4514 -0.1706 -1.3643
  113OSM    H9T11731   2.805  -0.362   9.731  1.7037  1.2345 -0.4235
  113OSM   C10S11732   2.723  -0.307   9.540  0.2188  0.4983 -0.4904
  113OSM   H10S11733   2.806  -0.262   9.481  0.4476 -0.7027 -1.1338
  113OSM   H10T11734   2.636  -0.249   9.503  0.7086  0.9536 -0.9573
  113OSM   C11S11735   2.690  -0.450   9.494  0.0391  0.3721 -0.6800
  113OSM   H11S11736   2.606  -0.493   9.552  1.5098 -0.4391  0.9268
  113OSM   H11T11737   2.774  -0.519   9.518 -1.0728 -1.4320 -1.7384
  113OSM   C12S11738   2.675  -0.455   9.340  0.0991  0.1692 -0.3654
  113OSM   H12S11739   2.623  -0.369   9.294 -0.5870  0.5459  1.0583
  113OSM   H12T11740   2.610  -0.541   9.311 -1.4322  1.4626 -0.8821
  113OSM   C13S11741   2.809  -0.478   9.269  0.3303  0.0674  0.6971
  113OSM   H13S11742   2.864  -0.562   9.316 -0.4392 -1.6234 -1.2983
  113OSM   H13T11743   2.863  -0.389   9.306 -0.9530  0.3174  2.1046
  113OSM   C14S11744   2.808  -0.488   9.117  0.5463 -0.7950  0.8466
  113OSM   H14S11745   2.773  -0.387   9.087  0.5589 -0.1337  2.8835
  113OSM   H14T11746   2.737  -0.564   9.077  0.4122 -0.5923  0.6970
  113OSM   C15S11747   2.950  -0.516   9.062  0.1590  0.4472 -0.1580
  113OSM   H15S11748   3.001  -0.574   9.141 -0.7729 -0.7844 -0.4363
  113OSM   H15T11749   2.996  -0.415   9.062 -0.6232  0.8237 -1.2179
  113OSM   C16S11750   2.956  -0.572   8.921  0.0788  0.1529 -0.5081
  113OSM   H16S11751   2.922  -0.497   8.847 -1.2774  0.8390  0.7489
  113OSM   H16T11752   2.882  -0.656   8.916  1.8077 -1.5043  0.4187
  113OSM   C17S11753   3.093  -0.625   8.891 -0.0724  0.3316 -0.8253
  113OSM   H17S11754   3.144  -0.683   8.971 -1.4776 -0.1524 -0.2655
  113OSM   H17T11755   3.157  -0.537   8.868  0.1802  0.3882  0.0794
  113OSM   C18S11756   3.090  -0.705   8.764  0.4095  0.2060 -0.3575
  113OSM   H18S11757   3.034  -0.645   8.688  1.5019  0.7140 -0.7833
  113OSM   H18T11758   3.032  -0.797   8.787  1.7498 -0.9294 -1.3402
  113OSM   H18U11759   3.186  -0.747   8.727  1.3411 -0.6814  2.8072
  113OSM    C1F11760   3.098  -0.046  10.386 -0.4164 -0.0691 -0.2812
  113OSM     OF11761   3.092  -0.135  10.474 -0.0567 -0.1579  0.1677
  113OSM    C2F11762   3.226  -0.019  10.311  0.2175 -0.0239  0.1045
  113OSM    H2F11763   3.318  -0.026  10.373  0.3806  0.1647 -0.1161
  113OSM    H2G11764   3.216   0.087  10.281  1.8266 -0.2858 -1.5818
  113OSM    C3F11765   3.255  -0.114  10.186 -0.3907 -0.2146  0.3035
  113OSM    H3F11766   3.240  -0.219  10.216  0.2625 -0.2508  0.5199
  113OSM    H3G11767   3.364  -0.115  10.161 -0.3527 -0.6765  0.4777
  113OSM    C4F11768   3.173  -0.088  10.059 -0.1984  0.3029  0.1345
  113OSM    H4F11769   3.068  -0.118  10.081 -0.8364  1.5863 -1.0057
  113OSM    H4G11770   3.208  -0.147   9.971  1.1964  2.6784 -1.0021
  113OSM    C5F11771   3.168   0.056  10.003  0.1494 -0.5170 -0.6505
  113OSM    H5F11772   3.118   0.115  10.082 -3.3447  1.1857 -3.8135
  113OSM    H5G11773   3.104   0.073   9.914 -1.8332 -0.1681  0.7657
  113OSM    C6F11774   3.310   0.119   9.986  0.6721  0.1707  0.6042
  113OSM    H6F11775   3.353   0.125  10.088 -0.9095  0.4707  1.2821
  113OSM    H6G11776   3.288   0.223   9.952  2.1091  0.1181 -0.5946
  113OSM    C7F11777   3.403   0.041   9.891  0.0624  0.0470 -0.1750
  113OSM    H7F11778   3.438  -0.052   9.941  0.1613  0.8344  1.2488
  113OSM    H7G11779   3.495   0.101   9.874 -0.1182  1.4131  3.0006
  113OSM    C8F11780   3.350  -0.012   9.758 -0.0055  0.7432  0.2445
  113OSM    H8F11781   3.289   0.078   9.732  1.1906  1.1384 -1.3332
  113OSM    H8G11782   3.279  -0.096   9.776  1.8085 -0.9896 -0.3731
  113OSM    C9F11783   3.452  -0.047   9.651  0.2782  0.3837 -0.5274
  113OSM    H9F11784   3.551  -0.078   9.686  0.0195  0.9890  0.7701
  113OSM   C10F11785   3.431  -0.034   9.521 -0.1791  0.2810 -0.1774
  113OSM   H10F11786   3.512  -0.060   9.450 -0.2963  0.8333 -0.5152
  113OSM   C11F11787   3.309   0.008   9.445  0.9618 -0.5713 -0.2836
  113OSM   H11F11788   3.316   0.115   9.416  1.8633 -0.2851  0.8772
  113OSM   H11G11789   3.219  -0.011   9.506  0.6848  0.4282 -0.3723
  113OSM   C12F11790   3.278  -0.073   9.323 -0.1297  0.2853  0.6393
  113OSM   H12F11791   3.300  -0.181   9.336 -0.8762 -0.0093 -0.4031
  113OSM   H12G11792   3.347  -0.036   9.244 -1.4957  0.4706 -0.5016
  113OSM   C13F11793   3.138  -0.080   9.267  0.1539  0.0712 -0.0130
  113OSM   H13F11794   3.119   0.028   9.250 -3.5435 -0.3523  0.7979
  113OSM   H13G11795   3.065  -0.114   9.342 -0.4516  0.4933 -0.4079
  113OSM   C14F11796   3.125  -0.159   9.132 -0.0514  0.3501 -0.5337
  113OSM   H14F11797   3.025  -0.123   9.099 -0.9384 -2.1386 -0.7515
  113OSM   H14G11798   3.117  -0.269   9.146  0.4527  0.1274 -1.8509
  113OSM   C15F11799   3.224  -0.114   9.025 -0.2535  0.2643  0.6309
  113OSM   H15F11800   3.321  -0.127   9.078 -0.1106  1.7779  0.7880
  113OSM   H15G11801   3.220  -0.006   8.998  1.5091  0.0395 -0.7714
  113OSM   C16F11802   3.238  -0.203   8.898  0.1908 -0.3100 -0.1743
  113OSM   H16F11803   3.266  -0.306   8.929 -2.5094 -0.2167  3.1279
  113OSM   H16G11804   3.315  -0.172   8.825 -0.2820 -2.6886 -1.8043
  113OSM   C17F11805   3.109  -0.221   8.823 -1.2168 -0.3270 -0.1169
  113OSM   H17F11806   3.060  -0.122   8.808  0.7571  0.4667 -1.9264
  113OSM   H17G11807   3.039  -0.284   8.881 -1.2564 -0.2711 -0.1038
  113OSM   C18F11808   3.132  -0.279   8.687  0.2170  1.3380  0.3769
  113OSM   H18F11809   3.232  -0.250   8.646  1.4058 -2.9440 -0.2734
  113OSM   H18G11810   3.053  -0.256   8.612 -1.1837 -2.7420  0.3336
  113OSM   H18H11811   3.135  -0.390   8.696 -0.9270  1.2494 -0.1264
  114OSM      N11812   3.928   5.705  11.497 -0.2636 -0.4908  0.4195
  114OSM    C1511813   3.790   5.665  11.463  0.5659  0.2707 -0.5363
  114OSM   H15A11814   3.742   5.740  11.403 -0.7481 -0.5044 -0.4823
  114OSM   H15B11815   3.731   5.656  11.553 -0.4092  1.2812 -1.0584
  114OSM   H15C11816   3.784   5.566  11.419  0.9174 -0.0905  0.2087
  114OSM    C1411817   4.003   5.733  11.364  0.3284  0.2800 -0.3086
  114OSM   H14A11818   3.941   5.802  11.309 -0.2017  0.9998  1.1620
  114OSM   H14B11819   4.016   5.641  11.308 -1.1068 -0.9300  1.2502
  114OSM   H14C11820   4.096   5.784  11.385  0.7852 -0.8058  0.4164
  114OSM    C1311821   3.931   5.837  11.570 -0.4242 -0.3054 -0.0595
  114OSM   H13A11822   3.897   5.844  11.672  2.0789  0.2731  0.7916
  114OSM   H13B11823   3.862   5.902  11.517  0.8254  0.5814 -0.6560
  114OSM   H13C11824   4.026   5.887  11.567 -1.7640  2.4259 -0.3540
  114OSM    C1211825   3.993   5.595  11.576  0.0364 -0.4679 -0.5140
  114OSM   H12A11826   3.935   5.573  11.664  1.3127  0.5294  0.6095
  114OSM   H12B11827   4.094   5.619  11.605  0.6067 -2.0032 -1.1170
  114OSM    C1111828   4.017   5.460  11.505 -0.2987 -0.2759  0.3036
  114OSM   H11A11829   4.077   5.402  11.578 -0.3742 -0.7950 -0.0435
  114OSM   H11B11830   4.080   5.475  11.415 -2.3292 -1.5601 -1.4176
  114OSM      P11831   3.886   5.251  11.407  0.2906  0.1159  0.3717
  114OSM    O1311832   3.990   5.152  11.447 -0.2841  0.0361  0.0764
  114OSM    O1411833   3.742   5.212  11.410  0.1078 -0.0281 -0.3668
  114OSM    O1111834   3.929   5.299  11.259  0.1182 -0.5463  0.2549
  114OSM    O1211835   3.898   5.387  11.487 -0.1011  0.2214 -0.7822
  114OSM    C1S11836   3.849   5.405  11.200 -0.1656 -0.3788  0.0007
  114OSM    H1S11837   3.890   5.503  11.230 -2.4982  0.8505 -0.5984
  114OSM    H1T11838   3.740   5.404  11.224 -0.8847 -0.5807 -2.8506
  114OSM     NF11839   3.741   5.492  10.991  0.0651  0.2180  0.5171
  114OSM    HNF11840   3.649   5.459  10.975  0.4052 -0.0853 -0.9981
  114OSM    C2S11841   3.843   5.399  11.043  0.8147  0.5382  0.2434
  114OSM    H2S11842   3.941   5.433  11.004  0.9752  2.0259  1.8242
  114OSM    C3S11843   3.828   5.247  10.989 -0.0102  0.9134 -0.1504
  114OSM    H3S11844   3.746   5.187  11.035  1.7296 -0.3199  1.4921
  114OSM     O311845   3.946   5.172  11.014  0.3661  0.0598 -0.0024
  114OSM    HO311846   3.995   5.208  11.088 -0.4826  0.7877  0.2166
  114OSM    C4S11847   3.811   5.242  10.842 -0.2267 -0.1935 -0.9806
  114OSM    H4S11848   3.897   5.288  10.791  1.0268 -0.9785  0.3223
  114OSM    C5S11849   3.707   5.211  10.772  0.3185  0.0982 -0.0232
  114OSM    H5S11850   3.609   5.192  10.818  1.0802  1.3030  2.2857
  114OSM    C6S11851   3.704   5.227  10.619  0.1008  0.0167  0.1571
  114OSM    H6S11852   3.624   5.164  10.574 -0.1610  1.4032 -1.4076
  114OSM    H6T11853   3.802   5.194  10.579 -0.2607 -0.7397 -0.1426
  114OSM    C7S11854   3.681   5.376  10.579 -0.3837 -0.9603 -0.4194
  114OSM    H7S11855   3.771   5.439  10.597 -1.4288 -0.4201  4.0770
  114OSM    H7T11856   3.603   5.418  10.646  0.9559  1.0566 -0.0380
  114OSM    C8S11857   3.636   5.380  10.435  0.9217  0.5875  0.3713
  114OSM    H8S11858   3.608   5.487  10.420  1.4101  0.8157  1.0391
  114OSM    H8T11859   3.550   5.312  10.418  2.5545 -1.3055 -0.8082
  114OSM    C9S11860   3.750   5.357  10.332  1.1060  0.7574 -0.0858
  114OSM    H9S11861   3.785   5.254  10.352 -1.1234  0.0092  0.2101
  114OSM    H9T11862   3.836   5.421  10.361 -0.3692  2.4726  0.7038
  114OSM   C10S11863   3.702   5.358  10.190  0.2666  0.4072  0.0721
  114OSM   H10S11864   3.647   5.453  10.175 -0.9065  0.2124  2.5876
  114OSM   H10T11865   3.638   5.270  10.168 -0.2910  0.4645  1.3962
  114OSM   C11S11866   3.823   5.342  10.096  0.2401 -0.7061 -0.0878
  114OSM   H11S11867   3.860   5.238  10.106 -3.1965 -2.1129 -0.3160
  114OSM   H11T11868   3.898   5.419  10.122 -1.2839  0.7675  0.1370
  114OSM   C12S11869   3.777   5.357   9.948 -0.3548  0.0609  0.0984
  114OSM   H12S11870   3.742   5.460   9.928  1.4717  0.9496  1.1666
  114OSM   H12T11871   3.685   5.298   9.929  0.7201 -0.9271 -2.6973
  114OSM   C13S11872   3.872   5.307   9.847 -0.2835  0.4963  0.1214
  114OSM   H13S11873   3.898   5.202   9.873  1.8015  1.0867  0.6328
  114OSM   H13T11874   3.973   5.352   9.852  0.8636 -1.9245  0.5295
  114OSM   C14S11875   3.816   5.328   9.712  0.1063 -0.5393  0.3743
  114OSM   H14S11876   3.837   5.435   9.692  0.1344 -0.4916  0.6559
  114OSM   H14T11877   3.706   5.312   9.709  0.2272 -1.4870  0.5233
  114OSM   C15S11878   3.892   5.246   9.606 -0.5100  0.0282 -0.3472
  114OSM   H15S11879   3.830   5.160   9.573 -6.1241  3.8212 -1.0864
  114OSM   H15T11880   3.987   5.211   9.652 -0.4412  0.9645  0.2492
  114OSM   C16S11881   3.922   5.323   9.483 -0.4552 -0.7512  0.3604
  114OSM   H16S11882   3.994   5.407   9.499 -0.1348 -0.8072 -0.7108
  114OSM   H16T11883   3.830   5.365   9.438  0.3411  1.6384  0.8206
  114OSM   C17S11884   4.000   5.247   9.375  0.0862  0.3091 -0.8320
  114OSM   H17S11885   3.937   5.168   9.330 -0.4936  0.9704 -1.2054
  114OSM   H17T11886   4.080   5.186   9.423  0.2167 -0.2886 -1.7862
  114OSM   C18S11887   4.060   5.337   9.266 -0.0493 -0.2208  1.0317
  114OSM   H18S11888   3.980   5.407   9.235  1.7234  1.5520  0.2184
  114OSM   H18T11889   4.082   5.284   9.171  1.1472  0.7620  0.7359
  114OSM   H18U11890   4.146   5.387   9.315  0.5264 -0.7666  0.5921
  114OSM    C1F11891   3.760   5.622  11.004 -0.7407  0.2764 -0.6262
  114OSM     OF11892   3.859   5.670  11.055 -0.2578 -0.0539 -0.1799
  114OSM    C2F11893   3.648   5.711  10.976  0.9364 -0.3204  0.4920
  114OSM    H2F11894   3.668   5.807  11.027  0.3473  0.1042 -0.0648
  114OSM    H2G11895   3.558   5.667  11.023 -0.4927 -1.1436 -2.7151
  114OSM    C3F11896   3.631   5.720  10.817 -0.4136  0.1222  0.4324
  114OSM    H3F11897   3.538   5.779  10.797 -0.4760 -0.4833 -1.1677
  114OSM    H3G11898   3.599   5.619  10.783  0.6877 -0.2141  0.3797
  114OSM    C4F11899   3.750   5.774  10.737  0.0442 -0.9219  0.0450
  114OSM    H4F11900   3.834   5.712  10.773 -0.3496 -0.7727  1.2873
  114OSM    H4G11901   3.771   5.879  10.768  0.6827 -1.6012  2.0702
  114OSM    C5F11902   3.730   5.766  10.588  0.5961  1.1694  0.4103
  114OSM    H5F11903   3.622   5.778  10.566  0.1788 -1.1718  0.8374
  114OSM    H5G11904   3.753   5.662  10.554 -0.0357  1.6267 -1.5647
  114OSM    C6F11905   3.802   5.870  10.502  0.3118  0.6960 -0.0599
  114OSM    H6F11906   3.767   5.971  10.533 -2.6386 -0.3661  0.3477
  114OSM    H6G11907   3.770   5.854  10.397 -2.0802 -0.4964  0.7723
  114OSM    C7F11908   3.955   5.869  10.499 -0.2397 -0.7245 -0.0445
  114OSM    H7F11909   4.004   5.879  10.598 -0.6653 -1.6423  0.2641
  114OSM    H7G11910   3.985   5.953  10.433  1.2268 -1.5888 -0.5048
  114OSM    C8F11911   3.998   5.742  10.428  0.7497  0.0387 -0.3269
  114OSM    H8F11912   3.943   5.724  10.334 -1.7237  0.8770  0.8692
  114OSM    H8G11913   3.972   5.654  10.491  1.6799 -0.9714 -1.3080
  114OSM    C9F11914   4.150   5.742  10.406  0.0688 -0.6433  0.1337
  114OSM    H9F11915   4.204   5.801  10.482  1.7713  0.8766 -2.0989
  114OSM   C10F11916   4.208   5.704  10.289  0.0631  0.3250  1.5135
  114OSM   H10F11917   4.317   5.716  10.283  0.1873 -1.0073  0.5758
  114OSM   C11F11918   4.144   5.633  10.165 -0.4815  0.5597  0.9020
  114OSM   H11F11919   4.034   5.648  10.154 -0.3275  1.6637  0.8054
  114OSM   H11G11920   4.161   5.528  10.197 -0.0269 -0.1013 -1.3328
  114OSM   C12F11921   4.198   5.681  10.025 -0.1771  0.1282  0.7266
  114OSM   H12F11922   4.304   5.650  10.022 -0.7472 -2.1082  1.8887
  114OSM   H12G11923   4.168   5.788  10.014  0.3169  0.1689 -0.4039
  114OSM   C13F11924   4.144   5.593   9.917 -0.2840  0.1526 -0.3066
  114OSM   H13F11925   4.034   5.576   9.922 -0.6660  2.2925 -0.4979
  114OSM   H13G11926   4.197   5.497   9.930  1.5142  1.2428  0.7264
  114OSM   C14F11927   4.171   5.649   9.779 -0.1258 -0.1890  0.4438
  114OSM   H14F11928   4.280   5.665   9.771 -0.0470 -1.5610 -2.6061
  114OSM   H14G11929   4.113   5.744   9.776  0.0419 -0.1208 -0.8953
  114OSM   C15F11930   4.116   5.569   9.658 -0.3960 -0.3031 -1.0155
  114OSM   H15F11931   4.006   5.580   9.670 -0.3931 -1.0455 -0.2694
  114OSM   H15G11932   4.162   5.468   9.661 -0.0344 -0.1697 -1.9503
  114OSM   C16F11933   4.145   5.634   9.522  0.3263  0.3550 -0.3380
  114OSM   H16F11934   4.091   5.582   9.440 -0.3579 -0.0913  0.3847
  114OSM   H16G11935   4.254   5.626   9.505  0.1690 -0.5853 -0.9763
  114OSM   C17F11936   4.093   5.785   9.512 -0.1876 -0.2379 -0.2530
  114OSM   H17F11937   4.167   5.837   9.577 -0.3146 -0.6430  0.2244
  114OSM   H17G11938   3.996   5.811   9.558  0.6392  2.3221  0.1971
  114OSM   C18F11939   4.112   5.845   9.366  0.2726  0.2750 -0.5578
  114OSM   H18F11940   4.089   5.954   9.366 -2.6427 -0.2348  0.7224
  114OSM   H18G11941   4.032   5.803   9.301  1.8878  0.0113 -2.4612
  114OSM   H18H11942   4.212   5.810   9.333  0.0244 -0.9276 -0.1025
  115OSM      N11943   3.382   1.871   5.949 -0.3037  0.2750  0.1978
  115OSM    C1511944   3.303   1.943   5.848  0.9449 -0.0211  0.3127
  115OSM   H15A11945   3.203   1.903   5.860  0.8284 -0.2504 -1.1727
  115OSM   H15B11946   3.338   1.913   5.751 -0.3930  0.7954 -0.4608
  115OSM   H15C11947   3.310   2.051   5.838  2.0678 -0.2255 -1.4082
  115OSM    C1411948   3.386   1.726   5.930  0.0676 -0.4756 -0.5206
  115OSM   H14A11949   3.289   1.683   5.948 -0.2129  1.0268  2.1923
  115OSM   H14B11950   3.436   1.682   6.015  0.0546 -0.8447 -0.7014
  115OSM   H14C11951   3.440   1.702   5.840  1.3510 -0.6379  0.2637
  115OSM    C1311952   3.518   1.920   5.933  0.7019 -0.1797  0.0826
  115OSM   H13A11953   3.512   2.028   5.928 -1.1596 -0.2857 -0.7658
  115OSM   H13B11954   3.551   1.898   5.833 -0.2457 -0.5152 -0.1714
  115OSM   H13C11955   3.581   1.892   6.016  0.8199  1.2441  0.5027
  115OSM    C1211956   3.320   1.901   6.086 -0.5733 -0.1858 -0.3384
  115OSM   H12A11957   3.227   1.847   6.080 -0.2239 -0.6703 -3.9448
  115OSM   H12B11958   3.294   2.006   6.095  0.6569  0.0325  0.8415
  115OSM    C1111959   3.393   1.864   6.219  0.0597 -0.0596 -0.0752
  115OSM   H11A11960   3.405   1.755   6.200  1.9042  0.2307 -0.8603
  115OSM   H11B11961   3.331   1.884   6.308 -1.3367  1.4870 -1.3249
  115OSM      P11962   3.507   2.092   6.244 -0.0535  0.3525  0.2214
  115OSM    O1311963   3.616   2.145   6.157  0.3320  0.2486 -0.3368
  115OSM    O1411964   3.367   2.146   6.220 -0.1417 -0.1835  0.4509
  115OSM    O1111965   3.559   2.125   6.396  0.1228  0.0917 -0.3550
  115OSM    O1211966   3.514   1.925   6.237  0.2929 -0.2574  0.1002
  115OSM    C1S11967   3.514   2.035   6.503  0.4343 -0.5777  0.4920
  115OSM    H1S11968   3.546   1.930   6.485  0.7233 -0.0390 -2.8040
  115OSM    H1T11969   3.404   2.032   6.518  0.3203 -2.0827 -0.4126
  115OSM     NF11970   3.540   1.972   6.728  0.5739  0.0991 -0.2014
  115OSM    HNF11971   3.460   1.992   6.783  0.6284 -0.6358  0.1581
  115OSM    C2S11972   3.577   2.073   6.634  0.1198 -0.4244 -0.5861
  115OSM    H2S11973   3.688   2.070   6.633  0.1901 -0.3081  1.6003
  115OSM    C3S11974   3.532   2.223   6.680 -0.0427  0.5294  0.5673
  115OSM    H3S11975   3.422   2.236   6.682 -0.1077 -0.0147  0.7846
  115OSM     O311976   3.579   2.330   6.596 -0.5187  0.3331  0.2184
  115OSM    HO311977   3.604   2.290   6.512 -0.9324  1.4256 -0.4505
  115OSM    C4S11978   3.598   2.250   6.817  0.3150 -0.4915  0.2800
  115OSM    H4S11979   3.705   2.222   6.824  1.1415  1.2840 -3.0433
  115OSM    C5S11980   3.535   2.276   6.935 -0.4140 -0.5220  0.5521
  115OSM    H5S11981   3.425   2.272   6.933 -0.4485  0.0523 -1.8922
  115OSM    C6S11982   3.592   2.286   7.071  0.3841  0.4259 -0.6798
  115OSM    H6S11983   3.586   2.392   7.104  1.6139  0.4638 -0.5379
  115OSM    H6T11984   3.698   2.252   7.072 -0.0410 -1.0436  1.0564
  115OSM    C7S11985   3.504   2.206   7.175 -0.5453 -0.0125  0.0240
  115OSM    H7S11986   3.405   2.255   7.182 -0.0787  0.8097  1.1493
  115OSM    H7T11987   3.553   2.219   7.274 -2.6945  1.5110  0.9732
  115OSM    C8S11988   3.491   2.050   7.153 -0.4569  0.7309  0.3135
  115OSM    H8S11989   3.593   2.008   7.165 -1.0629 -0.4223  1.7753
  115OSM    H8T11990   3.455   2.025   7.051 -2.7018  1.2107  0.9421
  115OSM    C9S11991   3.408   1.973   7.252  0.1661 -0.3096 -0.0181
  115OSM    H9S11992   3.301   2.002   7.242  0.5837  1.3721  0.1631
  115OSM    H9T11993   3.432   1.981   7.361  2.5031 -2.7038 -0.2545
  115OSM   C10S11994   3.410   1.820   7.223  0.2441 -0.4340 -0.2275
  115OSM   H10S11995   3.517   1.795   7.236  0.3523  0.0014 -0.2802
  115OSM   H10T11996   3.361   1.814   7.124 -1.6920  1.5012  0.5351
  115OSM   C11S11997   3.319   1.736   7.318 -0.0760  0.5222 -0.0543
  115OSM   H11S11998   3.218   1.782   7.306  0.7827  2.6074  0.3786
  115OSM   H11T11999   3.357   1.752   7.421 -1.6265  0.6199  0.5255
  115OSM   C12S12000   3.312   1.583   7.273  0.3751 -0.2093  0.0045
  115OSM   H12S12001   3.412   1.535   7.276  0.4366 -0.0469  0.6034
  115OSM   H12T12002   3.275   1.578   7.168  2.5489  0.5828 -0.8687
  115OSM   C13S12003   3.205   1.501   7.354  0.5748  0.6558  0.5609
  115OSM   H13S12004   3.208   1.545   7.456  0.8501  0.7721  0.5043
  115OSM   H13T12005   3.235   1.394   7.352 -1.9579 -0.1104  0.5088
  115OSM   C14S12006   3.063   1.525   7.297  0.5891 -0.2440 -0.2044
  115OSM   H14S12007   3.044   1.519   7.188 -0.6883 -0.6535  0.0284
  115OSM   H14T12008   3.035   1.628   7.328 -1.7753 -0.9818  0.3163
  115OSM   C15S12009   2.955   1.430   7.354 -0.2158 -0.4486 -0.7723
  115OSM   H15S12010   2.856   1.476   7.332  0.4833  0.8424 -1.3057
  115OSM   H15T12011   2.980   1.398   7.457  2.0810  1.3742 -0.7046
  115OSM   C16S12012   2.958   1.293   7.277 -0.5349 -0.0001  1.0530
  115OSM   H16S12013   3.065   1.267   7.293  0.7663  3.3435 -0.9915
  115OSM   H16T12014   2.961   1.312   7.167  1.3617 -2.6326  0.5714
  115OSM   C17S12015   2.863   1.182   7.319  0.9239 -0.4857  0.0763
  115OSM   H17S12016   2.907   1.087   7.282  0.0970 -0.0460 -2.1743
  115OSM   H17T12017   2.768   1.201   7.265  0.4273 -1.7627  0.4607
  115OSM   C18S12018   2.830   1.153   7.465  0.4710 -0.1174 -0.5272
  115OSM   H18S12019   2.903   1.091   7.521  0.0560  0.9820  1.3516
  115OSM   H18T12020   2.741   1.088   7.469  0.4845 -0.1338 -0.4912
  115OSM   H18U12021   2.831   1.240   7.535  1.5058  0.4942 -1.2782
  115OSM    C1F12022   3.605   1.854   6.734 -0.1686  0.2075 -0.8032
  115OSM     OF12023   3.709   1.839   6.677 -0.0927 -0.3125 -0.1931
  115OSM    C2F12024   3.551   1.753   6.828 -0.4506  0.2068 -0.2707
  115OSM    H2F12025   3.490   1.668   6.789  1.6457 -1.5969  0.1889
  115OSM    H2G12026   3.501   1.809   6.910  3.1398  0.7565  1.7591
  115OSM    C3F12027   3.672   1.683   6.900  0.2504 -0.3905  0.8319
  115OSM    H3F12028   3.742   1.762   6.935  0.0551  0.7832 -1.2601
  115OSM    H3G12029   3.725   1.617   6.827  0.1441 -0.5571  0.9053
  115OSM    C4F12030   3.637   1.594   7.021 -0.5690 -0.5760 -0.7437
  115OSM    H4F12031   3.596   1.493   6.998 -1.1952 -0.8433  1.3022
  115OSM    H4G12032   3.551   1.650   7.065  0.3871  0.9126 -0.7114
  115OSM    C5F12033   3.744   1.595   7.139 -0.1008  0.2193 -0.3068
  115OSM    H5F12034   3.778   1.700   7.154 -1.2489  0.6482 -0.5701
  115OSM    H5G12035   3.836   1.540   7.111 -0.5024 -0.8010  0.3443
  115OSM    C6F12036   3.681   1.536   7.269 -0.2845 -0.3450 -0.0482
  115OSM    H6F12037   3.628   1.444   7.235 -1.2833  0.1517  0.1380
  115OSM    H6G12038   3.626   1.616   7.324 -0.5633 -0.7595  0.2840
  115OSM    C7F12039   3.785   1.485   7.374 -0.0986 -0.6492 -0.2112
  115OSM    H7F12040   3.838   1.574   7.415 -2.3689  0.8696 -0.3735
  115OSM    H7G12041   3.847   1.420   7.309  1.8580  1.3851 -0.5205
  115OSM    C8F12042   3.722   1.404   7.492  0.4149  0.0306 -0.1907
  115OSM    H8F12043   3.684   1.310   7.446  3.7072 -2.2490  1.3397
  115OSM    H8G12044   3.630   1.453   7.529 -1.7293 -2.7373 -1.4873
  115OSM    C9F12045   3.810   1.356   7.601  0.5143  0.1841  0.7182
  115OSM    H9F12046   3.851   1.254   7.588 -0.0770 -0.0314  0.4690
  115OSM   C10F12047   3.855   1.433   7.698 -0.2116 -0.0819 -0.0091
  115OSM   H10F12048   3.890   1.376   7.785 -0.4928 -0.3692 -0.0828
  115OSM   C11F12049   3.839   1.582   7.728  0.6482  0.5770  0.1866
  115OSM   H11F12050   3.768   1.618   7.651 -0.3708 -1.7315 -0.0341
  115OSM   H11G12051   3.939   1.628   7.714  0.4987  0.1895 -2.8229
  115OSM   C12F12052   3.762   1.622   7.859  0.2264  0.0873 -0.5643
  115OSM   H12F12053   3.667   1.563   7.863 -1.1208  2.1159 -0.8893
  115OSM   H12G12054   3.728   1.727   7.856 -2.0763 -0.5802  0.0583
  115OSM   C13F12055   3.845   1.602   7.991 -0.0796 -0.2335  0.3692
  115OSM   H13F12056   3.947   1.643   7.974  0.2990  0.3873  3.5663
  115OSM   H13G12057   3.848   1.492   8.008 -1.2147 -0.6919 -2.0284
  115OSM   C14F12058   3.772   1.680   8.105  0.5613 -0.0908 -0.1240
  115OSM   H14F12059   3.759   1.789   8.090  1.0117 -0.1115 -0.7207
  115OSM   H14G12060   3.826   1.661   8.200 -1.9545  0.9841  1.6212
  115OSM   C15F12061   3.637   1.624   8.153  0.5354 -0.0384 -0.1590
  115OSM   H15F12062   3.649   1.513   8.158 -1.1737 -0.2756 -0.8639
  115OSM   H15G12063   3.547   1.646   8.092  0.2237 -1.0391 -0.0855
  115OSM   C16F12064   3.603   1.665   8.296  0.8392  0.3089  0.8025
  115OSM   H16F12065   3.691   1.655   8.363  0.2709  2.2224  1.9064
  115OSM   H16G12066   3.528   1.590   8.330  0.4517 -0.4867 -1.6265
  115OSM   C17F12067   3.539   1.807   8.304  0.2413 -0.4327  0.1058
  115OSM   H17F12068   3.593   1.876   8.236  0.7572 -1.0110 -0.0869
  115OSM   H17G12069   3.540   1.851   8.406 -1.6174 -1.0316  0.4184
  115OSM   C18F12070   3.386   1.797   8.284 -0.0171 -0.0766  0.0152
  115OSM   H18F12071   3.327   1.891   8.287 -0.8629 -0.6127  1.2372
  115OSM   H18G12072   3.345   1.724   8.358  1.3957 -0.8316  0.0879
  115OSM   H18H12073   3.375   1.766   8.178 -0.2794 -2.0624  0.5714
  116OSM      N12074   4.001   6.730   6.280 -0.1666 -0.0010 -0.8351
  116OSM    C1512075   4.086   6.609   6.252 -0.1760 -0.1442  0.1080
  116OSM   H15A12076   4.135   6.620   6.157 -3.5943 -0.0006 -1.7854
  116OSM   H15B12077   4.030   6.518   6.263 -0.7311  0.2182  0.3102
  116OSM   H15C12078   4.165   6.621   6.326 -1.9593  1.0763  1.9218
  116OSM    C1412079   3.963   6.713   6.421  0.6414  0.9138 -0.0902
  116OSM   H14A12080   4.056   6.704   6.476 -0.0998 -1.2109  0.9469
  116OSM   H14B12081   3.911   6.619   6.433 -1.2551  1.8963 -0.3085
  116OSM   H14C12082   3.909   6.795   6.465  0.1655  0.8667 -0.5790
  116OSM    C1312083   4.087   6.847   6.276 -0.2975 -0.2914 -0.0574
  116OSM   H13A12084   4.024   6.934   6.271 -1.8894 -1.4758 -2.2532
  116OSM   H13B12085   4.144   6.860   6.186 -2.1730 -0.3880 -1.3248
  116OSM   H13C12086   4.151   6.858   6.363  0.4416 -0.9482 -0.5082
  116OSM    C1212087   3.881   6.748   6.184 -1.0291  0.3988 -0.9242
  116OSM   H12A12088   3.918   6.750   6.083 -0.8744  1.6804 -0.8517
  116OSM   H12B12089   3.832   6.842   6.200 -1.7640  0.2005 -1.9326
  116OSM    C1112090   3.766   6.648   6.194  0.2880  0.3548  0.3420
  116OSM   H11A12091   3.812   6.548   6.179 -1.2459 -0.2111 -0.9236
  116OSM   H11B12092   3.702   6.668   6.105 -0.3134 -0.5329  0.5536
  116OSM      P12093   3.589   6.763   6.343 -0.0556 -0.0222  0.0087
  116OSM    O1312094   3.666   6.884   6.307  0.3264  0.1504 -0.1901
  116OSM    O1412095   3.468   6.731   6.255  0.4384 -0.0307 -0.0549
  116OSM    O1112096   3.553   6.762   6.492  0.1390  0.4967 -0.2940
  116OSM    O1212097   3.690   6.645   6.317  0.4079  0.8633  0.3145
  116OSM    C1S12098   3.632   6.688   6.585 -0.1056 -0.1634 -0.0434
  116OSM    H1S12099   3.728   6.742   6.603 -0.3384  0.4644 -0.6681
  116OSM    H1T12100   3.659   6.586   6.550 -2.2237 -0.9479  0.4592
  116OSM     NF12101   3.663   6.658   6.821  0.3809  0.2407  0.3548
  116OSM    HNF12102   3.669   6.566   6.860  1.8782 -0.6602 -1.7851
  116OSM    C2S12103   3.556   6.672   6.715 -0.5405  0.0003 -0.4255
  116OSM    H2S12104   3.516   6.774   6.737  0.9251  0.9362 -1.8526
  116OSM    C3S12105   3.437   6.571   6.715  0.0963 -0.0358  0.2512
  116OSM    H3S12106   3.484   6.470   6.707 -0.4471 -0.3707  1.1004
  116OSM     O312107   3.346   6.587   6.606 -0.1818 -0.1052  0.3743
  116OSM    HO312108   3.382   6.661   6.557 -0.7321 -0.9691 -1.4565
  116OSM    C4S12109   3.361   6.583   6.842 -0.4679  0.5013 -0.1431
  116OSM    H4S12110   3.321   6.685   6.853 -2.1110 -0.0865 -0.4753
  116OSM    C5S12111   3.328   6.483   6.924  0.2443 -0.5532 -0.3798
  116OSM    H5S12112   3.344   6.380   6.890  1.3180 -0.0759 -1.3637
  116OSM    C6S12113   3.248   6.498   7.050 -0.2706  0.3356  0.8423
  116OSM    H6S12114   3.270   6.408   7.112  3.1945  0.5544  0.0741
  116OSM    H6T12115   3.144   6.487   7.012  0.0645  0.4457 -0.1366
  116OSM    C7S12116   3.278   6.637   7.124 -0.0343 -0.4430  0.0534
  116OSM    H7S12117   3.255   6.722   7.057 -0.1996  0.0058  0.6648
  116OSM    H7T12118   3.380   6.640   7.168  1.2882 -0.9473 -2.7423
  116OSM    C8S12119   3.186   6.666   7.245  0.3338  0.1155 -0.4542
  116OSM    H8S12120   3.082   6.682   7.210  1.1567  3.3786 -1.8743
  116OSM    H8T12121   3.215   6.759   7.299 -0.3779  1.1266 -1.7678
  116OSM    C9S12122   3.196   6.553   7.352 -0.6397  0.3543 -0.1825
  116OSM    H9S12123   3.302   6.527   7.368 -0.5532  0.8637  0.0660
  116OSM    H9T12124   3.149   6.460   7.311 -0.1404 -0.5485  1.2223
  116OSM   C10S12125   3.136   6.596   7.482  0.3693 -0.2982  0.1297
  116OSM   H10S12126   3.034   6.625   7.451  0.4004 -0.2054  0.1129
  116OSM   H10T12127   3.185   6.693   7.509 -0.0883 -0.5136  1.8408
  116OSM   C11S12128   3.140   6.495   7.599  0.5353  0.1947  0.5175
  116OSM   H11S12129   3.241   6.496   7.647 -0.3785  0.6849  2.5411
  116OSM   H11T12130   3.122   6.396   7.552  0.0472  1.2085 -1.4991
  116OSM   C12S12131   3.037   6.530   7.709  0.2082 -0.3235 -0.2534
  116OSM   H12S12132   2.935   6.513   7.667  0.5349 -2.0150 -0.4533
  116OSM   H12T12133   3.056   6.637   7.733 -0.1424 -0.6256  1.4676
  116OSM   C13S12134   3.057   6.451   7.836  0.2124  0.1943 -0.4541
  116OSM   H13S12135   3.155   6.470   7.883 -0.2163  0.2007  0.4477
  116OSM   H13T12136   3.058   6.341   7.815 -1.0111 -0.0321  0.5502
  116OSM   C14S12137   2.957   6.488   7.945  0.4586  0.1210 -0.2518
  116OSM   H14S12138   2.859   6.440   7.925 -0.3426  1.7730 -0.4496
  116OSM   H14T12139   2.949   6.599   7.949  0.9035  0.1347  2.5754
  116OSM   C15S12140   2.998   6.426   8.085  0.7802 -0.7273 -0.6923
  116OSM   H15S12141   3.071   6.343   8.075 -0.4705 -1.9373 -0.0613
  116OSM   H15T12142   2.909   6.375   8.128 -1.0774  1.5209 -1.6478
  116OSM   C16S12143   3.043   6.539   8.183  0.7214 -0.3590  0.6715
  116OSM   H16S12144   2.953   6.603   8.195  0.0897 -1.4000  1.6521
  116OSM   H16T12145   3.130   6.584   8.130  1.1244  0.6946  2.1611
  116OSM   C17S12146   3.083   6.492   8.316 -0.1962  0.2197 -0.3091
  116OSM   H17S12147   3.008   6.418   8.351  0.8301 -0.1709  1.1559
  116OSM   H17T12148   3.071   6.577   8.386 -0.0449  0.3970 -0.4976
  116OSM   C18S12149   3.220   6.429   8.323  0.1643  0.7792 -0.4702
  116OSM   H18S12150   3.296   6.501   8.287  0.4437 -0.3322 -2.2502
  116OSM   H18T12151   3.220   6.335   8.263  0.0767  0.1631  0.4770
  116OSM   H18U12152   3.238   6.399   8.429 -0.8467  0.0085 -0.4984
  116OSM    C1F12153   3.758   6.745   6.851 -0.0319  0.1487 -0.1861
  116OSM     OF12154   3.751   6.858   6.809 -0.2088  0.3337 -0.1537
  116OSM    C2F12155   3.869   6.707   6.950 -0.6161  0.4862  0.1564
  116OSM    H2F12156   3.860   6.773   7.039 -0.9364 -0.8016  1.1201
  116OSM    H2G12157   3.963   6.736   6.898  0.0345 -2.1139 -0.2450
  116OSM    C3F12158   3.872   6.560   6.992 -0.7261  0.6558  0.0100
  116OSM    H3F12159   3.973   6.540   7.033 -0.7515  1.9126  0.7152
  116OSM    H3G12160   3.868   6.492   6.904 -0.5783 -2.2578  2.1206
  116OSM    C4F12161   3.768   6.523   7.090  0.2014  0.1313 -0.2887
  116OSM    H4F12162   3.788   6.417   7.117 -0.7629 -0.0575 -0.2778
  116OSM    H4G12163   3.671   6.547   7.042  0.5783  0.9339 -0.6686
  116OSM    C5F12164   3.772   6.596   7.222 -0.2345  0.2784 -0.4512
  116OSM    H5F12165   3.773   6.706   7.206 -2.5369  0.8041  2.3029
  116OSM    H5G12166   3.872   6.569   7.264 -0.3364 -0.2163 -0.5181
  116OSM    C6F12167   3.669   6.554   7.328  0.4183 -1.0889  0.3352
  116OSM    H6F12168   3.665   6.447   7.356  1.3505 -0.8149  1.6024
  116OSM    H6G12169   3.567   6.581   7.293  1.1137 -0.5285 -1.3506
  116OSM    C7F12170   3.683   6.620   7.463 -0.4856  0.5697 -0.0689
  116OSM    H7F12171   3.585   6.628   7.515  0.6430  0.0802  2.2695
  116OSM    H7G12172   3.723   6.723   7.450 -0.2940  0.6563  1.0876
  116OSM    C8F12173   3.781   6.542   7.556 -0.0835 -0.4248  0.3514
  116OSM    H8F12174   3.860   6.496   7.493  0.7051 -0.2876  1.2245
  116OSM    H8G12175   3.725   6.457   7.599  1.4236 -0.9935  1.2700
  116OSM    C9F12176   3.850   6.632   7.659 -0.2066 -0.3488 -0.0863
  116OSM    H9F12177   3.925   6.699   7.615 -1.4692  3.0942  2.5560
  116OSM   C10F12178   3.829   6.627   7.790  0.7740 -0.3808 -0.3721
  116OSM   H10F12179   3.875   6.683   7.873 -1.6924 -0.3502  1.0519
  116OSM   C11F12180   3.727   6.528   7.842  0.3812 -0.1332 -0.2279
  116OSM   H11F12181   3.784   6.434   7.855  2.7968  1.5489  2.8020
  116OSM   H11G12182   3.638   6.509   7.779 -0.1925 -0.7672  0.7452
  116OSM   C12F12183   3.695   6.575   7.988  0.0699 -0.0392  0.1394
  116OSM   H12F12184   3.785   6.600   8.048 -0.4143  3.5122 -0.3598
  116OSM   H12G12185   3.633   6.501   8.044  0.0033  2.4840  3.7423
  116OSM   C13F12186   3.594   6.694   7.983 -0.5341  0.4233 -0.0571
  116OSM   H13F12187   3.504   6.672   7.922 -1.2114  0.5262  0.8901
  116OSM   H13G12188   3.651   6.775   7.932  1.0415  0.1611  1.2135
  116OSM   C14F12189   3.563   6.743   8.127  0.8836  0.1797 -0.0635
  116OSM   H14F12190   3.650   6.734   8.195  1.0723  1.2187 -0.1510
  116OSM   H14G12191   3.482   6.680   8.170  0.8228 -0.6889 -1.3951
  116OSM   C15F12192   3.509   6.889   8.133 -0.6313 -0.1359 -0.5272
  116OSM   H15F12193   3.429   6.885   8.056 -0.0548 -1.5489 -1.0722
  116OSM   H15G12194   3.588   6.960   8.096 -1.3388  1.4416  0.8533
  116OSM   C16F12195   3.462   6.929   8.273 -1.1394 -0.2184 -0.2318
  116OSM   H16F12196   3.415   7.029   8.267 -1.2851 -0.2768 -0.0685
  116OSM   H16G12197   3.547   6.927   8.345 -1.6267  0.4902  0.3799
  116OSM   C17F12198   3.343   6.846   8.342 -1.0684  0.5320  0.5830
  116OSM   H17F12199   3.380   6.743   8.363 -1.5804  0.0631 -0.7037
  116OSM   H17G12200   3.261   6.844   8.267  0.2549 -1.0685 -0.9186
  116OSM   C18F12201   3.301   6.917   8.473 -0.1677 -0.2006  0.8345
  116OSM   H18F12202   3.251   6.842   8.538 -0.7268 -2.6679 -2.2250
  116OSM   H18G12203   3.239   7.008   8.460  0.5346 -0.0351 -2.0189
  116OSM   H18H12204   3.399   6.941   8.521  0.5565 -1.0623 -0.1677
  117OSM      N12205   1.038   1.260   5.885  0.0216 -0.8526  0.4316
  117OSM    C1512206   1.051   1.140   5.794 -0.4098  0.0038  0.4675
  117OSM   H15A12207   1.108   1.064   5.845 -0.6967 -1.4528 -1.2951
  117OSM   H15B12208   1.096   1.168   5.700  1.3261  1.1826  1.5942
  117OSM   H15C12209   0.949   1.111   5.775 -0.5200 -1.1193  2.4871
  117OSM    C1412210   1.153   1.265   5.983 -0.3091 -0.1457 -0.3918
  117OSM   H14A12211   1.133   1.194   6.062 -1.6326 -0.9547 -1.4151
  117OSM   H14B12212   1.158   1.364   6.025  0.8533  1.6222 -4.2143
  117OSM   H14C12213   1.245   1.244   5.931 -0.4691 -2.0285  0.0032
  117OSM    C1312214   1.034   1.388   5.809  1.0532  0.3715  0.1065
  117OSM   H13A12215   0.963   1.390   5.727  1.5118 -0.0564 -0.3117
  117OSM   H13B12216   1.129   1.408   5.760  1.3419 -2.2850 -0.5991
  117OSM   H13C12217   1.007   1.470   5.874  1.6564  0.7872 -0.1560
  117OSM    C1212218   0.913   1.240   5.971  0.2643 -0.3517 -0.7533
  117OSM   H12A12219   0.826   1.251   5.908 -2.8215  1.5790  3.3989
  117OSM   H12B12220   0.909   1.317   6.046  1.1918  1.7915 -2.8057
  117OSM    C1112221   0.902   1.101   6.037  0.1532  1.3188  0.6719
  117OSM   H11A12222   0.892   1.017   5.964  0.3656  2.6082 -0.9098
  117OSM   H11B12223   0.801   1.098   6.084 -0.7793 -2.3332 -1.1243
  117OSM      P12224   1.056   0.945   6.180  0.2515 -0.3869 -0.3419
  117OSM    O1312225   1.018   0.838   6.091  0.4178 -0.1388  0.1994
  117OSM    O1412226   1.204   0.974   6.197  0.1104  0.0374  0.3749
  117OSM    O1112227   0.988   0.918   6.314  0.4387 -0.3032  0.0341
  117OSM    O1212228   1.002   1.082   6.129 -0.0288 -0.2484 -0.5464
  117OSM    C1S12229   0.894   0.999   6.380  0.5002 -0.0448  0.4528
  117OSM    H1S12230   0.807   1.021   6.315 -0.6244 -1.8355  1.2584
  117OSM    H1T12231   0.944   1.098   6.389  0.3735  0.0205  0.4391
  117OSM     NF12232   0.746   1.035   6.576  0.2020  0.3635 -0.4667
  117OSM    HNF12233   0.775   1.100   6.646 -1.5624 -1.4529  2.1425
  117OSM    C2S12234   0.850   0.942   6.519 -0.7305  0.4177 -0.7245
  117OSM    H2S12235   0.801   0.843   6.503  0.4218 -0.3581  0.3290
  117OSM    C3S12236   0.975   0.925   6.602 -0.2082 -0.2025  0.2323
  117OSM    H3S12237   1.022   1.024   6.623 -1.4834  1.2012 -2.9250
  117OSM     O312238   1.075   0.838   6.543 -0.4363 -0.0132  0.0892
  117OSM    HO312239   1.051   0.852   6.451 -4.6973  1.4079  1.1706
  117OSM    C4S12240   0.938   0.870   6.729 -0.1115  0.2360  0.6695
  117OSM    H4S12241   0.906   0.765   6.724 -0.4981  0.4074 -0.9210
  117OSM    C5S12242   0.934   0.945   6.847 -0.8299  0.2890  0.0600
  117OSM    H5S12243   0.946   1.054   6.836 -1.4943  0.2791 -0.9585
  117OSM    C6S12244   0.896   0.895   6.982 -0.1153  0.1006 -0.1830
  117OSM    H6S12245   0.994   0.885   7.034 -0.1666 -0.2044 -0.1440
  117OSM    H6T12246   0.852   0.797   6.955  1.4292  0.2446 -3.7527
  117OSM    C7S12247   0.815   0.990   7.069  0.4369 -1.1458  0.2637
  117OSM    H7S12248   0.714   1.012   7.028  0.2625 -0.5318  1.0038
  117OSM    H7T12249   0.870   1.085   7.084 -0.0534 -1.1520  2.4059
  117OSM    C8S12250   0.788   0.937   7.209  0.1342  0.2013  0.0649
  117OSM    H8S12251   0.885   0.922   7.262 -0.7486 -0.5703  1.5051
  117OSM    H8T12252   0.736   0.839   7.216  1.4854 -0.6663 -1.1923
  117OSM    C9S12253   0.721   1.049   7.297 -0.4961 -0.0212 -0.3198
  117OSM    H9S12254   0.629   1.086   7.247 -0.9589 -0.4945  0.1577
  117OSM    H9T12255   0.793   1.132   7.309 -0.2902 -0.3475  0.8709
  117OSM   C10S12256   0.701   0.989   7.435 -1.3658  0.2616  0.1906
  117OSM   H10S12257   0.783   0.916   7.452 -1.6157 -0.5012 -1.6347
  117OSM   H10T12258   0.604   0.936   7.423 -1.7372  1.4432 -2.7876
  117OSM   C11S12259   0.679   1.095   7.541  0.1777  1.3995  0.3772
  117OSM   H11S12260   0.588   1.149   7.506 -0.2505  1.2519  1.2249
  117OSM   H11T12261   0.770   1.158   7.543  1.9829 -1.0196 -0.7391
  117OSM   C12S12262   0.647   1.028   7.684  0.0976 -0.5133  0.0214
  117OSM   H12S12263   0.733   0.965   7.713 -0.2328 -0.8843  0.2094
  117OSM   H12T12264   0.565   0.957   7.657  0.3011 -0.5523 -0.5116
  117OSM   C13S12265   0.613   1.131   7.799  0.4082 -0.2016  0.2994
  117OSM   H13S12266   0.598   1.062   7.885  0.5384 -2.2065 -1.2149
  117OSM   H13T12267   0.512   1.172   7.777  1.2365  1.0792 -1.2789
  117OSM   C14S12268   0.715   1.245   7.826 -0.1793  0.3751 -0.4435
  117OSM   H14S12269   0.680   1.315   7.747 -0.7190  0.0826 -0.4638
  117OSM   H14T12270   0.819   1.206   7.816 -0.4642 -2.4931  4.3543
  117OSM   C15S12271   0.701   1.311   7.961  0.1463 -0.4512  0.0026
  117OSM   H15S12272   0.599   1.287   7.997 -0.2263 -0.0740 -0.7737
  117OSM   H15T12273   0.720   1.421   7.965 -0.4052 -0.1432 -3.2351
  117OSM   C16S12274   0.793   1.241   8.078  0.7521  0.5574  1.3576
  117OSM   H16S12275   0.894   1.287   8.091  2.0417 -2.4523  2.7422
  117OSM   H16T12276   0.820   1.140   8.043  1.4798  0.3682  2.4107
  117OSM   C17S12277   0.721   1.236   8.212 -0.2050 -0.1642  0.1605
  117OSM   H17S12278   0.702   1.342   8.240 -0.9088  0.1360 -1.3518
  117OSM   H17T12279   0.792   1.188   8.283  0.0916 -2.8021 -1.7606
  117OSM   C18S12280   0.582   1.162   8.217 -0.4071 -0.1860  0.4037
  117OSM   H18S12281   0.516   1.227   8.155 -0.7034 -0.6248  0.2528
  117OSM   H18T12282   0.534   1.178   8.315 -5.0714 -1.4467 -1.3790
  117OSM   H18U12283   0.594   1.059   8.175  2.7554  0.6358 -0.9741
  117OSM    C1F12284   0.626   1.039   6.521 -0.2772  0.0933  0.0580
  117OSM     OF12285   0.589   0.965   6.427  0.0920 -0.2905  0.3315
  117OSM    C2F12286   0.519   1.122   6.585 -0.6934 -0.2397  0.1878
  117OSM    H2F12287   0.454   1.156   6.502  1.8660  3.4673 -0.5355
  117OSM    H2G12288   0.566   1.209   6.636 -1.1617  0.1040  0.0319
  117OSM    C3F12289   0.443   1.045   6.702 -0.9230 -0.0106  0.0794
  117OSM    H3F12290   0.518   0.987   6.759 -1.5130  0.8391  1.8016
  117OSM    H3G12291   0.368   0.968   6.674  0.9209 -2.0762  0.5369
  117OSM    C4F12292   0.358   1.148   6.788 -0.0338 -0.1472 -0.3133
  117OSM    H4F12293   0.285   1.080   6.837  0.5426 -0.5504 -0.0160
  117OSM    H4G12294   0.310   1.216   6.713  1.3958  1.5471  0.2263
  117OSM    C5F12295   0.450   1.225   6.889 -0.1447  1.3841  0.2812
  117OSM    H5F12296   0.526   1.291   6.842  1.2581 -0.5878 -0.3507
  117OSM    H5G12297   0.520   1.151   6.931 -0.6895  0.7617  0.1042
  117OSM    C6F12298   0.363   1.292   6.999 -0.2208 -0.3017 -0.3215
  117OSM    H6F12299   0.284   1.227   7.043 -0.9523  0.5550 -0.3550
  117OSM    H6G12300   0.312   1.376   6.947  0.3430  0.2692  0.0341
  117OSM    C7F12301   0.450   1.363   7.107 -0.3372  0.3669 -0.0881
  117OSM    H7F12302   0.536   1.406   7.052 -0.8083  1.0590 -0.3009
  117OSM    H7G12303   0.493   1.281   7.168  0.3346  1.4478  0.9291
  117OSM    C8F12304   0.376   1.472   7.183  0.5048  0.2480 -0.0549
  117OSM    H8F12305   0.310   1.418   7.254  1.4461  0.0339  0.6846
  117OSM    H8G12306   0.306   1.530   7.119  1.4322  1.8024  0.3088
  117OSM    C9F12307   0.471   1.561   7.257 -1.1974 -1.1969  0.0051
  117OSM    H9F12308   0.483   1.662   7.215 -1.1261 -0.5774  1.4515
  117OSM   C10F12309   0.521   1.539   7.376 -0.2418  0.1663 -0.4604
  117OSM   H10F12310   0.593   1.608   7.424  1.8549 -1.4795 -1.0760
  117OSM   C11F12311   0.499   1.420   7.472  0.3129 -0.7116  0.3462
  117OSM   H11F12312   0.593   1.394   7.525 -0.8514 -0.3211  2.7344
  117OSM   H11G12313   0.465   1.339   7.405 -3.9228 -1.1555  2.6505
  117OSM   C12F12314   0.385   1.450   7.576 -0.5027 -0.7313 -0.3327
  117OSM   H12F12315   0.362   1.354   7.627 -0.1267  1.3578  4.2055
  117OSM   H12G12316   0.291   1.488   7.529 -0.4890 -2.0880 -1.5446
  117OSM   C13F12317   0.429   1.550   7.691 -0.2183  0.4392  0.8580
  117OSM   H13F12318   0.430   1.651   7.644  0.9255 -0.5836 -1.5276
  117OSM   H13G12319   0.531   1.530   7.729 -0.0982  1.2870  1.0049
  117OSM   C14F12320   0.335   1.551   7.804 -0.2211  0.7984 -0.2946
  117OSM   H14F12321   0.234   1.522   7.768 -0.6260 -0.1662  1.4880
  117OSM   H14G12322   0.333   1.649   7.857  1.1594  1.3347 -1.1665
  117OSM   C15F12323   0.367   1.442   7.910  0.7272 -0.4156 -0.0921
  117OSM   H15F12324   0.465   1.455   7.959  0.3484  0.9967  0.3433
  117OSM   H15G12325   0.367   1.349   7.848  0.6980 -1.0128  0.7837
  117OSM   C16F12326   0.257   1.430   8.014 -0.4938  0.0428 -0.6875
  117OSM   H16F12327   0.160   1.398   7.970 -2.9720 -2.5208  5.5470
  117OSM   H16G12328   0.253   1.534   8.052  1.4119  0.3641 -1.2517
  117OSM   C17F12329   0.286   1.338   8.133  0.4854  0.5639 -0.1824
  117OSM   H17F12330   0.332   1.242   8.100  0.2172 -0.0245  1.1092
  117OSM   H17G12331   0.359   1.402   8.187 -1.4359  1.9723  0.8782
  117OSM   C18F12332   0.170   1.310   8.230 -0.3172  0.3904 -0.1996
  117OSM   H18F12333   0.112   1.231   8.177  0.0511  0.8078 -1.2529
  117OSM   H18G12334   0.100   1.393   8.252 -2.1120 -0.4740 -2.2363
  117OSM   H18H12335   0.209   1.268   8.325  1.2902  1.7367 -0.2141
  118OSM      N12336   5.590   3.371   6.022 -0.5786 -0.2041 -0.1843
  118OSM    C1512337   5.673   3.286   5.938  0.5767  0.8456 -0.2214
  118OSM   H15A12338   5.769   3.332   5.917  1.4805 -1.6733 -2.0688
  118OSM   H15B12339   5.632   3.280   5.839 -0.1745  1.3391  0.0495
  118OSM   H15C12340   5.698   3.190   5.981 -1.3258  0.1297 -0.6102
  118OSM    C1412341   5.509   3.460   5.932 -0.5134 -0.4686  0.5791
  118OSM   H14A12342   5.575   3.526   5.877 -1.2184 -1.2160 -1.2372
  118OSM   H14B12343   5.428   3.520   5.973  1.2304  1.3277  1.5620
  118OSM   H14C12344   5.464   3.398   5.855  1.1764 -1.2068  0.1408
  118OSM    C1312345   5.481   3.298   6.097 -0.4149  0.2507 -0.1427
  118OSM   H13A12346   5.507   3.231   6.177 -0.2298  0.8109  0.2737
  118OSM   H13B12347   5.415   3.250   6.027 -0.6804  0.3354  0.0471
  118OSM   H13C12348   5.414   3.364   6.150  0.8082  0.7959  0.7680
  118OSM    C1212349   5.671   3.451   6.123 -1.3919  0.0501 -0.7476
  118OSM   H12A12350   5.719   3.380   6.188  1.7887  1.8954 -0.8559
  118OSM   H12B12351   5.614   3.528   6.173 -0.1587  0.8955 -0.6220
  118OSM    C1112352   5.790   3.534   6.072  0.2540 -0.1401 -0.6668
  118OSM   H11A12353   5.815   3.608   6.151 -0.0918  0.8556 -1.4594
  118OSM   H11B12354   5.755   3.596   5.986  0.1574  0.2779 -0.3331
  118OSM      P12355   5.986   3.362   6.127 -0.4184  0.0053  0.0914
  118OSM    O1312356   5.961   3.227   6.076  0.4651  0.0172  0.0238
  118OSM    O1412357   6.133   3.390   6.125 -0.3897 -0.0250  0.4562
  118OSM    O1112358   5.924   3.379   6.270  0.1251 -0.3912 -0.0899
  118OSM    O1212359   5.904   3.465   6.033 -1.0730 -0.1539  0.3144
  118OSM    C1S12360   5.969   3.289   6.370 -0.0589  0.0905  0.8603
  118OSM    H1S12361   6.078   3.273   6.360 -0.1807  0.1767 -0.8731
  118OSM    H1T12362   5.911   3.196   6.354 -0.8234  0.2603  2.4305
  118OSM     NF12363   5.999   3.242   6.593 -0.1184  0.1931  0.0043
  118OSM    HNF12364   5.958   3.151   6.585 -0.2599  0.2455  0.1589
  118OSM    C2S12365   5.928   3.334   6.512  0.8774 -0.4032 -0.3646
  118OSM    H2S12366   5.952   3.441   6.527  1.2661 -0.4894 -0.3751
  118OSM    C3S12367   5.771   3.329   6.531 -0.1006 -0.5959  0.0153
  118OSM    H3S12368   5.724   3.237   6.489 -1.7212  0.1170  0.2119
  118OSM     O312369   5.703   3.433   6.454  0.4519  0.0940  0.1604
  118OSM    HO312370   5.759   3.459   6.381 -1.0704 -1.3510 -1.6444
  118OSM    C4S12371   5.736   3.353   6.678  0.7557 -0.0518  0.1828
  118OSM    H4S12372   5.721   3.260   6.734  0.0129  1.1176  2.0097
  118OSM    C5S12373   5.722   3.471   6.744  0.7866 -0.2441 -0.0609
  118OSM    H5S12374   5.743   3.561   6.685 -0.3917  1.9878  2.6808
  118OSM    C6S12375   5.683   3.486   6.888  0.4244  0.7668  0.1547
  118OSM    H6S12376   5.656   3.383   6.920 -1.9198  0.4802 -2.4077
  118OSM    H6T12377   5.599   3.558   6.898 -0.4045 -0.4089  2.3821
  118OSM    C7S12378   5.803   3.526   6.975  0.3405 -0.0135 -0.5102
  118OSM    H7S12379   5.832   3.632   6.956 -0.4375 -0.0033 -1.7048
  118OSM    H7T12380   5.894   3.466   6.953  0.1069 -0.0131 -1.5515
  118OSM    C8S12381   5.782   3.511   7.126 -0.2301  1.1292 -0.4327
  118OSM    H8S12382   5.875   3.541   7.179 -0.1867 -0.2968  0.3693
  118OSM    H8T12383   5.793   3.407   7.165  0.5254  1.6553  0.7989
  118OSM    C9S12384   5.655   3.570   7.188 -0.4484 -0.4068 -0.2632
  118OSM    H9S12385   5.569   3.509   7.151 -0.6245 -0.5076  0.3014
  118OSM    H9T12386   5.644   3.671   7.144  0.4405  0.8283  2.1728
  118OSM   C10S12387   5.665   3.587   7.339 -0.0479  0.0846  0.1240
  118OSM   H10S12388   5.685   3.490   7.391 -1.8908  0.3129  1.3524
  118OSM   H10T12389   5.565   3.624   7.368 -2.1712 -2.9047 -2.6622
  118OSM   C11S12390   5.773   3.692   7.384  0.7441  0.2455  0.1767
  118OSM   H11S12391   5.786   3.761   7.297 -1.0559  0.3537 -0.0562
  118OSM   H11T12392   5.872   3.652   7.412  0.5169 -0.4570 -0.0082
  118OSM   C12S12393   5.733   3.779   7.505 -0.3343 -0.1133  0.1343
  118OSM   H12S12394   5.648   3.845   7.476 -0.7557 -0.6569  0.1279
  118OSM   H12T12395   5.829   3.832   7.526  1.3424 -2.6977 -0.5715
  118OSM   C13S12396   5.704   3.689   7.625 -0.0133 -0.1493  0.4637
  118OSM   H13S12397   5.777   3.608   7.644 -0.1547 -0.1749  0.9021
  118OSM   H13T12398   5.614   3.635   7.589 -0.1057 -0.3587  1.0122
  118OSM   C14S12399   5.656   3.767   7.744 -0.2467  0.4929 -0.1779
  118OSM   H14S12400   5.613   3.695   7.816  0.0200 -0.2870 -0.7783
  118OSM   H14T12401   5.568   3.833   7.728 -0.6995  0.4759  1.9525
  118OSM   C15S12402   5.761   3.850   7.816 -0.3770  0.4142  0.3482
  118OSM   H15S12403   5.799   3.933   7.753 -2.3791 -0.3741 -2.0330
  118OSM   H15T12404   5.838   3.776   7.847 -1.3415 -0.8078 -0.0722
  118OSM   C16S12405   5.694   3.913   7.938 -0.2943  0.6868  0.1116
  118OSM   H16S12406   5.780   3.967   7.982  0.7645  1.0718 -2.2572
  118OSM   H16T12407   5.658   3.835   8.009  1.3209 -1.7906 -1.6217
  118OSM   C17S12408   5.610   4.037   7.905  0.6714 -0.8610 -0.0424
  118OSM   H17S12409   5.510   4.016   7.862  0.3238  1.1214 -0.3189
  118OSM   H17T12410   5.661   4.093   7.823 -1.5665 -0.9478 -1.5764
  118OSM   C18S12411   5.590   4.122   8.029 -0.2160  0.1794 -0.8362
  118OSM   H18S12412   5.683   4.177   8.057 -0.1709 -0.0100 -0.6062
  118OSM   H18T12413   5.558   4.071   8.123 -2.1029  1.2442 -0.8643
  118OSM   H18U12414   5.513   4.200   8.011  1.0345  1.2541 -1.6745
  118OSM    C1F12415   6.124   3.255   6.620  0.0066 -0.6352 -0.2486
  118OSM     OF12416   6.178   3.364   6.596 -0.7044 -0.0284 -0.1596
  118OSM    C2F12417   6.197   3.129   6.664  0.4807  0.1766 -0.7547
  118OSM    H2F12418   6.285   3.110   6.598  1.1540  1.3552 -0.2392
  118OSM    H2G12419   6.124   3.046   6.658 -0.5032  0.8609  1.0736
  118OSM    C3F12420   6.236   3.126   6.807  0.3567  0.1321 -0.7674
  118OSM    H3F12421   6.326   3.190   6.815  0.0923  0.3955  0.1363
  118OSM    H3G12422   6.280   3.028   6.837  1.8307  0.7572 -0.8226
  118OSM    C4F12423   6.125   3.155   6.908 -0.2068 -0.0715 -0.1438
  118OSM    H4F12424   6.052   3.072   6.906  1.8603 -1.9945 -0.9035
  118OSM    H4G12425   6.080   3.247   6.866 -0.3577 -0.6112 -1.2068
  118OSM    C5F12426   6.179   3.175   7.051 -0.5168  0.2113  0.0919
  118OSM    H5F12427   6.275   3.231   7.049 -1.0667  1.3451  2.3395
  118OSM    H5G12428   6.197   3.076   7.099 -0.6803  0.2769  0.2897
  118OSM    C6F12429   6.087   3.254   7.141 -0.3690 -0.2587 -0.1113
  118OSM    H6F12430   5.993   3.195   7.136 -0.5661 -0.0819  1.0874
  118OSM    H6G12431   6.068   3.354   7.097  0.1766 -0.5232 -0.9743
  118OSM    C7F12432   6.152   3.263   7.282 -0.2040  0.3553 -0.0924
  118OSM    H7F12433   6.239   3.328   7.258 -2.3813  2.5487 -2.7960
  118OSM    H7G12434   6.187   3.164   7.317  0.4620  1.2722  1.9816
  118OSM    C8F12435   6.060   3.348   7.375  0.5902 -0.5166  0.2265
  118OSM    H8F12436   6.038   3.440   7.317 -1.4886 -1.0157  0.1402
  118OSM    H8G12437   6.125   3.374   7.461  0.5168 -0.4507  0.2609
  118OSM    C9F12438   5.941   3.265   7.418 -0.4119 -0.5633 -0.6029
  118OSM    H9F12439   5.854   3.246   7.353  0.5143  0.5863 -2.2669
  118OSM   C10F12440   5.921   3.227   7.542 -0.7078  0.0383 -0.7399
  118OSM   H10F12441   5.832   3.162   7.550 -2.2457  2.2594  1.9795
  118OSM   C11F12442   6.005   3.246   7.670 -0.7114 -0.4478 -0.9230
  118OSM   H11F12443   6.099   3.188   7.658 -0.1169  0.6885 -1.9398
  118OSM   H11G12444   5.957   3.189   7.753 -1.2916 -0.4191 -1.2335
  118OSM   C12F12445   6.042   3.387   7.729  0.8963  0.6629 -0.4686
  118OSM   H12F12446   5.949   3.448   7.738  0.3538 -0.3187  1.1194
  118OSM   H12G12447   6.112   3.440   7.662 -1.9209  2.6307 -2.0510
  118OSM   C13F12448   6.090   3.361   7.875 -0.1032 -0.1643 -0.0009
  118OSM   H13F12449   6.187   3.308   7.861 -1.4167 -2.0782 -2.8263
  118OSM   H13G12450   6.024   3.294   7.935 -2.3724  1.2404 -0.7968
  118OSM   C14F12451   6.107   3.492   7.949 -0.6170  0.0088  0.3755
  118OSM   H14F12452   6.162   3.567   7.889 -1.0048  0.7516  0.9330
  118OSM   H14G12453   6.165   3.468   8.041 -0.5526 -3.0015 -0.3202
  118OSM   C15F12454   5.975   3.547   8.007 -0.3168  0.7404  0.8855
  118OSM   H15F12455   5.910   3.560   7.917  1.0039  3.3675  0.2114
  118OSM   H15G12456   6.007   3.648   8.043  0.3131  0.1405  2.0668
  118OSM   C16F12457   5.909   3.460   8.113 -0.2895 -0.4163 -0.1419
  118OSM   H16F12458   5.986   3.455   8.192 -1.2206 -0.4955  0.7878
  118OSM   H16G12459   5.897   3.357   8.072  2.4693 -0.8412 -0.0432
  118OSM   C17F12460   5.769   3.497   8.168  0.1251 -0.7795  0.4641
  118OSM   H17F12461   5.733   3.400   8.209 -0.4231 -1.0521 -0.6129
  118OSM   H17G12462   5.707   3.534   8.084  2.2213  1.3963 -0.1978
  118OSM   C18F12463   5.766   3.602   8.281 -0.6607  0.1369 -0.1229
  118OSM   H18F12464   5.809   3.698   8.244  2.2752 -1.1076 -0.2637
  118OSM   H18G12465   5.829   3.575   8.369 -2.9794 -0.6789  1.3888
  118OSM   H18H12466   5.662   3.618   8.315 -1.3245  1.0064 -2.3712
  119OSM      N12467   0.083   2.195   5.774  0.3895  0.1777 -0.4682
  119OSM    C1512468  -0.000   2.099   5.693  0.5603  0.6961 -0.0839
  119OSM   H15A12469   0.018   1.998   5.729  1.6955  0.5174 -1.1120
  119OSM   H15B12470   0.031   2.107   5.590  0.2786  1.2393 -0.1265
  119OSM   H15C12471  -0.107   2.118   5.687  0.9958  4.8229  1.7464
  119OSM    C1412472   0.223   2.140   5.766  0.0764 -0.5327 -0.3264
  119OSM   H14A12473   0.262   2.139   5.665 -0.4248 -0.7118 -0.5192
  119OSM   H14B12474   0.232   2.041   5.807  2.3499 -0.4780 -0.5320
  119OSM   H14C12475   0.299   2.198   5.817 -0.6248  1.5314 -1.4955
  119OSM    C1312476   0.077   2.338   5.721 -0.1283  0.8225  0.5367
  119OSM   H13A12477   0.106   2.334   5.617 -2.4155 -0.7586 -0.1238
  119OSM   H13B12478   0.146   2.405   5.772 -0.5450  2.9261 -1.4847
  119OSM   H13C12479  -0.022   2.380   5.730  0.2222  1.7888  0.0024
  119OSM    C1212480   0.031   2.210   5.918 -0.0306  0.3870  0.0369
  119OSM   H12A12481  -0.076   2.224   5.921  0.0898  1.2594  0.8885
  119OSM   H12B12482   0.075   2.300   5.959  1.4500 -0.3630  0.1545
  119OSM    C1112483   0.053   2.093   6.018 -1.0282  0.3507  0.0428
  119OSM   H11A12484   0.019   2.127   6.119 -0.4274  0.7883  0.1038
  119OSM   H11B12485   0.162   2.079   6.033 -0.8408 -1.0555 -2.2343
  119OSM      P12486  -0.153   1.937   5.982  0.2609 -0.2358 -0.2615
  119OSM    O1312487  -0.220   2.056   5.934 -0.3527  0.4408 -0.3777
  119OSM    O1412488  -0.170   1.814   5.902 -0.0988  0.4144  0.0863
  119OSM    O1112489  -0.188   1.917   6.133 -0.1907 -0.2290 -0.0406
  119OSM    O1212490   0.004   1.966   5.986 -0.1088  0.1099  0.4021
  119OSM    C1S12491  -0.091   1.880   6.228  0.1684 -0.2574  0.0096
  119OSM    H1S12492   0.006   1.934   6.222 -0.9639  2.3037  2.3506
  119OSM    H1T12493  -0.068   1.772   6.213 -1.7326 -0.5203 -1.3526
  119OSM     NF12494  -0.019   1.896   6.454  0.0411 -0.4153  0.1966
  119OSM    HNF12495   0.013   1.808   6.488  0.9096  0.0622  0.6515
  119OSM    C2S12496  -0.138   1.892   6.377  0.1586  0.2516  0.8607
  119OSM    H2S12497  -0.191   1.988   6.395 -0.0651  0.4449 -0.6741
  119OSM    C3S12498  -0.237   1.768   6.411  0.1509 -0.1124 -0.4188
  119OSM    H3S12499  -0.180   1.672   6.401  0.7226 -0.0073  1.5087
  119OSM     O312500  -0.345   1.756   6.320  0.6836  0.2744 -0.2442
  119OSM    HO312501  -0.338   1.807   6.239 -0.0585  0.1072 -0.4227
  119OSM    C4S12502  -0.288   1.765   6.546  0.3681 -0.4510 -0.2441
  119OSM    H4S12503  -0.371   1.835   6.567  1.1289  1.0447 -1.8821
  119OSM    C5S12504  -0.249   1.685   6.642 -0.3993  0.0779  0.3425
  119OSM    H5S12505  -0.179   1.603   6.621 -2.8913 -2.3933  1.2073
  119OSM    C6S12506  -0.287   1.680   6.787 -0.8519  0.3603  0.4260
  119OSM    H6S12507  -0.206   1.718   6.854 -0.6631  0.2296  0.2730
  119OSM    H6T12508  -0.316   1.575   6.809 -1.0900  0.3048 -0.1381
  119OSM    C7S12509  -0.405   1.772   6.820 -0.0287 -0.0297  0.5964
  119OSM    H7S12510  -0.487   1.738   6.754  0.9639 -1.3198 -0.0135
  119OSM    H7T12511  -0.394   1.882   6.804  1.4216 -0.5376 -2.7192
  119OSM    C8S12512  -0.456   1.748   6.969  0.3175 -0.0425  0.7403
  119OSM    H8S12513  -0.377   1.770   7.044  1.9785 -1.2482 -0.5684
  119OSM    H8T12514  -0.502   1.647   6.968  1.8259 -0.8312 -2.2043
  119OSM    C9S12515  -0.577   1.840   6.999 -0.1801  0.4623 -0.2965
  119OSM    H9S12516  -0.657   1.836   6.921  1.5720  2.3425 -2.3152
  119OSM    H9T12517  -0.548   1.946   6.992 -0.6350  0.5885 -0.3448
  119OSM   C10S12518  -0.630   1.810   7.142  0.9268  0.3379  0.5622
  119OSM   H10S12519  -0.556   1.856   7.211  2.7400  1.1774 -1.7797
  119OSM   H10T12520  -0.639   1.701   7.159 -4.8773  0.6410  1.4340
  119OSM   C11S12521  -0.776   1.865   7.167 -0.8182  1.0244 -0.4723
  119OSM   H11S12522  -0.838   1.818   7.087  1.2515 -0.3701 -1.3457
  119OSM   H11T12523  -0.777   1.976   7.164  1.8418  1.1978  1.4042
  119OSM   C12S12524  -0.817   1.807   7.305  0.7705  0.0866 -0.0460
  119OSM   H12S12525  -0.743   1.835   7.382 -0.1138 -0.7973  1.1707
  119OSM   H12T12526  -0.821   1.696   7.305  0.7208  0.0855 -0.4541
  119OSM   C13S12527  -0.945   1.870   7.358  0.1937 -0.1072 -0.2860
  119OSM   H13S12528  -1.033   1.854   7.292  0.2354  1.8425 -0.8951
  119OSM   H13T12529  -0.944   1.981   7.346 -0.8388 -0.4224 -5.3793
  119OSM   C14S12530  -0.985   1.829   7.498  0.6866 -0.6664 -0.0289
  119OSM   H14S12531  -1.006   1.721   7.514 -5.1197  0.0209 -0.8491
  119OSM   H14T12532  -1.085   1.874   7.512  0.1133 -2.0299  0.3301
  119OSM   C15S12533  -0.898   1.878   7.615 -0.3671  0.0641  0.3114
  119OSM   H15S12534  -0.886   1.985   7.589  0.4541 -0.4170 -1.3967
  119OSM   H15T12535  -0.796   1.835   7.611 -1.3323 -2.4328  0.7754
  119OSM   C16S12536  -0.951   1.868   7.751 -0.9105  0.0808 -0.0682
  119OSM   H16S12537  -0.867   1.829   7.813  0.9621  1.5735 -1.5173
  119OSM   H16T12538  -1.029   1.791   7.765  0.1286 -1.2581 -1.2808
  119OSM   C17S12539  -1.001   2.007   7.810 -0.7346 -0.0068  0.2232
  119OSM   H17S12540  -1.056   2.064   7.732  0.4530 -1.3507 -1.6819
  119OSM   H17T12541  -0.903   2.057   7.827  2.3760 -4.8173 -1.5367
  119OSM   C18S12542  -1.087   1.983   7.934 -0.6483 -0.0849 -0.8212
  119OSM   H18S12543  -1.102   2.079   7.988 -1.0023 -0.0346 -1.0065
  119OSM   H18T12544  -1.045   1.910   8.007 -2.3598 -1.4621 -1.1273
  119OSM   H18U12545  -1.184   1.938   7.901  0.3163 -1.1290 -2.3605
  119OSM    C1F12546   0.058   2.005   6.467 -0.3562 -0.1892 -0.0535
  119OSM     OF12547   0.028   2.109   6.405 -0.6208 -0.2218  0.0420
  119OSM    C2F12548   0.169   1.993   6.560  0.2871  0.5385 -0.3865
  119OSM    H2F12549   0.255   1.975   6.492 -0.3520 -0.5447 -0.9522
  119OSM    H2G12550   0.166   1.904   6.626  0.0325  1.2101  0.5273
  119OSM    C3F12551   0.193   2.116   6.642 -0.7977 -0.4045 -0.2485
  119OSM    H3F12552   0.108   2.142   6.708 -0.1463  0.0158  0.4392
  119OSM    H3G12553   0.215   2.208   6.583 -2.4692  0.1673 -0.0371
  119OSM    C4F12554   0.320   2.100   6.724  0.0245  0.3725 -0.2042
  119OSM    H4F12555   0.411   2.079   6.663 -0.4387  0.9387 -1.1008
  119OSM    H4G12556   0.305   2.016   6.795  0.2212  2.6300  2.7382
  119OSM    C5F12557   0.365   2.224   6.802 -0.1006 -0.1513 -0.2362
  119OSM    H5F12558   0.398   2.312   6.743  2.5662  0.9406  2.5857
  119OSM    H5G12559   0.459   2.196   6.855 -0.4228  0.7080  0.8149
  119OSM    C6F12560   0.265   2.280   6.903  0.4139 -0.0089  0.5145
  119OSM    H6F12561   0.217   2.195   6.957  2.3792 -2.0476 -0.7580
  119OSM    H6G12562   0.188   2.339   6.849  0.2568 -2.7769 -2.5902
  119OSM    C7F12563   0.338   2.365   7.011 -0.2491  0.0600 -0.1802
  119OSM    H7F12564   0.254   2.411   7.069  0.1533 -0.5036  0.8849
  119OSM    H7G12565   0.405   2.436   6.959 -0.3516 -0.9043 -1.6717
  119OSM    C8F12566   0.423   2.296   7.115 -0.0672  0.5609 -0.2849
  119OSM    H8F12567   0.428   2.369   7.198  2.0083  0.9448 -0.6970
  119OSM    H8G12568   0.525   2.290   7.071 -0.0380  1.6788 -0.3883
  119OSM    C9F12569   0.352   2.172   7.166 -0.5773  0.1133  0.3207
  119OSM    H9F12570   0.383   2.078   7.118  0.7544  0.7886 -0.1935
  119OSM   C10F12571   0.264   2.163   7.267  0.1725  0.6431  0.8999
  119OSM   H10F12572   0.243   2.059   7.297 -0.4044  0.0433 -1.3860
  119OSM   C11F12573   0.200   2.274   7.346 -0.3126 -0.2199 -0.5775
  119OSM   H11F12574   0.093   2.282   7.317 -0.3759 -1.2787 -0.6569
  119OSM   H11G12575   0.231   2.379   7.323  2.6451 -0.6887  0.7909
  119OSM   C12F12576   0.223   2.266   7.502  0.0023  0.2281  0.5215
  119OSM   H12F12577   0.200   2.166   7.545  0.0642  0.8003  1.9450
  119OSM   H12G12578   0.146   2.334   7.544  0.0050  2.0200 -2.1266
  119OSM   C13F12579   0.368   2.300   7.555  0.3687 -0.3199  0.6602
  119OSM   H13F12580   0.376   2.404   7.515 -1.1552 -0.9292 -1.4394
  119OSM   H13G12581   0.443   2.235   7.503 -0.8519 -1.0686 -0.2289
  119OSM   C14F12582   0.385   2.280   7.708  0.1239  0.2139  0.2683
  119OSM   H14F12583   0.372   2.170   7.720  1.5195  0.0433  0.4539
  119OSM   H14G12584   0.299   2.335   7.750 -0.9254 -0.3234 -1.1036
  119OSM   C15F12585   0.518   2.324   7.764 -1.2363  0.1951 -0.0331
  119OSM   H15F12586   0.515   2.434   7.775  1.8262  0.4659 -0.9333
  119OSM   H15G12587   0.608   2.304   7.703 -1.6314 -0.3229 -0.4544
  119OSM   C16F12588   0.547   2.247   7.899 -0.2852  0.0431  1.0143
  119OSM   H16F12589   0.623   2.303   7.957 -4.0584  4.0765  2.6738
  119OSM   H16G12590   0.584   2.149   7.861 -0.7210  0.9903 -2.0853
  119OSM   C17F12591   0.433   2.236   8.003  0.3215 -0.0364  0.1358
  119OSM   H17F12592   0.383   2.141   7.977 -0.9608  0.4636  0.6551
  119OSM   H17G12593   0.357   2.311   7.971  1.2169  0.6080 -0.5374
  119OSM   C18F12594   0.472   2.254   8.150 -0.8108  0.3346 -0.3855
  119OSM   H18F12595   0.389   2.257   8.223  0.3946  3.6555  1.0681
  119OSM   H18G12596   0.521   2.354   8.153  0.0626 -0.1062  0.6056
  119OSM   H18H12597   0.545   2.177   8.182 -2.3937 -0.5480  1.2841
  120OSM      N12598   3.746   1.267   6.609 -0.4433 -0.0111 -0.0897
  120OSM    C1512599   3.838   1.171   6.677 -0.2231  0.9889 -0.1800
  120OSM   H15A12600   3.781   1.124   6.756  0.8775  1.6389  1.0315
  120OSM   H15B12601   3.927   1.222   6.711  0.3553  0.6274 -1.1197
  120OSM   H15C12602   3.870   1.089   6.615 -0.2550 -0.2214  1.3317
  120OSM    C1412603   3.693   1.361   6.702 -1.0141  0.5100  0.3816
  120OSM   H14A12604   3.606   1.325   6.756  0.2692  1.3988  3.2516
  120OSM   H14B12605   3.666   1.449   6.646 -2.4409  0.5761  1.1141
  120OSM   H14C12606   3.773   1.399   6.763  0.6411  1.8737 -2.4290
  120OSM    C1312607   3.847   1.337   6.519  0.2587 -0.7011 -0.2358
  120OSM   H13A12608   3.910   1.279   6.454  1.5354  1.2362 -0.8245
  120OSM   H13B12609   3.917   1.382   6.587 -0.8940 -0.6394  0.9355
  120OSM   H13C12610   3.800   1.413   6.457 -1.1198 -1.3503 -0.0297
  120OSM    C1212611   3.632   1.190   6.535  0.2581  0.1533  0.2713
  120OSM   H12A12612   3.577   1.274   6.497  0.1003  0.2966  0.8021
  120OSM   H12B12613   3.575   1.133   6.607  1.5330 -0.0291  1.1876
  120OSM    C1112614   3.665   1.087   6.419  0.5055  0.2266 -0.6841
  120OSM   H11A12615   3.730   1.007   6.461 -0.9533  0.2441  1.8105
  120OSM   H11B12616   3.730   1.136   6.344  2.5419  0.2220  0.9951
  120OSM      P12617   3.469   0.910   6.408  0.2845  0.1997 -0.0890
  120OSM    O1312618   3.329   0.910   6.351  0.2052 -0.5670 -0.0624
  120OSM    O1412619   3.546   0.790   6.365 -0.0766 -0.0377 -0.0663
  120OSM    O1112620   3.469   0.929   6.568  0.1140 -0.2847  0.0660
  120OSM    O1212621   3.546   1.032   6.351 -0.0770 -0.0397 -0.1144
  120OSM    C1S12622   3.567   0.862   6.648 -0.4760 -0.2903  0.1909
  120OSM    H1S12623   3.654   0.930   6.656 -1.2827  0.5449  2.3757
  120OSM    H1T12624   3.604   0.764   6.608 -0.0404 -0.7774  1.7318
  120OSM     NF12625   3.618   0.804   6.872 -0.0895 -0.5490 -0.8473
  120OSM    HNF12626   3.655   0.711   6.864 -0.9840 -1.0472  0.3965
  120OSM    C2S12627   3.509   0.837   6.790  0.1492  0.3766 -0.0363
  120OSM    H2S12628   3.463   0.933   6.824 -0.5320 -0.1666  0.5942
  120OSM    C3S12629   3.404   0.730   6.779 -0.2828 -0.0721  0.0573
  120OSM    H3S12630   3.453   0.639   6.739 -0.7246  0.3674 -1.5792
  120OSM     O312631   3.301   0.758   6.683  0.0454 -0.3508 -0.4556
  120OSM    HO312632   3.329   0.832   6.629 -2.1868  1.6558  0.9307
  120OSM    C4S12633   3.352   0.703   6.913  0.4742  0.0087  0.4126
  120OSM    H4S12634   3.295   0.789   6.953  0.9587  0.3005  0.4870
  120OSM    C5S12635   3.355   0.593   6.985 -0.5379  0.4566 -0.0345
  120OSM    H5S12636   3.418   0.508   6.955  1.6479  0.4097  3.9927
  120OSM    C6S12637   3.308   0.577   7.126  0.0176  0.5221  0.0555
  120OSM    H6S12638   3.220   0.509   7.123 -1.0642  1.7287  1.9448
  120OSM    H6T12639   3.272   0.672   7.172 -1.8641  0.1719 -0.6136
  120OSM    C7S12640   3.426   0.536   7.215  0.7553 -0.7274 -0.2829
  120OSM    H7S12641   3.490   0.626   7.223 -0.0111 -0.2418  0.4677
  120OSM    H7T12642   3.485   0.448   7.182  0.7561 -0.1175 -2.0102
  120OSM    C8S12643   3.383   0.502   7.352  0.0648 -0.3354  0.5757
  120OSM    H8S12644   3.337   0.401   7.350  0.7957 -0.6612 -0.7460
  120OSM    H8T12645   3.303   0.570   7.390 -0.0372 -0.4796  0.6196
  120OSM    C9S12646   3.495   0.501   7.456  0.0213 -1.0463  0.4275
  120OSM    H9S12647   3.551   0.597   7.461  1.3541 -1.8154  0.8163
  120OSM    H9T12648   3.558   0.415   7.425 -1.4660 -1.8341 -0.5279
  120OSM   C10S12649   3.429   0.482   7.594 -0.6162 -0.3579 -0.3777
  120OSM   H10S12650   3.348   0.406   7.592  0.1645 -1.2269  0.4121
  120OSM   H10T12651   3.397   0.585   7.622  0.5871 -0.0376 -0.1047
  120OSM   C11S12652   3.538   0.464   7.700 -0.4399 -0.5545  0.3904
  120OSM   H11S12653   3.623   0.535   7.696  0.2795 -1.3711  0.6447
  120OSM   H11T12654   3.589   0.369   7.672  1.8036  0.8885 -0.6611
  120OSM   C12S12655   3.482   0.467   7.842  0.3555 -0.3664  0.5033
  120OSM   H12S12656   3.383   0.418   7.844  0.1101  0.1034  0.0847
  120OSM   H12T12657   3.455   0.571   7.871  0.8222 -0.2086  0.3799
  120OSM   C13S12658   3.573   0.419   7.956  0.4186  0.0935 -0.2903
  120OSM   H13S12659   3.677   0.429   7.918  1.0229  0.5618  1.3827
  120OSM   H13T12660   3.545   0.317   7.989  1.6564  0.1270  0.9849
  120OSM   C14S12661   3.560   0.509   8.080 -0.2096  0.4695  0.2322
  120OSM   H14S12662   3.594   0.455   8.171  1.5539 -1.4921 -1.4758
  120OSM   H14T12663   3.456   0.540   8.103  0.3619  1.2307  1.9719
  120OSM   C15S12664   3.634   0.646   8.054 -0.2449 -0.0713 -0.2678
  120OSM   H15S12665   3.603   0.686   7.955  2.8271 -0.3185 -1.4613
  120OSM   H15T12666   3.743   0.624   8.055  0.1616  1.7125  1.0503
  120OSM   C16S12667   3.624   0.746   8.170 -0.1759 -0.0340 -0.0651
  120OSM   H16S12668   3.691   0.717   8.254  0.9776  0.6724 -0.7292
  120OSM   H16T12669   3.523   0.748   8.217 -0.8880 -4.6454 -0.8769
  120OSM   C17S12670   3.664   0.887   8.127  0.5728 -0.0417  0.0373
  120OSM   H17S12671   3.623   0.893   8.023  0.8079 -1.3679 -0.1462
  120OSM   H17T12672   3.773   0.882   8.107  0.4150 -1.0919 -0.6433
  120OSM   C18S12673   3.625   1.007   8.219 -0.0934  0.2226  0.2225
  120OSM   H18S12674   3.521   1.006   8.258 -0.5852  1.4252 -0.9845
  120OSM   H18T12675   3.651   1.104   8.171 -1.7169 -0.2788 -1.7904
  120OSM   H18U12676   3.693   1.000   8.307  0.1925  0.5133  0.0293
  120OSM    C1F12677   3.694   0.894   6.933 -0.5325 -0.4273 -1.1280
  120OSM     OF12678   3.693   1.011   6.894  0.1891 -0.3157 -0.3490
  120OSM    C2F12679   3.795   0.853   7.042  0.2048  0.1239  0.2444
  120OSM    H2F12680   3.896   0.874   6.999  1.3767 -1.6731  1.9390
  120OSM    H2G12681   3.784   0.742   7.045 -1.0721  0.0859 -2.5537
  120OSM    C3F12682   3.767   0.923   7.179 -0.7416 -0.6923 -0.0597
  120OSM    H3F12683   3.659   0.931   7.206 -0.7449 -0.7820 -0.0458
  120OSM    H3G12684   3.812   1.025   7.171 -0.1129 -1.0135 -0.6330
  120OSM    C4F12685   3.850   0.857   7.294  0.1958 -0.5606  0.2083
  120OSM    H4F12686   3.959   0.852   7.273 -0.0027  0.9330 -1.4810
  120OSM    H4G12687   3.825   0.749   7.301 -1.4766 -0.3033 -0.9496
  120OSM    C5F12688   3.827   0.926   7.429 -0.0516  0.2674 -0.0004
  120OSM    H5F12689   3.718   0.907   7.446 -0.5373  2.7166 -0.0361
  120OSM    H5G12690   3.846   1.033   7.408 -0.4857  0.2042 -0.7289
  120OSM    C6F12691   3.914   0.879   7.541  0.6365 -0.0204  0.0371
  120OSM    H6F12692   4.017   0.886   7.500  0.7016 -3.4667 -0.6262
  120OSM    H6G12693   3.889   0.771   7.547  0.5570 -0.2078 -2.7281
  120OSM    C7F12694   3.900   0.953   7.666  0.1688  0.6629  0.1864
  120OSM    H7F12695   3.964   1.043   7.670  1.9534 -0.5406 -0.3877
  120OSM    H7G12696   3.925   0.873   7.739  0.0414 -1.1328 -1.6686
  120OSM    C8F12697   3.758   1.000   7.708 -0.6287  0.0107  0.0356
  120OSM    H8F12698   3.686   0.916   7.716 -0.5379  0.0050  0.8164
  120OSM    H8G12699   3.722   1.065   7.625 -2.2426 -2.2528 -1.1535
  120OSM    C9F12700   3.748   1.084   7.838  0.0280 -0.1194  0.8869
  120OSM    H9F12701   3.838   1.105   7.896  0.1264  3.3348 -0.3210
  120OSM   C10F12702   3.640   1.154   7.878  0.0372  0.0709  0.3196
  120OSM   H10F12703   3.642   1.200   7.977 -0.5025  1.1333 -0.1511
  120OSM   C11F12704   3.505   1.168   7.807  0.2386  0.4554  0.3201
  120OSM   H11F12705   3.430   1.107   7.861 -0.6347  0.3223 -1.0057
  120OSM   H11G12706   3.492   1.139   7.701  0.2828 -3.3551  1.2376
  120OSM   C12F12707   3.454   1.319   7.806  0.1884  0.2412  0.2902
  120OSM   H12F12708   3.527   1.368   7.737 -0.4865  1.0163  0.1092
  120OSM   H12G12709   3.477   1.361   7.907  1.1710 -0.8783  0.5624
  120OSM   C13F12710   3.315   1.352   7.758 -1.2020 -0.1969 -0.2011
  120OSM   H13F12711   3.242   1.293   7.818  0.5521 -0.5672  1.6508
  120OSM   H13G12712   3.297   1.321   7.653 -3.2824  2.5336 -0.7814
  120OSM   C14F12713   3.280   1.500   7.770  0.0885  0.3011 -0.0877
  120OSM   H14F12714   3.226   1.540   7.681 -0.3906 -2.4996 -1.1926
  120OSM   H14G12715   3.380   1.549   7.769  0.2325  0.0153 -0.5367
  120OSM   C15F12716   3.192   1.521   7.887  0.3358  0.1009 -0.7174
  120OSM   H15F12717   3.097   1.464   7.877  0.0082  0.2059  1.2854
  120OSM   H15G12718   3.171   1.630   7.893  1.3414  0.2329  3.1245
  120OSM   C16F12719   3.255   1.478   8.026 -0.2875  0.2254  0.3746
  120OSM   H16F12720   3.355   1.522   8.045  0.1726 -0.3872 -0.5466
  120OSM   H16G12721   3.268   1.368   8.041 -2.1379 -0.0613  0.1812
  120OSM   C17F12722   3.176   1.508   8.151  0.5686  0.0277 -0.2738
  120OSM   H17F12723   3.163   1.618   8.162 -0.3030 -0.0375 -0.5426
  120OSM   H17G12724   3.236   1.473   8.237 -0.0349  0.6453  0.4156
  120OSM   C18F12725   3.040   1.438   8.139 -0.4561 -0.2098 -0.1732
  120OSM   H18F12726   2.970   1.474   8.217 -1.2612  1.1667 -1.4902
  120OSM   H18G12727   3.056   1.329   8.158 -1.1343 -0.1490  0.8642
  120OSM   H18H12728   2.983   1.451   8.045 -1.8879 -0.5645  0.6039
  121OSM      N12729   5.865   2.376   5.898  0.5475 -0.9261 -0.1748
  121OSM    C1512730   6.006   2.389   5.859  0.6010 -0.2248  0.6034
  121OSM   H15A12731   6.054   2.438   5.942 -1.7503  0.7155  1.4898
  121OSM   H15B12732   6.017   2.439   5.764  0.7545  0.2682  0.8793
  121OSM   H15C12733   6.046   2.289   5.851 -2.5765 -1.5082 -1.6673
  121OSM    C1412734   5.790   2.276   5.818 -0.0310 -0.6438 -0.3149
  121OSM   H14A12735   5.790   2.302   5.713  0.1382  0.0435 -0.1500
  121OSM   H14B12736   5.690   2.252   5.851 -0.7363 -0.5475 -2.2235
  121OSM   H14C12737   5.837   2.180   5.826 -0.2231 -0.8679 -1.6779
  121OSM    C1312738   5.872   2.328   6.041 -0.8816 -0.0492  0.7885
  121OSM   H13A12739   5.774   2.298   6.076 -1.5383 -1.4248 -1.9360
  121OSM   H13B12740   5.910   2.400   6.111  0.4729 -0.1635  0.1868
  121OSM   H13C12741   5.937   2.242   6.053  0.4639  0.9724  0.9478
  121OSM    C1212742   5.811   2.512   5.901  0.6650  0.1428  0.1869
  121OSM   H12A12743   5.793   2.530   5.796 -2.1436  1.9846  0.8748
  121OSM   H12B12744   5.885   2.576   5.946  0.1440  0.3315  0.7862
  121OSM    C1112745   5.679   2.536   5.980  0.2610  0.5202  0.2885
  121OSM   H11A12746   5.646   2.642   5.971 -0.2663  0.5367  2.0590
  121OSM   H11B12747   5.704   2.535   6.088 -1.8611 -1.3397  0.8382
  121OSM      P12748   5.486   2.373   6.059 -0.4508 -0.0143 -0.0482
  121OSM    O1312749   5.378   2.301   5.994 -0.6517  0.0778  0.5615
  121OSM    O1412750   5.576   2.302   6.155  0.0650  0.2475  0.1642
  121OSM    O1112751   5.426   2.502   6.125 -0.1912 -0.9056 -0.3901
  121OSM    O1212752   5.579   2.440   5.953  0.1840 -0.5637  0.1779
  121OSM    C1S12753   5.330   2.493   6.226  0.2569  0.1066  0.1876
  121OSM    H1S12754   5.243   2.427   6.205 -1.9299  2.6155  0.8299
  121OSM    H1T12755   5.271   2.587   6.230  0.3013  0.3355 -2.4123
  121OSM     NF12756   5.291   2.447   6.464 -0.5647  0.2355 -0.1363
  121OSM    HNF12757   5.242   2.517   6.516 -0.4662 -0.6247  1.1879
  121OSM    C2S12758   5.395   2.483   6.371  0.1296 -0.1950 -0.4347
  121OSM    H2S12759   5.472   2.404   6.378  0.1176 -0.1365  0.3627
  121OSM    C3S12760   5.468   2.618   6.408 -0.3491 -0.4939  0.0653
  121OSM    H3S12761   5.393   2.700   6.395  1.5756  1.6887  1.7478
  121OSM     O312762   5.572   2.665   6.325  0.6804  0.0993 -0.6147
  121OSM    HO312763   5.566   2.616   6.243 -0.2728  1.8658 -1.6657
  121OSM    C4S12764   5.518   2.603   6.545  0.0931  0.1479 -0.0183
  121OSM    H4S12765   5.550   2.501   6.571  0.1382 -0.5611 -2.5315
  121OSM    C5S12766   5.523   2.699   6.642  0.2191  0.9062 -0.1271
  121OSM    H5S12767   5.509   2.806   6.622  0.5477  1.0342  0.3194
  121OSM    C6S12768   5.558   2.685   6.784  0.0113  0.1130 -0.0498
  121OSM    H6S12769   5.475   2.633   6.838  0.3295 -1.5035 -1.0506
  121OSM    H6T12770   5.567   2.788   6.824 -2.6376  0.7332 -0.8566
  121OSM    C7S12771   5.689   2.608   6.813 -0.0845  0.4692  0.7115
  121OSM    H7S12772   5.779   2.672   6.806  0.9392 -1.0527 -0.9067
  121OSM    H7T12773   5.706   2.535   6.731 -0.8409 -0.1104  1.0543
  121OSM    C8S12774   5.688   2.526   6.943  0.3161  0.7531 -0.5067
  121OSM    H8S12775   5.790   2.485   6.960 -1.0445 -2.4489  0.6872
  121OSM    H8T12776   5.615   2.443   6.933 -0.6939  1.2132  2.1884
  121OSM    C9S12777   5.643   2.605   7.067  0.2181 -0.7429 -0.7722
  121OSM    H9S12778   5.540   2.646   7.058 -0.0706 -1.0375  0.9377
  121OSM    H9T12779   5.707   2.696   7.073  0.5453 -1.0020 -0.2796
  121OSM   C10S12780   5.671   2.536   7.200 -0.0150  0.1116 -0.7335
  121OSM   H10S12781   5.773   2.492   7.204 -0.3485 -0.8984 -2.5053
  121OSM   H10T12782   5.596   2.454   7.209 -0.4260  0.3526 -1.8708
  121OSM   C11S12783   5.666   2.639   7.320 -1.3538  0.5333 -0.7601
  121OSM   H11S12784   5.761   2.694   7.335 -0.6796 -0.7434 -0.2378
  121OSM   H11T12785   5.651   2.575   7.410 -1.7063 -0.1761 -1.3071
  121OSM   C12S12786   5.548   2.735   7.316  0.3023  0.1803 -0.2402
  121OSM   H12S12787   5.455   2.683   7.287 -1.5536  2.1697  1.6941
  121OSM   H12T12788   5.564   2.809   7.234 -2.1758 -0.9038 -1.8117
  121OSM   C13S12789   5.517   2.797   7.453  0.0182  0.7734  1.0780
  121OSM   H13S12790   5.439   2.875   7.438 -3.1924 -2.1183  1.6245
  121OSM   H13T12791   5.612   2.835   7.497  1.1974  0.4118 -1.0063
  121OSM   C14S12792   5.449   2.709   7.560 -0.1032  0.2842  0.4688
  121OSM   H14S12793   5.521   2.629   7.589 -2.0423 -2.2717 -1.2925
  121OSM   H14T12794   5.365   2.658   7.509  1.2657 -1.9661  0.3412
  121OSM   C15S12795   5.398   2.789   7.683  0.1571 -0.0166 -1.0663
  121OSM   H15S12796   5.364   2.889   7.650 -1.1334 -0.0598  0.0386
  121OSM   H15T12797   5.488   2.795   7.748 -1.4754 -4.6532  2.1721
  121OSM   C16S12798   5.284   2.723   7.748 -0.1534  0.0987 -0.9644
  121OSM   H16S12799   5.315   2.622   7.782  0.5343 -0.1930 -2.3585
  121OSM   H16T12800   5.196   2.697   7.684  0.5961  0.2627 -2.0932
  121OSM   C17S12801   5.242   2.806   7.863  0.2411  0.1559  0.0795
  121OSM   H17S12802   5.184   2.897   7.837 -0.6209 -0.1625  0.8203
  121OSM   H17T12803   5.335   2.851   7.904  0.4968  1.0214 -1.3996
  121OSM   C18S12804   5.164   2.728   7.967 -0.0754 -0.5699 -0.4681
  121OSM   H18S12805   5.061   2.698   7.940 -0.6771  0.0430  1.0031
  121OSM   H18T12806   5.143   2.800   8.049 -1.2993 -1.8632  0.4150
  121OSM   H18U12807   5.231   2.656   8.019 -0.8748  0.0491  1.5157
  121OSM    C1F12808   5.253   2.320   6.481  0.1838 -0.6979  0.0871
  121OSM     OF12809   5.318   2.233   6.424 -0.0777  0.2553  0.2487
  121OSM    C2F12810   5.142   2.280   6.574  0.5601 -0.1117  0.0968
  121OSM    H2F12811   5.051   2.267   6.511  0.6613 -0.4797  0.0200
  121OSM    H2G12812   5.120   2.364   6.643  0.8394  1.8856 -2.1330
  121OSM    C3F12813   5.176   2.149   6.634  0.1562  0.0124 -0.4109
  121OSM    H3F12814   5.277   2.168   6.677  1.2806 -0.4700 -2.6571
  121OSM    H3G12815   5.183   2.069   6.557  1.2615 -0.8474  0.5541
  121OSM    C4F12816   5.083   2.115   6.749 -0.4229 -0.0242  0.4579
  121OSM    H4F12817   5.113   2.020   6.797  0.1521 -0.1389 -0.1233
  121OSM    H4G12818   4.985   2.083   6.707 -0.1580  0.0742 -0.2603
  121OSM    C5F12819   5.076   2.211   6.867 -0.1491 -0.5148  0.5288
  121OSM    H5F12820   5.030   2.308   6.838  1.3055  0.1712  0.3937
  121OSM    H5G12821   5.183   2.230   6.891  0.5779 -1.6345 -1.5520
  121OSM    C6F12822   4.999   2.158   6.985  0.3005 -0.5382  0.0877
  121OSM    H6F12823   5.027   2.054   7.014 -1.5343 -1.1424 -0.2225
  121OSM    H6G12824   4.890   2.162   6.965 -0.1181  1.3446  2.3156
  121OSM    C7F12825   5.019   2.249   7.102 -1.0637 -0.5403  0.2204
  121OSM    H7F12826   4.955   2.215   7.186 -1.5618  1.3449  0.6485
  121OSM    H7G12827   4.979   2.351   7.085 -1.5093 -0.8895 -0.9252
  121OSM    C8F12828   5.164   2.263   7.159  0.5112 -0.0321  0.1727
  121OSM    H8F12829   5.169   2.342   7.238 -2.2133  0.8890 -0.4819
  121OSM    H8G12830   5.238   2.306   7.089 -0.3138  1.0744 -0.0519
  121OSM    C9F12831   5.207   2.134   7.216 -0.0231  0.1129  0.6047
  121OSM    H9F12832   5.200   2.051   7.144  0.5473  0.4609  0.1351
  121OSM   C10F12833   5.249   2.104   7.340  0.5758 -0.1936 -0.3951
  121OSM   H10F12834   5.264   2.000   7.374  0.3266  0.2807  1.2018
  121OSM   C11F12835   5.265   2.206   7.461 -0.3324  0.3892 -0.1076
  121OSM   H11F12836   5.280   2.311   7.428  0.8530  1.0238  2.2277
  121OSM   H11G12837   5.357   2.186   7.520 -1.0373  0.8370  1.1905
  121OSM   C12F12838   5.149   2.189   7.566  0.5047  0.8944  0.4450
  121OSM   H12F12839   5.140   2.082   7.594 -1.5773 -0.0010 -3.0171
  121OSM   H12G12840   5.050   2.220   7.526  0.4718  0.0907 -0.1346
  121OSM   C13F12841   5.165   2.271   7.691 -0.0161 -0.1178  0.1272
  121OSM   H13F12842   5.194   2.374   7.662 -0.5237  0.4963  1.7165
  121OSM   H13G12843   5.240   2.220   7.756 -2.1910 -1.6452  1.5563
  121OSM   C14F12844   5.035   2.277   7.775 -0.0796  0.2768  0.8264
  121OSM   H14F12845   5.007   2.174   7.805  0.9090  0.1060  1.1866
  121OSM   H14G12846   4.944   2.302   7.716 -0.3805 -1.5808  0.4576
  121OSM   C15F12847   5.030   2.360   7.899  0.8172 -0.0341  0.2611
  121OSM   H15F12848   4.924   2.390   7.914  0.7334  1.0631 -1.9967
  121OSM   H15G12849   5.090   2.452   7.878  0.0132  0.7406  1.2599
  121OSM   C16F12850   5.084   2.291   8.022 -0.1668  0.2430  0.0993
  121OSM   H16F12851   5.188   2.266   7.991 -1.2032 -0.3089 -3.3465
  121OSM   H16G12852   5.039   2.190   8.021  0.5960 -0.1148 -1.4498
  121OSM   C17F12853   5.077   2.365   8.164  0.0896  0.0062  0.1313
  121OSM   H17F12854   4.974   2.391   8.196  0.0206  0.9502 -0.7804
  121OSM   H17G12855   5.118   2.465   8.136 -1.1084 -0.1504 -2.5606
  121OSM   C18F12856   5.148   2.284   8.265 -0.2660  0.2534 -0.1214
  121OSM   H18F12857   5.104   2.183   8.279  0.0120  0.2574  0.9187
  121OSM   H18G12858   5.163   2.326   8.367 -0.0218 -2.4602  1.0268
  121OSM   H18H12859   5.249   2.266   8.223  0.7780  0.2309  2.1960
  122OSM      N12860   5.937   4.328   5.721  0.0757  1.0909 -0.0717
  122OSM    C1512861   5.796   4.366   5.712 -0.4880  0.1530 -0.4864
  122OSM   H15A12862   5.792   4.470   5.744  0.6399 -0.7601  3.2141
  122OSM   H15B12863   5.728   4.300   5.764 -0.8828 -0.3851 -1.6664
  122OSM   H15C12864   5.765   4.359   5.609  0.9087 -0.3198 -0.8921
  122OSM    C1412865   5.961   4.191   5.661 -0.0731 -0.1932 -0.4581
  122OSM   H14A12866   5.933   4.119   5.737  0.9985 -1.5664 -1.3015
  122OSM   H14B12867   6.064   4.168   5.642  0.7945  1.2453  2.0037
  122OSM   H14C12868   5.908   4.180   5.567 -1.3446  4.4771 -0.5258
  122OSM    C1312869   6.025   4.422   5.655  0.8355 -0.2679  0.1668
  122OSM   H13A12870   6.011   4.421   5.548  1.3350  2.2697  0.0078
  122OSM   H13B12871   6.130   4.407   5.678  1.2877  2.0307 -0.1728
  122OSM   H13C12872   6.003   4.522   5.689 -1.5602 -1.2095  1.6262
  122OSM    C1212873   5.977   4.322   5.870  0.2046  0.2414 -0.0353
  122OSM   H12A12874   5.972   4.426   5.898  1.6174 -0.1988  2.0779
  122OSM   H12B12875   6.078   4.286   5.888 -0.7052 -2.5873 -0.0446
  122OSM    C1112876   5.889   4.233   5.963  0.1270 -0.3962 -0.3519
  122OSM   H11A12877   5.784   4.268   5.960  0.0815 -0.0768  2.4512
  122OSM   H11B12878   5.922   4.252   6.067  0.4478  0.1108 -0.5422
  122OSM      P12879   6.009   4.002   5.973 -0.0526 -0.5148 -0.0876
  122OSM    O1312880   5.983   3.874   5.903 -0.3213 -0.1772 -0.0174
  122OSM    O1412881   6.141   4.069   5.964  0.0986  0.2606 -0.5279
  122OSM    O1112882   5.974   3.995   6.132 -0.0384 -0.9593 -0.8842
  122OSM    O1212883   5.897   4.097   5.927 -0.0650 -0.4173 -0.0264
  122OSM    C1S12884   6.061   3.898   6.202 -0.4691 -1.2600  0.4333
  122OSM    H1S12885   6.164   3.939   6.194 -0.9779  0.8069  2.9727
  122OSM    H1T12886   6.046   3.802   6.149  0.9512 -0.3666 -1.7080
  122OSM     NF12887   6.130   3.842   6.434 -0.2181  0.1313  0.4012
  122OSM    HNF12888   6.113   3.762   6.490 -2.5454 -0.3900 -0.8956
  122OSM    C2S12889   6.020   3.891   6.351 -0.2895  0.3410  0.4142
  122OSM    H2S12890   6.006   3.996   6.385  0.3244  0.9052 -0.9927
  122OSM    C3S12891   5.889   3.795   6.362 -0.6356 -0.8121 -0.4133
  122OSM    H3S12892   5.918   3.692   6.334  2.5857 -0.3821  0.8643
  122OSM     O312893   5.790   3.829   6.262 -0.6830 -0.1894  0.3853
  122OSM    HO312894   5.835   3.900   6.216  2.4378 -1.5364  1.1406
  122OSM    C4S12895   5.830   3.800   6.499 -0.1910 -0.2732  0.2047
  122OSM    H4S12896   5.898   3.741   6.563  1.0987  1.4251  0.4814
  122OSM    C5S12897   5.716   3.853   6.552  0.4175 -0.2534  0.4387
  122OSM    H5S12898   5.653   3.923   6.496  1.7547  0.1438 -0.6456
  122OSM    C6S12899   5.673   3.820   6.690 -0.2274 -0.3710  0.0195
  122OSM    H6S12900   5.754   3.763   6.740 -0.9321  0.0915  1.7524
  122OSM    H6T12901   5.578   3.764   6.697 -0.1376 -0.5850 -0.4126
  122OSM    C7S12902   5.659   3.961   6.757  0.5061  0.7839  0.3643
  122OSM    H7S12903   5.576   4.020   6.712 -1.8136 -1.1835  1.8170
  122OSM    H7T12904   5.746   4.029   6.748  1.9308 -1.1827 -2.1788
  122OSM    C8S12905   5.610   3.955   6.899 -0.2498  0.2777  0.7356
  122OSM    H8S12906   5.659   3.867   6.948 -0.8381  0.3178  1.4248
  122OSM    H8T12907   5.500   3.943   6.891 -0.3606  1.9717 -0.8137
  122OSM    C9S12908   5.638   4.083   6.980  0.3018  0.1692 -0.1034
  122OSM    H9S12909   5.598   4.170   6.923 -0.8817 -0.7974 -0.8104
  122OSM    H9T12910   5.747   4.088   6.999  0.3574  1.2747 -0.6500
  122OSM   C10S12911   5.551   4.078   7.119  0.4711 -0.0145  0.8843
  122OSM   H10S12912   5.576   3.995   7.189  1.7005  0.5743  1.1837
  122OSM   H10T12913   5.444   4.081   7.091  0.2228  0.1003  1.8238
  122OSM   C11S12914   5.585   4.203   7.203  0.2276 -0.0522  0.7597
  122OSM   H11S12915   5.552   4.294   7.148  0.1113 -0.4419  0.1819
  122OSM   H11T12916   5.696   4.212   7.203  0.3574  1.1094 -3.8410
  122OSM   C12S12917   5.523   4.193   7.343 -0.1338  0.0693 -0.0421
  122OSM   H12S12918   5.553   4.278   7.408 -0.1258  2.2232 -2.6796
  122OSM   H12T12919   5.548   4.098   7.395 -0.2037  0.7356  1.2418
  122OSM   C13S12920   5.367   4.200   7.330 -0.0593  0.3323 -0.1618
  122OSM   H13S12921   5.322   4.101   7.308 -2.8365  1.2237  0.9794
  122OSM   H13T12922   5.329   4.268   7.250  0.1821 -1.0493 -1.5103
  122OSM   C14S12923   5.303   4.250   7.460 -0.3645 -0.5318  0.1372
  122OSM   H14S12924   5.199   4.215   7.448 -0.2824 -0.7948  0.1883
  122OSM   H14T12925   5.295   4.361   7.454  1.8757 -0.3022  0.1793
  122OSM   C15S12926   5.357   4.197   7.590 -0.2168 -0.3851 -0.3136
  122OSM   H15S12927   5.455   4.243   7.613 -0.1065 -0.1549 -1.2089
  122OSM   H15T12928   5.388   4.091   7.581  0.7460 -0.1524  0.1231
  122OSM   C16S12929   5.256   4.221   7.706 -0.0766  0.0203  0.7983
  122OSM   H16S12930   5.217   4.324   7.705  2.3763  1.0654 -1.8800
  122OSM   H16T12931   5.322   4.218   7.796 -1.0995 -0.3632  1.5614
  122OSM   C17S12932   5.144   4.120   7.714 -0.3820 -0.7956  0.0804
  122OSM   H17S12933   5.182   4.019   7.738 -0.2027 -0.8703 -0.5088
  122OSM   H17T12934   5.111   4.101   7.609 -0.6058  1.4023 -0.3160
  122OSM   C18S12935   5.025   4.161   7.803 -0.9493 -0.7302 -1.0168
  122OSM   H18S12936   4.994   4.265   7.782 -0.6330 -0.8062 -1.8843
  122OSM   H18T12937   5.061   4.163   7.908 -0.7266 -3.1578 -0.9803
  122OSM   H18U12938   4.933   4.101   7.785 -0.3076 -1.6656 -1.2380
  122OSM    C1F12939   6.247   3.911   6.441 -0.2742 -0.4875  0.2069
  122OSM     OF12940   6.254   4.031   6.405 -0.0866 -0.0178 -0.0051
  122OSM    C2F12941   6.371   3.841   6.495 -0.1822 -0.0564 -0.6818
  122OSM    H2F12942   6.428   3.801   6.408 -0.7040 -0.1971 -0.9655
  122OSM    H2G12943   6.350   3.754   6.561  1.6952  1.6217  2.3811
  122OSM    C3F12944   6.469   3.944   6.568 -0.3201 -0.0630 -0.5698
  122OSM    H3F12945   6.423   4.025   6.629  0.0901  0.7883 -1.3623
  122OSM    H3G12946   6.522   3.995   6.484  2.9060 -0.9775  0.7391
  122OSM    C4F12947   6.589   3.877   6.639  0.4944 -0.4788 -0.2394
  122OSM    H4F12948   6.630   3.790   6.584 -0.4763 -0.5609 -0.8645
  122OSM    H4G12949   6.548   3.838   6.735  2.0536  0.0234  0.6683
  122OSM    C5F12950   6.703   3.976   6.662 -0.1570 -0.2078  0.5638
  122OSM    H5F12951   6.665   4.065   6.716  1.8947  1.6685 -0.9002
  122OSM    H5G12952   6.731   4.003   6.558 -0.7780  1.7262  0.8635
  122OSM    C6F12953   6.818   3.920   6.749 -0.7078  0.2704  0.3530
  122OSM    H6F12954   6.867   3.846   6.682 -1.0999  1.0876 -0.8810
  122OSM    H6G12955   6.776   3.862   6.834 -2.0957 -1.5733 -1.5021
  122OSM    C7F12956   6.911   4.031   6.786  0.0096  0.3148  0.6256
  122OSM    H7F12957   6.882   4.124   6.732 -0.8188  0.4460  1.2746
  122OSM    H7G12958   7.016   4.010   6.757 -0.5832  0.4049 -1.7831
  122OSM    C8F12959   6.899   4.069   6.933  0.6797 -0.1696 -0.3131
  122OSM    H8F12960   6.979   4.143   6.957 -0.1712  0.9495 -0.8375
  122OSM    H8G12961   6.914   3.971   6.983  0.4586  0.1906  0.4733
  122OSM    C9F12962   6.767   4.121   6.983  1.4594 -0.1916 -0.0963
  122OSM    H9F12963   6.744   4.216   6.933  0.5520 -0.4170 -0.1176
  122OSM   C10F12964   6.677   4.078   7.071  0.6577 -0.3026 -0.0274
  122OSM   H10F12965   6.585   4.134   7.091  0.3498 -0.9842  0.5232
  122OSM   C11F12966   6.677   3.953   7.156  0.2157 -0.1745  0.7490
  122OSM   H11F12967   6.752   3.877   7.127  1.4340  0.2038  2.7204
  122OSM   H11G12968   6.583   3.897   7.134 -0.3637  1.1428 -0.2704
  122OSM   C12F12969   6.714   3.991   7.301  0.0467 -0.0078 -0.1196
  122OSM   H12F12970   6.663   4.086   7.329 -1.8926 -0.4589 -1.8905
  122OSM   H12G12971   6.823   4.008   7.306  0.0537 -0.0866  0.0114
  122OSM   C13F12972   6.694   3.880   7.411  0.0348  0.4687  0.6601
  122OSM   H13F12973   6.751   3.791   7.377 -0.8422 -0.4137  1.4217
  122OSM   H13G12974   6.585   3.858   7.410 -0.3562  2.1778  1.6746
  122OSM   C14F12975   6.736   3.911   7.559  0.4491  0.5834  0.8251
  122OSM   H14F12976   6.842   3.944   7.569  0.3797  1.1238 -0.0807
  122OSM   H14G12977   6.729   3.816   7.615 -1.4634  0.3846  0.3184
  122OSM   C15F12978   6.662   4.026   7.625  0.1998  0.2098 -0.4106
  122OSM   H15F12979   6.556   4.002   7.650  0.3992  0.4955  0.7879
  122OSM   H15G12980   6.659   4.104   7.546  1.2637  1.6919  0.9329
  122OSM   C16F12981   6.739   4.087   7.743  0.0928 -0.1903 -0.5275
  122OSM   H16F12982   6.839   4.121   7.711  0.5444 -0.8227  0.1921
  122OSM   H16G12983   6.749   4.006   7.818  1.1590 -1.1594 -1.6653
  122OSM   C17F12984   6.683   4.224   7.791 -0.4208  0.2887 -0.3735
  122OSM   H17F12985   6.630   4.282   7.713 -1.9331 -1.1317 -0.4706
  122OSM   H17G12986   6.770   4.284   7.826 -1.4203  3.0422 -2.2637
  122OSM   C18F12987   6.601   4.194   7.922 -0.0426 -0.0942 -0.0442
  122OSM   H18F12988   6.540   4.104   7.903  0.4183 -0.0142 -2.1782
  122OSM   H18G12989   6.545   4.286   7.951  0.9659  1.4274 -2.5718
  122OSM   H18H12990   6.666   4.166   8.008 -0.6364 -0.1373  0.3926
  123OSM      N12991   2.426   0.355   5.986  0.3665 -0.4439  0.5966
  123OSM    C1512992   2.539   0.406   5.897 -0.6491 -0.5105  0.2366
  123OSM   H15A12993   2.562   0.505   5.933  2.5401 -0.4930 -1.5439
  123OSM   H15B12994   2.517   0.406   5.792  1.6142 -0.4012 -0.2751
  123OSM   H15C12995   2.629   0.349   5.915 -0.7879 -0.3938  1.4061
  123OSM    C1412996   2.300   0.398   5.920 -0.7582  0.7834 -0.2041
  123OSM   H14A12997   2.211   0.370   5.975 -1.5305  2.6769 -0.4256
  123OSM   H14B12998   2.292   0.368   5.816  0.6919  0.9206 -0.3666
  123OSM   H14C12999   2.293   0.504   5.902  1.2668  1.0477  0.3174
  123OSM    C1313000   2.420   0.205   5.989 -0.0196  0.0204  0.4274
  123OSM   H13A13001   2.400   0.164   5.891 -2.9718 -3.3624  2.2105
  123OSM   H13B13002   2.343   0.165   6.054 -1.1916  0.4698 -0.6345
  123OSM   H13C13003   2.516   0.173   6.024 -0.1834  0.5254  1.3824
  123OSM    C1213004   2.448   0.407   6.133 -0.0347  0.3945  0.2064
  123OSM   H12A13005   2.453   0.514   6.140 -0.5313  0.7411 -3.0001
  123OSM   H12B13006   2.548   0.375   6.157  0.5595 -0.6597 -3.1001
  123OSM    C1113007   2.353   0.353   6.237  0.2740 -0.8769  0.2967
  123OSM   H11A13008   2.392   0.380   6.338  2.6778  1.7669 -1.1967
  123OSM   H11B13009   2.356   0.242   6.240  1.2748 -0.8542  0.5693
  123OSM      P13010   2.096   0.307   6.232  0.3017 -0.2895 -0.3100
  123OSM    O1313011   1.969   0.380   6.212  0.1045  0.0602  0.2568
  123OSM    O1413012   2.119   0.194   6.147  0.1280  0.2875  0.3033
  123OSM    O1113013   2.105   0.266   6.387  0.5058 -0.4570  0.2782
  123OSM    O1213014   2.223   0.406   6.211  0.3822  0.8530  0.0265
  123OSM    C1S13015   2.096   0.363   6.489  0.5327 -0.0739 -0.5276
  123OSM    H1S13016   1.995   0.408   6.495  0.8253  0.7190 -1.3955
  123OSM    H1T13017   2.164   0.448   6.469 -1.0157  1.4230  0.3832
  123OSM     NF13018   2.121   0.397   6.734  0.3027 -0.4583  0.1319
  123OSM    HNF13019   2.204   0.447   6.755  0.6919 -1.0558  0.0379
  123OSM    C2S13020   2.131   0.300   6.625  0.3760  0.1036 -0.4532
  123OSM    H2S13021   2.049   0.227   6.640 -0.1730  0.4059 -1.7929
  123OSM    C3S13022   2.269   0.225   6.625  0.4888 -0.0253  0.4254
  123OSM    H3S13023   2.354   0.297   6.618 -0.7912  1.4384 -1.2364
  123OSM     O313024   2.287   0.141   6.515 -0.0978  0.0469  0.3322
  123OSM    HO313025   2.218   0.173   6.457 -0.0903  3.1250  1.8208
  123OSM    C4S13026   2.295   0.127   6.750  0.3336 -0.3360  0.5302
  123OSM    H4S13027   2.254   0.026   6.733 -1.5333  0.2611  1.1848
  123OSM    C5S13028   2.371   0.154   6.854 -0.4981 -0.4279  1.0638
  123OSM    H5S13029   2.432   0.245   6.859 -3.0009  1.4385 -0.2567
  123OSM    C6S13030   2.390   0.053   6.955 -0.3555  0.5743 -0.1890
  123OSM    H6S13031   2.317  -0.030   6.961  2.1451 -1.7809  0.1060
  123OSM    H6T13032   2.397   0.102   7.055 -1.1639  1.2222 -0.4392
  123OSM    C7S13033   2.523  -0.018   6.933  0.2971  0.9708 -0.0717
  123OSM    H7S13034   2.611   0.046   6.954  0.6027  1.1408 -1.6920
  123OSM    H7T13035   2.541  -0.062   6.832 -2.0673  2.1349 -1.0802
  123OSM    C8S13036   2.536  -0.131   7.041  0.1550  0.1896 -0.3746
  123OSM    H8S13037   2.458  -0.208   7.020 -0.5543  0.8746 -0.3004
  123OSM    H8T13038   2.512  -0.082   7.138 -2.4377 -1.9614  0.2180
  123OSM    C9S13039   2.674  -0.208   7.050  0.5378 -0.3925  0.6769
  123OSM    H9S13040   2.741  -0.121   7.069 -0.6213  0.4553  1.0108
  123OSM    H9T13041   2.697  -0.247   6.948  1.7042  0.6959  0.4953
  123OSM   C10S13042   2.691  -0.318   7.152 -0.1078 -0.0709 -0.4623
  123OSM   H10S13043   2.618  -0.401   7.139 -0.5541  0.6790 -3.4111
  123OSM   H10T13044   2.677  -0.276   7.254  0.6851 -0.0170 -0.3645
  123OSM   C11S13045   2.834  -0.378   7.159  0.3458 -0.2651  0.7956
  123OSM   H11S13046   2.905  -0.301   7.196  1.6469 -0.2543 -1.5432
  123OSM   H11T13047   2.864  -0.401   7.055 -0.1138  2.8160 -0.1049
  123OSM   C12S13048   2.838  -0.508   7.244  0.1961  0.1399  0.1468
  123OSM   H12S13049   2.936  -0.558   7.234  0.1963  0.1975 -0.1689
  123OSM   H12T13050   2.756  -0.569   7.199  0.9222  1.4695 -3.3613
  123OSM   C13S13051   2.813  -0.499   7.390 -0.1824 -0.7186 -0.0628
  123OSM   H13S13052   2.721  -0.438   7.396 -1.2054 -2.2882  0.8829
  123OSM   H13T13053   2.893  -0.448   7.449 -1.1634 -0.2128  0.8606
  123OSM   C14S13054   2.798  -0.641   7.452 -0.2830 -0.2539  0.9702
  123OSM   H14S13055   2.859  -0.714   7.395 -0.2444  1.7986 -1.7904
  123OSM   H14T13056   2.692  -0.673   7.455  0.0126 -1.3022  0.6658
  123OSM   C15S13057   2.847  -0.638   7.602 -0.0772  0.0780 -1.0890
  123OSM   H15S13058   2.784  -0.564   7.656  1.5236  0.0915  0.8455
  123OSM   H15T13059   2.955  -0.615   7.610  0.1524 -0.7204 -1.6967
  123OSM   C16S13060   2.824  -0.782   7.663 -0.5906 -0.4830  0.0432
  123OSM   H16S13061   2.897  -0.856   7.623  0.3873  0.2054  0.5066
  123OSM   H16T13062   2.721  -0.810   7.633  0.2820 -0.9840 -2.7763
  123OSM   C17S13063   2.844  -0.768   7.815 -0.2389  0.1103 -0.0566
  123OSM   H17S13064   2.791  -0.672   7.837 -2.6983 -1.3525  0.8357
  123OSM   H17T13065   2.952  -0.756   7.838  0.2591  1.0624 -2.6212
  123OSM   C18S13066   2.772  -0.874   7.899 -0.1775 -0.1086  0.2869
  123OSM   H18S13067   2.817  -0.869   8.000  1.0868 -1.1293 -0.2069
  123OSM   H18T13068   2.783  -0.975   7.854 -1.6610 -1.3941  2.5919
  123OSM   H18U13069   2.664  -0.846   7.893  0.5093  2.7853 -0.5522
  123OSM    C1F13070   2.006   0.459   6.760 -0.3543  0.3238 -0.5499
  123OSM     OF13071   1.895   0.423   6.710 -1.2543  0.3046 -0.4367
  123OSM    C2F13072   2.022   0.576   6.860 -0.2702  0.4133 -0.7803
  123OSM    H2F13073   1.920   0.610   6.887 -0.2995 -0.3405  0.0822
  123OSM    H2G13074   2.077   0.658   6.808 -0.8489 -0.2245 -2.4783
  123OSM    C3F13075   2.088   0.533   6.996 -0.5774 -0.4127 -0.2187
  123OSM    H3F13076   2.103   0.621   7.062 -1.2698 -1.2557  1.1235
  123OSM    H3G13077   2.185   0.484   6.976  0.3028  1.1991  0.0023
  123OSM    C4F13078   2.006   0.437   7.088  0.8839  0.0286 -0.6227
  123OSM    H4F13079   2.080   0.379   7.148  1.7383 -0.0580 -1.7258
  123OSM    H4G13080   1.948   0.369   7.023 -1.1996 -1.0234  2.1102
  123OSM    C5F13081   1.897   0.509   7.177 -0.2435 -0.3591 -0.0888
  123OSM    H5F13082   1.849   0.591   7.120 -1.3641  0.6962  2.2219
  123OSM    H5G13083   1.948   0.554   7.264 -0.5178  0.7328 -0.4799
  123OSM    C6F13084   1.779   0.424   7.241  0.3114 -0.2577  0.4105
  123OSM    H6F13085   1.725   0.363   7.165 -0.2653 -3.3231  3.0664
  123OSM    H6G13086   1.704   0.487   7.293 -0.4612 -0.0363 -0.9259
  123OSM    C7F13087   1.839   0.328   7.349 -0.1752  0.0067  0.0403
  123OSM    H7F13088   1.918   0.383   7.406  0.3729 -0.1520 -0.5536
  123OSM    H7G13089   1.888   0.240   7.302 -0.5066  0.3609 -0.9931
  123OSM    C8F13090   1.731   0.297   7.461 -0.2225 -0.9483  0.0183
  123OSM    H8F13091   1.713   0.392   7.514 -1.4007 -2.3101  2.2252
  123OSM    H8G13092   1.780   0.224   7.529 -1.6424 -0.8671  1.1598
  123OSM    C9F13093   1.599   0.238   7.410 -0.6217  0.0220  0.3377
  123OSM    H9F13094   1.535   0.312   7.359 -1.3917 -1.3419 -0.7284
  123OSM   C10F13095   1.548   0.114   7.430  0.2433  0.4540  0.7832
  123OSM   H10F13096   1.444   0.100   7.398  0.1685  1.7367  0.4335
  123OSM   C11F13097   1.608  -0.003   7.509 -0.2772  0.5219  0.5793
  123OSM   H11F13098   1.673   0.034   7.590 -2.1856  0.0968  2.3990
  123OSM   H11G13099   1.666  -0.070   7.442  0.4624  3.0634 -1.4980
  123OSM   C12F13100   1.495  -0.094   7.557 -0.6842  0.4631  0.3290
  123OSM   H12F13101   1.528  -0.195   7.591 -0.8678  0.8776  1.8432
  123OSM   H12G13102   1.422  -0.099   7.474  1.2819  0.2981 -1.4606
  123OSM   C13F13103   1.437  -0.019   7.680 -0.3117  0.1131  0.1800
  123OSM   H13F13104   1.403   0.081   7.645  0.7158 -0.4546 -2.6591
  123OSM   H13G13105   1.518   0.013   7.749 -0.8788  3.9635 -0.7333
  123OSM   C14F13106   1.322  -0.089   7.754  0.0323 -0.4862  0.2245
  123OSM   H14F13107   1.365  -0.178   7.804  4.3312  1.8239  1.1508
  123OSM   H14G13108   1.249  -0.098   7.670  0.9038  1.9082 -0.8862
  123OSM   C15F13109   1.254   0.003   7.860 -0.0865  0.2013  0.1186
  123OSM   H15F13110   1.156  -0.040   7.891  0.3915  0.1276  1.5793
  123OSM   H15G13111   1.235   0.107   7.826 -0.4210  0.0218 -0.2520
  123OSM   C16F13112   1.341   0.014   7.984 -0.2166  0.4545  0.4359
  123OSM   H16F13113   1.443   0.049   7.958 -0.1840  1.1095  1.3565
  123OSM   H16G13114   1.359  -0.084   8.034 -1.2254  1.5517  3.1286
  123OSM   C17F13115   1.279   0.100   8.100 -0.2177  0.8811 -0.2776
  123OSM   H17F13116   1.170   0.081   8.102 -0.0901  0.1425 -0.3418
  123OSM   H17G13117   1.288   0.209   8.077  0.8156  1.1077  1.0569
  123OSM   C18F13118   1.342   0.081   8.238  0.0898 -0.4488 -0.5451
  123OSM   H18F13119   1.316   0.162   8.309  0.5629 -1.2498  0.5714
  123OSM   H18G13120   1.453   0.082   8.233  0.1463 -1.5110  0.1632
  123OSM   H18H13121   1.305  -0.012   8.286 -1.6583  1.1315  1.3671
  124OSM      N13122   4.078   2.779   5.924 -0.8695 -0.1219 -0.4575
  124OSM    C1513123   4.110   2.629   5.924  0.7672  0.1714  0.7336
  124OSM   H15A13124   4.102   2.585   5.825 -0.1579  2.1225 -0.1201
  124OSM   H15B13125   4.046   2.576   5.992  1.6533 -1.7437  0.1548
  124OSM   H15C13126   4.214   2.621   5.953  0.9003  0.1689  0.2782
  124OSM    C1413127   4.188   2.860   5.850 -0.5491  0.2911 -0.9047
  124OSM   H14A13128   4.188   2.964   5.879 -1.6487  0.1901 -0.4930
  124OSM   H14B13129   4.180   2.854   5.742 -2.7770 -2.1372 -0.7225
  124OSM   H14C13130   4.286   2.829   5.880 -1.8195 -1.7871  1.5023
  124OSM    C1313131   3.945   2.806   5.863  0.0949  0.2569  0.3168
  124OSM   H13A13132   3.929   2.913   5.855 -1.4795  0.1102  1.1516
  124OSM   H13B13133   3.866   2.749   5.910  0.4614 -2.7522 -2.3783
  124OSM   H13C13134   3.932   2.776   5.760  0.6458 -1.7152  0.7995
  124OSM    C1213135   4.071   2.815   6.071 -0.6316 -0.2735 -0.4589
  124OSM   H12A13136   4.055   2.922   6.074  1.3125  0.0472  1.7318
  124OSM   H12B13137   4.164   2.809   6.125 -0.7867  2.3583  0.2489
  124OSM    C1113138   3.972   2.741   6.165 -0.0866 -0.0751  0.0839
  124OSM   H11A13139   4.008   2.754   6.270  0.5885  2.8746 -0.4250
  124OSM   H11B13140   3.994   2.635   6.139  2.0378  0.7869 -1.9666
  124OSM      P13141   3.778   2.911   6.151  0.0642  0.4838 -0.0027
  124OSM    O1313142   3.876   3.019   6.137  0.5386  0.0540  0.1920
  124OSM    O1413143   3.663   2.925   6.065  0.2282  1.1442  0.2631
  124OSM    O1113144   3.723   2.922   6.301 -0.2150 -0.4396  0.0255
  124OSM    O1213145   3.836   2.763   6.140  0.4179 -0.4506  0.2802
  124OSM    C1S13146   3.713   2.808   6.385  0.2059  0.0496  0.5171
  124OSM    H1S13147   3.796   2.734   6.377 -1.3130 -1.5600 -1.3950
  124OSM    H1T13148   3.617   2.753   6.374  0.6910 -0.7064 -0.1305
  124OSM     NF13149   3.722   2.732   6.629  0.5826 -0.3866 -0.4793
  124OSM    HNF13150   3.635   2.698   6.664  0.5140  0.4721  0.2119
  124OSM    C2S13151   3.709   2.847   6.531 -0.4758  0.3646 -0.1009
  124OSM    H2S13152   3.790   2.921   6.551 -2.5928  3.2318 -1.4720
  124OSM    C3S13153   3.579   2.922   6.557 -0.2943 -0.6521 -0.8765
  124OSM    H3S13154   3.491   2.858   6.534 -0.0109 -1.2361 -0.3863
  124OSM     O313155   3.552   3.036   6.476 -0.3029 -0.2349 -0.3221
  124OSM    HO313156   3.628   3.036   6.417  1.2609  1.2124  1.5666
  124OSM    C4S13157   3.564   2.964   6.701 -0.5623  0.6023 -0.7332
  124OSM    H4S13158   3.513   2.891   6.766 -1.2265  1.8500  0.1992
  124OSM    C5S13159   3.578   3.089   6.757  1.0871  0.5702  0.1612
  124OSM    H5S13160   3.621   3.169   6.695 -1.2019  1.7955  0.0836
  124OSM    C6S13161   3.529   3.112   6.902 -0.6835  0.2579  0.1969
  124OSM    H6S13162   3.510   3.220   6.921  0.2362  0.7996 -1.7591
  124OSM    H6T13163   3.620   3.085   6.962  0.5240  0.7063 -1.3707
  124OSM    C7S13164   3.405   3.041   6.954  0.2228  0.5856 -0.2150
  124OSM    H7S13165   3.408   2.931   6.945 -1.9650  0.4793 -0.0559
  124OSM    H7T13166   3.318   3.088   6.903 -1.2895  2.4586  3.6294
  124OSM    C8S13167   3.391   3.058   7.109  0.0090 -0.2527 -0.3456
  124OSM    H8S13168   3.494   3.059   7.150 -1.0027  3.5446  2.7005
  124OSM    H8T13169   3.338   2.966   7.142 -1.2410  0.3084 -0.7174
  124OSM    C9S13170   3.300   3.174   7.145  0.5840  0.1005  0.0460
  124OSM    H9S13171   3.210   3.168   7.081  0.8194 -2.4784 -0.1560
  124OSM    H9T13172   3.343   3.270   7.108 -1.4575  0.7235 -0.8095
  124OSM   C10S13173   3.262   3.191   7.297 -0.4235 -0.2366  0.0866
  124OSM   H10S13174   3.352   3.209   7.360  0.2183  0.1798 -0.9289
  124OSM   H10T13175   3.214   3.094   7.322 -0.4428 -0.9167 -2.3541
  124OSM   C11S13176   3.155   3.301   7.322  0.0365 -0.5992  0.6073
  124OSM   H11S13177   3.068   3.277   7.257 -1.4297  0.4126  2.1220
  124OSM   H11T13178   3.198   3.395   7.283 -0.9713 -0.8503 -1.2185
  124OSM   C12S13179   3.117   3.314   7.472 -0.2346 -0.0179  0.0544
  124OSM   H12S13180   3.106   3.208   7.503  0.1241  0.1237  0.6807
  124OSM   H12T13181   3.033   3.385   7.487  1.9498  2.7455  0.1375
  124OSM   C13S13182   3.227   3.384   7.568  0.1050  0.5218  0.5848
  124OSM   H13S13183   3.259   3.475   7.513  2.3917 -1.1962 -1.1325
  124OSM   H13T13184   3.318   3.320   7.574 -0.2315  0.1630  2.0113
  124OSM   C14S13185   3.179   3.431   7.706 -0.1360  0.0187 -0.2608
  124OSM   H14S13186   3.071   3.457   7.709 -0.0217  0.5439 -0.5582
  124OSM   H14T13187   3.251   3.509   7.738  0.5546 -0.5196 -0.4777
  124OSM   C15S13188   3.195   3.324   7.815  0.3578 -0.2379  0.0133
  124OSM   H15S13189   3.293   3.272   7.813  1.6522  2.0351 -0.4769
  124OSM   H15T13190   3.117   3.253   7.780 -1.1278  1.4813 -0.3264
  124OSM   C16S13191   3.175   3.379   7.962  0.7598  0.4216 -0.1223
  124OSM   H16S13192   3.166   3.292   8.030  3.8299 -0.0405 -0.1724
  124OSM   H16T13193   3.080   3.437   7.964 -0.4025 -1.3412 -1.3337
  124OSM   C17S13194   3.293   3.464   8.021  0.4326 -0.0364  0.3715
  124OSM   H17S13195   3.245   3.560   8.051  0.4753 -0.0171  0.3784
  124OSM   H17T13196   3.362   3.502   7.942 -1.9285  1.5538 -1.0673
  124OSM   C18S13197   3.360   3.408   8.139 -0.1335  0.1536 -0.1791
  124OSM   H18S13198   3.421   3.316   8.125  0.4016 -0.2526  3.8422
  124OSM   H18T13199   3.285   3.375   8.214  0.2485 -0.6322 -0.1278
  124OSM   H18U13200   3.417   3.486   8.193  1.8435 -1.0158 -0.4667
  124OSM    C1F13201   3.836   2.664   6.649  0.7017  0.1941  0.2315
  124OSM     OF13202   3.940   2.686   6.586  0.6549 -0.7141 -0.4826
  124OSM    C2F13203   3.818   2.545   6.736 -0.4551  0.3611 -0.0473
  124OSM    H2F13204   3.797   2.460   6.668  1.6352  0.7430 -1.2415
  124OSM    H2G13205   3.733   2.567   6.805 -0.7096 -0.5200 -0.0601
  124OSM    C3F13206   3.943   2.509   6.821 -0.5705  0.2166  0.1984
  124OSM    H3F13207   3.975   2.601   6.875  1.0335  0.1068 -0.5071
  124OSM    H3G13208   4.027   2.487   6.751 -2.5250 -2.3588 -1.5115
  124OSM    C4F13209   3.920   2.396   6.913 -0.4428  0.5932  0.0017
  124OSM    H4F13210   3.873   2.311   6.858  0.7536 -0.9210  1.2338
  124OSM    H4G13211   3.843   2.423   6.988 -1.1617  0.4484 -0.6650
  124OSM    C5F13212   4.045   2.334   6.972  0.4693 -0.1871 -0.6137
  124OSM    H5F13213   4.074   2.412   7.046 -2.2930  0.9414 -0.5917
  124OSM    H5G13214   4.139   2.324   6.914  0.9832  1.6779 -0.1774
  124OSM    C6F13215   4.013   2.208   7.055  0.3492  0.5084 -0.2786
  124OSM    H6F13216   3.936   2.214   7.135 -0.4727  0.1394 -1.0231
  124OSM    H6G13217   4.103   2.171   7.109  0.7155  1.1827 -0.4217
  124OSM    C7F13218   3.973   2.093   6.958 -0.4158 -0.0627 -0.0331
  124OSM    H7F13219   4.066   2.036   6.940  0.6845  1.7531 -0.3472
  124OSM    H7G13220   3.941   2.135   6.860 -0.3854 -2.0326 -0.9443
  124OSM    C8F13221   3.869   1.996   7.014 -0.4202  0.2020 -0.1817
  124OSM    H8F13222   3.848   1.930   6.927  1.6316 -1.6114  0.6031
  124OSM    H8G13223   3.777   2.047   7.049  0.3763  2.9023 -1.7313
  124OSM    C9F13224   3.929   1.893   7.109  0.1785 -0.0851 -0.2698
  124OSM    H9F13225   3.984   1.814   7.057 -2.2392 -1.6419 -0.5848
  124OSM   C10F13226   3.927   1.901   7.245  0.0043  0.8310  0.0409
  124OSM   H10F13227   3.963   1.817   7.306 -0.5838 -0.0492 -0.8004
  124OSM   C11F13228   3.853   1.992   7.331 -0.0777  0.1080  0.3946
  124OSM   H11F13229   3.767   2.043   7.280  0.5567  1.3381  0.5169
  124OSM   H11G13230   3.921   2.062   7.384  1.8419  1.5716 -3.5967
  124OSM   C12F13231   3.781   1.896   7.423 -0.3458  0.6391  0.4844
  124OSM   H12F13232   3.862   1.851   7.485 -2.1494 -1.3512  1.5179
  124OSM   H12G13233   3.713   1.825   7.370 -1.1391  1.6612  0.1096
  124OSM   C13F13234   3.693   1.974   7.515  0.7123  0.3347 -1.0089
  124OSM   H13F13235   3.614   2.026   7.457  0.7805  0.2534 -1.1762
  124OSM   H13G13236   3.750   2.047   7.577 -0.3729  0.3625 -0.0280
  124OSM   C14F13237   3.613   1.885   7.612  0.1432 -0.8549 -1.1235
  124OSM   H14F13238   3.686   1.843   7.685 -0.1677  1.0903  0.4247
  124OSM   H14G13239   3.571   1.806   7.548 -0.7794  0.1536 -1.7941
  124OSM   C15F13240   3.502   1.962   7.683 -0.0749  0.0510 -0.7988
  124OSM   H15F13241   3.432   2.021   7.620 -0.4374 -0.3233 -0.7497
  124OSM   H15G13242   3.555   2.038   7.744  1.1844 -1.2800 -0.1878
  124OSM   C16F13243   3.434   1.872   7.792  0.0396 -0.0721  0.9640
  124OSM   H16F13244   3.522   1.819   7.833  0.7925  2.0797  2.2933
  124OSM   H16G13245   3.364   1.804   7.738 -0.4136  1.5341 -0.5716
  124OSM   C17F13246   3.355   1.936   7.907 -0.2363  0.4031  0.2895
  124OSM   H17F13247   3.422   1.974   7.987 -1.7250  0.0450  1.7544
  124OSM   H17G13248   3.300   1.853   7.955 -0.4343 -0.1053 -0.7732
  124OSM   C18F13249   3.264   2.045   7.852 -0.1020  0.6435  0.1505
  124OSM   H18F13250   3.322   2.137   7.826  0.9965  0.1743  0.8593
  124OSM   H18G13251   3.200   2.083   7.935 -2.9905  0.5311 -1.8979
  124OSM   H18H13252   3.205   2.003   7.768  0.5144  1.0185 -0.4848
  125OSM      N13253   6.285   0.605   5.772 -0.4336 -0.2877  0.6829
  125OSM    C1513254   6.149   0.587   5.834 -0.2177  0.4497 -0.4413
  125OSM   H15A13255   6.074   0.618   5.762  0.5775 -0.1485 -1.5522
  125OSM   H15B13256   6.133   0.650   5.920 -0.6712  0.2304 -0.3604
  125OSM   H15C13257   6.130   0.485   5.866  1.8529  0.0804 -0.2363
  125OSM    C1413258   6.305   0.503   5.665  0.5141  0.2334  0.1416
  125OSM   H14A13259   6.304   0.405   5.710 -0.8948  0.1320 -0.0670
  125OSM   H14B13260   6.390   0.531   5.604  0.5208 -0.5584 -0.2380
  125OSM   H14C13261   6.226   0.504   5.590  0.4817 -1.3784  0.1179
  125OSM    C1313262   6.281   0.739   5.706  0.2214  0.0659  0.1216
  125OSM   H13A13263   6.372   0.763   5.654 -0.2199  0.8978 -0.2939
  125OSM   H13B13264   6.280   0.813   5.785  2.4179 -0.6671  0.9182
  125OSM   H13C13265   6.200   0.749   5.635  2.6600  1.7273 -2.6670
  125OSM    C1213266   6.393   0.593   5.879  0.1852  0.2010  0.1666
  125OSM   H12A13267   6.489   0.621   5.839 -0.6507  0.8894 -1.4640
  125OSM   H12B13268   6.393   0.486   5.896 -0.5924 -0.0371 -1.1464
  125OSM    C1113269   6.384   0.673   6.003  0.5813  0.2259 -0.1898
  125OSM   H11A13270   6.295   0.654   6.067  2.9860 -0.2449  3.3303
  125OSM   H11B13271   6.384   0.782   5.985 -0.3025  0.0081 -1.7225
  125OSM      P13272   6.634   0.699   6.050 -0.0658  0.3782  0.1842
  125OSM    O1313273   6.744   0.602   6.052  0.4587 -0.3494 -0.7613
  125OSM    O1413274   6.625   0.772   5.920 -0.1085 -0.1053  0.0200
  125OSM    O1113275   6.649   0.798   6.173 -0.7328 -0.4721 -0.1028
  125OSM    O1213276   6.489   0.628   6.081 -0.5194  0.1984 -0.0620
  125OSM    C1S13277   6.646   0.750   6.309 -0.1595 -0.2088 -0.0273
  125OSM    H1S13278   6.745   0.702   6.328 -0.2326 -1.5698 -2.6404
  125OSM    H1T13279   6.570   0.670   6.317  1.7218 -2.0395  0.5468
  125OSM     NF13280   6.645   0.830   6.548  0.1451  0.0748  0.5150
  125OSM    HNF13281   6.575   0.796   6.610  2.2757 -1.9973  1.9370
  125OSM    C2S13282   6.617   0.868   6.409  0.1933  0.3932  0.6043
  125OSM    H2S13283   6.685   0.955   6.395 -0.4949  1.6895  4.2302
  125OSM    C3S13284   6.468   0.898   6.390 -0.4790 -0.0824  0.2862
  125OSM    H3S13285   6.406   0.809   6.413  1.8602 -1.3893  1.9308
  125OSM     O313286   6.441   0.941   6.254 -0.0443  0.3358  0.0587
  125OSM    HO313287   6.519   0.930   6.199  0.5196 -1.9464  1.1832
  125OSM    C4S13288   6.425   1.005   6.483 -0.3161  0.6989  0.0753
  125OSM    H4S13289   6.380   0.961   6.573  0.5754 -1.9703 -0.6874
  125OSM    C5S13290   6.436   1.143   6.476 -0.7140  0.3870 -0.2440
  125OSM    H5S13291   6.482   1.190   6.388  1.9373 -1.6464 -0.0458
  125OSM    C6S13292   6.387   1.238   6.576  0.5821 -0.3928 -0.4239
  125OSM    H6S13293   6.291   1.288   6.553  1.6837  2.0530 -0.0431
  125OSM    H6T13294   6.455   1.324   6.595  0.9341 -0.6598 -0.4644
  125OSM    C7S13295   6.393   1.178   6.722 -0.3611 -0.1629  0.2997
  125OSM    H7S13296   6.493   1.141   6.751  0.6647  2.2164  0.0049
  125OSM    H7T13297   6.310   1.104   6.726  0.2505 -0.8704  0.1348
  125OSM    C8S13298   6.364   1.290   6.819 -0.0274  0.1675  0.1941
  125OSM    H8S13299   6.272   1.346   6.794  0.3329  0.3761 -0.6971
  125OSM    H8T13300   6.450   1.359   6.804 -0.1770  0.7161  1.6537
  125OSM    C9S13301   6.364   1.251   6.972  0.7323  0.5579  0.6907
  125OSM    H9S13302   6.447   1.184   7.004 -0.3183 -1.0004  0.2394
  125OSM    H9T13303   6.269   1.194   6.975  0.0634  1.5252 -0.7159
  125OSM   C10S13304   6.348   1.367   7.060 -0.6465  0.5089  0.9148
  125OSM   H10S13305   6.252   1.413   7.026 -0.0793  0.2823 -1.1732
  125OSM   H10T13306   6.434   1.429   7.027  1.5345 -1.9866  1.6306
  125OSM   C11S13307   6.359   1.335   7.208 -0.3158 -0.5960 -0.9153
  125OSM   H11S13308   6.464   1.305   7.229  0.2209  1.6845  0.0412
  125OSM   H11T13309   6.286   1.257   7.236 -2.4877  1.1267 -1.5071
  125OSM   C12S13310   6.330   1.459   7.293 -0.9238 -0.4591  0.3380
  125OSM   H12S13311   6.221   1.477   7.278 -0.1033  3.6704 -2.3402
  125OSM   H12T13312   6.389   1.545   7.253 -0.1262 -1.1132  0.0842
  125OSM   C13S13313   6.347   1.433   7.443  0.6742 -0.3963 -0.6931
  125OSM   H13S13314   6.455   1.419   7.464  0.7994  0.2647 -0.8831
  125OSM   H13T13315   6.291   1.340   7.467  1.1613  0.1698  3.2854
  125OSM   C14S13316   6.277   1.549   7.516  0.4042 -0.3112  0.4646
  125OSM   H14S13317   6.174   1.568   7.479  0.8042  0.6370 -0.1876
  125OSM   H14T13318   6.332   1.644   7.504  0.2244  0.0192  2.0871
  125OSM   C15S13319   6.273   1.519   7.662  0.2848 -0.2947 -0.4766
  125OSM   H15S13320   6.374   1.548   7.697  0.0307  2.1522 -1.5797
  125OSM   H15T13321   6.255   1.409   7.673  3.8835 -0.8170  1.9023
  125OSM   C16S13322   6.176   1.604   7.745 -0.4517  0.1130 -0.4377
  125OSM   H16S13323   6.077   1.577   7.701 -1.0744  1.6567 -0.0356
  125OSM   H16T13324   6.202   1.710   7.725  0.6701 -0.1209 -0.2743
  125OSM   C17S13325   6.179   1.572   7.899  0.4989  0.0813  0.9690
  125OSM   H17S13326   6.280   1.596   7.939 -0.2885  3.2007  1.3367
  125OSM   H17T13327   6.165   1.462   7.896  2.2229 -0.1587 -0.8662
  125OSM   C18S13328   6.079   1.647   7.991  0.0887 -0.5465  0.6231
  125OSM   H18S13329   6.108   1.753   8.003  0.8890 -0.6482 -0.3164
  125OSM   H18T13330   6.072   1.592   8.087 -1.2878  0.9066  1.4120
  125OSM   H18U13331   5.975   1.646   7.952  0.7044  1.3574 -1.2477
  125OSM    C1F13332   6.777   0.812   6.579 -0.2008 -0.3341  0.7562
  125OSM     OF13333   6.863   0.836   6.496 -0.2969  0.7272 -0.7198
  125OSM    C2F13334   6.809   0.767   6.716  0.2067  0.5185 -0.1548
  125OSM    H2F13335   6.749   0.676   6.736 -0.2795  0.8909  0.1046
  125OSM    H2G13336   6.775   0.843   6.789 -1.0561 -0.2311  0.0592
  125OSM    C3F13337   6.956   0.732   6.734 -0.3196 -0.8294 -0.5883
  125OSM    H3F13338   7.011   0.819   6.691 -2.5495  0.0405 -1.8235
  125OSM    H3G13339   6.983   0.642   6.675 -1.0922 -0.9826 -0.7110
  125OSM    C4F13340   6.989   0.695   6.883  0.2648  0.2313 -0.6678
  125OSM    H4F13341   7.094   0.656   6.883 -0.2060 -1.0930 -1.0039
  125OSM    H4G13342   6.929   0.609   6.918  2.2120 -1.7478 -1.8838
  125OSM    C5F13343   6.980   0.815   6.986  0.6187  0.2383  0.3971
  125OSM    H5F13344   6.875   0.839   7.014  1.2289  1.3218  1.8396
  125OSM    H5G13345   7.006   0.902   6.922 -1.6905 -0.5630 -1.8417
  125OSM    C6F13346   7.070   0.799   7.114 -0.5122  0.0452  0.2473
  125OSM    H6F13347   7.168   0.757   7.082 -0.9951  0.0416 -1.3125
  125OSM    H6G13348   7.008   0.724   7.167  0.2705 -0.7065  0.1157
  125OSM    C7F13349   7.095   0.925   7.200 -0.6793 -0.1517 -0.6278
  125OSM    H7F13350   6.996   0.970   7.223 -1.2764 -0.9100 -1.6110
  125OSM    H7G13351   7.145   1.004   7.139 -0.4432  0.4246  0.2920
  125OSM    C8F13352   7.184   0.887   7.319 -0.1699  0.6171 -0.8505
  125OSM    H8F13353   7.272   0.835   7.276  1.6636  1.6526  1.4566
  125OSM    H8G13354   7.126   0.815   7.380  0.6798  0.5451 -0.1045
  125OSM    C9F13355   7.220   1.013   7.392 -0.2259  0.5920  0.6882
  125OSM    H9F13356   7.308   1.066   7.352  1.9826 -0.6588  3.5529
  125OSM   C10F13357   7.159   1.063   7.506  0.0284 -0.1882  0.2523
  125OSM   H10F13358   7.197   1.161   7.539  0.5176  0.9797 -3.2662
  125OSM   C11F13359   7.035   1.015   7.578  0.0254 -0.1143  0.2704
  125OSM   H11F13360   7.032   0.904   7.566  3.3351 -0.3291  0.3725
  125OSM   H11G13361   6.944   1.057   7.531 -0.5699  0.2253  1.6633
  125OSM   C12F13362   7.026   1.023   7.736  0.3515 -0.0489 -0.0221
  125OSM   H12F13363   7.043   1.130   7.762 -1.6209 -0.2875  2.5808
  125OSM   H12G13364   7.105   0.952   7.768 -0.3869 -1.2245 -0.7376
  125OSM   C13F13365   6.894   0.999   7.808  0.2950  0.3992  0.5457
  125OSM   H13F13366   6.843   0.907   7.770 -0.4777  0.3138  1.7443
  125OSM   H13G13367   6.824   1.077   7.771  0.2670 -0.4513 -1.3474
  125OSM   C14F13368   6.926   1.019   7.944  0.8705  0.6342 -0.3402
  125OSM   H14F13369   6.968   1.120   7.960 -1.2551  1.4151  0.6800
  125OSM   H14G13370   7.000   0.943   7.980  0.3649  0.2945 -0.0050
  125OSM   C15F13371   6.790   0.999   8.020 -0.8794  0.4290  0.0377
  125OSM   H15F13372   6.769   0.890   8.008  0.0749  0.4829 -2.8594
  125OSM   H15G13373   6.714   1.059   7.965 -0.5503  2.0962  1.3392
  125OSM   C16F13374   6.766   1.044   8.162  0.5661 -0.2072 -0.3576
  125OSM   H16F13375   6.657   1.037   8.178  0.2401  2.9154 -0.6581
  125OSM   H16G13376   6.797   1.149   8.181 -0.2674  0.1001 -0.6564
  125OSM   C17F13377   6.830   0.955   8.260 -0.6496  0.4330  0.9051
  125OSM   H17F13378   6.941   0.961   8.256 -0.4653 -0.6757  2.8890
  125OSM   H17G13379   6.806   0.846   8.253  0.8056  0.0195  1.8552
  125OSM   C18F13380   6.787   1.006   8.398  0.2112 -0.3010 -0.4989
  125OSM   H18F13381   6.690   0.962   8.428  0.7348 -0.5880  0.8403
  125OSM   H18G13382   6.799   1.116   8.415 -0.3010 -0.1006 -1.3659
  125OSM   H18H13383   6.864   0.968   8.469 -1.1220  0.3969  1.4039
  126OSM      N13384   4.434   6.495   6.736 -0.7640 -1.0022  0.1873
  126OSM    C1513385   4.527   6.411   6.818 -0.1486 -0.4214 -0.3576
  126OSM   H15A13386   4.498   6.307   6.819  1.7703 -0.9775 -0.0728
  126OSM   H15B13387   4.538   6.440   6.921  0.8894 -0.0196 -0.5755
  126OSM   H15C13388   4.623   6.397   6.772  0.8607 -1.5456  1.9278
  126OSM    C1413389   4.495   6.636   6.739  0.8569  0.5740  0.0565
  126OSM   H14A13390   4.502   6.692   6.830 -0.9310 -0.8819  1.1557
  126OSM   H14B13391   4.446   6.695   6.663  2.4729  0.8151 -0.8527
  126OSM   H14C13392   4.598   6.629   6.707  0.6804  1.3936 -0.7131
  126OSM    C1313393   4.450   6.453   6.594 -0.0561  0.5791  0.7695
  126OSM   H13A13394   4.405   6.355   6.588  0.6978  0.2835 -0.4322
  126OSM   H13B13395   4.550   6.453   6.552 -0.7050  1.0848 -0.8563
  126OSM   H13C13396   4.383   6.515   6.535 -0.1684 -1.1477 -0.9890
  126OSM    C1213397   4.293   6.493   6.793 -0.4898 -0.3145  0.1555
  126OSM   H12A13398   4.295   6.525   6.896  0.0819 -2.0010  0.6982
  126OSM   H12B13399   4.276   6.386   6.795 -0.7248 -0.3676 -2.0410
  126OSM    C1113400   4.185   6.564   6.712 -0.5237  0.9584  0.6097
  126OSM   H11A13401   4.207   6.672   6.711 -2.2212  1.4601 -4.0688
  126OSM   H11B13402   4.088   6.568   6.767 -0.8471 -0.7183  0.2224
  126OSM      P13403   4.090   6.388   6.554  0.4720  0.2150 -0.2878
  126OSM    O1313404   3.951   6.422   6.529 -0.0183  0.5215 -0.0589
  126OSM    O1413405   4.155   6.311   6.445  0.0577  0.1437 -0.3158
  126OSM    O1113406   4.105   6.303   6.691  0.7556 -0.0369  0.2584
  126OSM    O1213407   4.175   6.515   6.578 -0.0771  0.3835  0.0846
  126OSM    C1S13408   4.165   6.186   6.705 -0.2382 -0.2094  0.0515
  126OSM    H1S13409   4.274   6.198   6.686 -0.2150  0.5420  0.6266
  126OSM    H1T13410   4.118   6.114   6.634 -0.5765  0.8492 -0.8394
  126OSM     NF13411   4.235   6.026   6.887 -0.3481 -0.3109  0.3133
  126OSM    HNF13412   4.207   5.930   6.887 -3.0992  0.4115 -1.0431
  126OSM    C2S13413   4.138   6.130   6.850  0.0733 -0.1058 -0.6828
  126OSM    H2S13414   4.138   6.219   6.916  0.7159 -1.5688  1.3879
  126OSM    C3S13415   3.984   6.086   6.858  0.7170  0.1857  0.4679
  126OSM    H3S13416   3.971   5.998   6.793 -1.5240  0.5953  0.2684
  126OSM     O313417   3.890   6.168   6.799  0.1801 -0.5192  0.3500
  126OSM    HO313418   3.942   6.231   6.748 -0.4753  1.7124  2.2467
  126OSM    C4S13419   3.943   6.066   6.997  0.3708 -1.1171  0.5469
  126OSM    H4S13420   3.948   6.151   7.067 -0.9239 -1.0900  0.6464
  126OSM    C5S13421   3.904   5.946   7.040  0.0909 -0.5331 -1.3201
  126OSM    H5S13422   3.891   5.872   6.959  0.0029 -2.0494  0.0326
  126OSM    C6S13423   3.865   5.906   7.181  0.8552 -0.3546 -0.6020
  126OSM    H6S13424   3.920   5.818   7.219  0.1966 -1.4999 -2.2120
  126OSM    H6T13425   3.760   5.870   7.180  1.7590 -3.1881  0.0403
  126OSM    C7S13426   3.875   6.023   7.279 -0.0151  0.1459 -0.3116
  126OSM    H7S13427   3.802   6.098   7.242 -0.5804 -0.7335 -1.0283
  126OSM    H7T13428   3.975   6.071   7.276  0.6764 -1.2548 -1.0332
  126OSM    C8S13429   3.840   5.976   7.419 -0.0346  0.1136  0.1376
  126OSM    H8S13430   3.909   5.897   7.456 -0.4799 -0.5229 -0.3745
  126OSM    H8T13431   3.738   5.933   7.414 -0.2046  0.4564  0.5496
  126OSM    C9S13432   3.842   6.086   7.523 -0.4941 -0.0778 -0.2737
  126OSM    H9S13433   3.762   6.160   7.500  0.7697  0.9962 -1.3678
  126OSM    H9T13434   3.936   6.145   7.520 -0.8928  0.5571 -0.6868
  126OSM   C10S13435   3.813   6.033   7.662 -0.8225 -0.2225 -0.8400
  126OSM   H10S13436   3.892   5.962   7.694  1.2456  2.6853  1.0453
  126OSM   H10T13437   3.710   5.992   7.668 -1.1849  0.7275 -0.3962
  126OSM   C11S13438   3.818   6.148   7.770  0.2806  0.6727 -0.1283
  126OSM   H11S13439   3.732   6.218   7.759  0.5442  0.8007 -1.6228
  126OSM   H11T13440   3.911   6.206   7.754  1.5210 -1.2892 -0.2778
  126OSM   C12S13441   3.821   6.089   7.917  0.2946  0.6635 -0.4021
  126OSM   H12S13442   3.924   6.057   7.943 -0.8840 -1.4355  2.0853
  126OSM   H12T13443   3.747   6.007   7.929  0.4406  0.3986 -1.2138
  126OSM   C13S13444   3.795   6.188   8.035 -0.7933 -0.2907  0.3957
  126OSM   H13S13445   3.688   6.219   8.036 -0.7397 -0.0914  0.1924
  126OSM   H13T13446   3.863   6.275   8.019 -2.0109  0.7171  0.4664
  126OSM   C14S13447   3.814   6.134   8.176 -0.0573  0.3420 -0.4145
  126OSM   H14S13448   3.917   6.098   8.196 -0.0040  1.3794  1.3459
  126OSM   H14T13449   3.746   6.048   8.195  0.5173 -0.1730 -0.6720
  126OSM   C15S13450   3.788   6.224   8.295 -0.3119 -0.9709 -0.3350
  126OSM   H15S13451   3.817   6.330   8.275 -0.7856 -0.3245  2.0456
  126OSM   H15T13452   3.845   6.183   8.381 -0.1583 -0.4101 -0.1649
  126OSM   C16S13453   3.632   6.223   8.328 -0.4513 -0.1199 -0.2139
  126OSM   H16S13454   3.592   6.119   8.335 -3.3568  0.8124 -1.3539
  126OSM   H16T13455   3.580   6.273   8.244 -0.7152  0.4778  0.2984
  126OSM   C17S13456   3.582   6.303   8.456  0.6188 -0.3163  0.3669
  126OSM   H17S13457   3.472   6.287   8.458  0.5094  0.3814  1.9004
  126OSM   H17T13458   3.608   6.405   8.423 -0.5291  0.3153  1.3403
  126OSM   C18S13459   3.634   6.269   8.588  0.1795 -0.1173 -0.6775
  126OSM   H18S13460   3.607   6.173   8.637  0.4861 -0.1766 -0.6226
  126OSM   H18T13461   3.608   6.341   8.668  1.5783 -1.4143  1.0139
  126OSM   H18U13462   3.744   6.264   8.578  0.6868  1.8289  2.5433
  126OSM    C1F13463   4.364   6.058   6.922  0.1612  0.7195 -0.2076
  126OSM     OF13464   4.393   6.171   6.958  0.4029 -0.1844  1.0689
  126OSM    C2F13465   4.467   5.954   6.909  0.6912 -0.0141 -0.1941
  126OSM    H2F13466   4.493   5.946   6.802  2.6332 -0.4698  0.2817
  126OSM    H2G13467   4.414   5.863   6.945  2.1646 -0.5894  0.5866
  126OSM    C3F13468   4.600   5.984   6.990 -0.1203 -0.0304 -0.1250
  126OSM    H3F13469   4.623   6.090   6.969 -2.9812  0.2801 -2.3036
  126OSM    H3G13470   4.675   5.917   6.942  0.4116  0.8087 -0.4715
  126OSM    C4F13471   4.583   5.954   7.143  1.1059 -0.3197  0.9811
  126OSM    H4F13472   4.529   5.858   7.154 -2.9899  0.9499 -4.0624
  126OSM    H4G13473   4.515   6.033   7.181  0.2554  0.0420 -1.1650
  126OSM    C5F13474   4.712   5.964   7.218 -0.2735 -0.2246 -0.2619
  126OSM    H5F13475   4.762   6.063   7.220 -2.1258  0.7528  1.9175
  126OSM    H5G13476   4.787   5.893   7.175  1.7730  1.3574  0.5248
  126OSM    C6F13477   4.693   5.923   7.371 -0.0346  0.1709  0.1663
  126OSM    H6F13478   4.791   5.875   7.395  0.1325  0.3055 -0.2367
  126OSM    H6G13479   4.630   5.832   7.383  1.7735 -0.9271  2.0287
  126OSM    C7F13480   4.647   6.032   7.468 -0.3280  0.4083 -0.3428
  126OSM    H7F13481   4.540   6.034   7.439 -0.6279 -3.0093  0.1710
  126OSM    H7G13482   4.689   6.129   7.433  0.6881 -0.1309 -0.6651
  126OSM    C8F13483   4.663   5.988   7.612 -0.5546  0.9695 -0.0252
  126OSM    H8F13484   4.649   5.877   7.612 -1.0863  1.0245 -1.3324
  126OSM    H8G13485   4.594   6.047   7.676 -2.1265  1.2350 -1.8830
  126OSM    C9F13486   4.797   6.011   7.664 -0.5869 -0.2103  0.0632
  126OSM    H9F13487   4.830   6.116   7.670 -0.3141 -0.1436 -1.9865
  126OSM   C10F13488   4.897   5.930   7.688  0.5414 -0.1348  1.1059
  126OSM   H10F13489   4.994   5.972   7.718  1.1806  0.2494 -1.2785
  126OSM   C11F13490   4.908   5.779   7.687  1.0451  0.3128 -0.5720
  126OSM   H11F13491   5.016   5.753   7.683  0.9482 -0.1218 -0.4308
  126OSM   H11G13492   4.868   5.736   7.593  1.6915  2.8833 -2.1017
  126OSM   C12F13493   4.838   5.702   7.804  0.3090  0.0977 -0.0073
  126OSM   H12F13494   4.874   5.598   7.790  1.9890  0.6445  0.0333
  126OSM   H12G13495   4.728   5.701   7.789  0.2561  1.6926  0.0804
  126OSM   C13F13496   4.876   5.746   7.945 -0.3885  0.0102  0.1680
  126OSM   H13F13497   4.822   5.686   8.021 -1.8858  2.4817  1.2076
  126OSM   H13G13498   4.831   5.847   7.958 -1.2093 -0.4502  1.1270
  126OSM   C14F13499   5.022   5.748   7.977 -0.7667 -0.6100  0.1614
  126OSM   H14F13500   5.068   5.801   7.891  0.2458 -0.5783  0.7009
  126OSM   H14G13501   5.058   5.645   8.001 -1.1278 -0.7662  0.0412
  126OSM   C15F13502   5.056   5.831   8.103  0.5844  0.1434 -0.7762
  126OSM   H15F13503   4.989   5.795   8.184  3.5087 -0.3944  1.6234
  126OSM   H15G13504   5.046   5.940   8.088  0.7400  0.9086  3.5182
  126OSM   C16F13505   5.202   5.810   8.134 -0.3240  0.4601 -0.0554
  126OSM   H16F13506   5.221   5.906   8.187 -2.8140  1.5552 -0.9690
  126OSM   H16G13507   5.269   5.811   8.045  2.3789  0.0906  1.8628
  126OSM   C17F13508   5.233   5.694   8.234  0.6023  0.9032 -0.1039
  126OSM   H17F13509   5.197   5.598   8.191  1.1750  0.1627  1.0455
  126OSM   H17G13510   5.171   5.707   8.325 -0.1386  0.0060 -0.4706
  126OSM   C18F13511   5.381   5.671   8.263 -0.2834  0.0654 -0.2458
  126OSM   H18F13512   5.438   5.670   8.167 -1.0185 -3.8226 -0.8002
  126OSM   H18G13513   5.404   5.575   8.314 -0.1884  0.2592  0.0763
  126OSM   H18H13514   5.426   5.756   8.319 -0.0614 -1.0155  1.2787
  127OSM      N13515   3.029   0.602   6.005  0.2806  0.5874 -0.1991
  127OSM    C1513516   3.029   0.737   5.949 -0.2313 -0.7061  0.1121
  127OSM   H15A13517   2.944   0.797   5.978 -0.5935 -0.8034 -0.7034
  127OSM   H15B13518   3.031   0.735   5.841  1.2648  1.0843  0.0732
  127OSM   H15C13519   3.119   0.787   5.981  0.3221 -1.1146 -0.7589
  127OSM    C1413520   2.903   0.528   5.964  0.0460 -0.5393  0.3490
  127OSM   H14A13521   2.814   0.565   6.014  0.2791 -2.4876  2.3789
  127OSM   H14B13522   2.910   0.426   5.999 -0.8313 -0.7897 -0.1609
  127OSM   H14C13523   2.878   0.541   5.860 -3.2412  0.5111  1.1396
  127OSM    C1313524   3.138   0.522   5.947  0.6615 -0.3939 -0.6464
  127OSM   H13A13525   3.128   0.546   5.842  1.2618 -0.6884 -0.7752
  127OSM   H13B13526   3.128   0.419   5.976 -0.1013 -0.3153 -0.6239
  127OSM   H13C13527   3.235   0.559   5.978 -0.8185  2.1820  1.3290
  127OSM    C1213528   3.034   0.596   6.156  0.0456 -0.5641 -0.6277
  127OSM   H12A13529   3.136   0.611   6.189 -0.4978  0.3930  0.6719
  127OSM   H12B13530   3.026   0.492   6.180  2.9094 -0.6621  0.2984
  127OSM    C1113531   2.934   0.688   6.236 -0.5205  0.2863 -0.4055
  127OSM   H11A13532   2.942   0.788   6.189 -1.1079 -0.2814 -1.7647
  127OSM   H11B13533   2.972   0.695   6.340 -1.5546  1.6579 -0.0910
  127OSM      P13534   2.684   0.722   6.268 -0.0758 -0.0792  0.1341
  127OSM    O1313535   2.714   0.865   6.246  0.0558 -0.5170  0.9225
  127OSM    O1413536   2.566   0.669   6.196  0.0994  0.3278  0.5947
  127OSM    O1113537   2.664   0.695   6.425  0.1636  0.0124  0.0251
  127OSM    O1213538   2.809   0.630   6.232  0.3152  0.3504  0.3819
  127OSM    C1S13539   2.767   0.731   6.524 -0.0832  0.7012 -0.1263
  127OSM    H1S13540   2.805   0.835   6.517  3.8356 -0.6300 -2.0245
  127OSM    H1T13541   2.856   0.665   6.521  0.2531  0.8567  3.0968
  127OSM     NF13542   2.832   0.730   6.753 -0.1764  0.2377  0.2676
  127OSM    HNF13543   2.897   0.655   6.764  0.4712  0.5079 -1.4473
  127OSM    C2S13544   2.721   0.698   6.666  0.0799 -0.3378  0.8806
  127OSM    H2S13545   2.630   0.760   6.680 -0.0956 -0.0328 -1.3589
  127OSM    C3S13546   2.682   0.544   6.670 -0.3775  0.2174 -0.0173
  127OSM    H3S13547   2.767   0.489   6.625 -0.4290  0.8149 -0.8851
  127OSM     O313548   2.576   0.504   6.588  0.5445  0.1490  0.2472
  127OSM    HO313549   2.564   0.587   6.541  0.7354  0.8139  1.3377
  127OSM    C4S13550   2.655   0.501   6.809 -0.4321 -0.0372 -0.3665
  127OSM    H4S13551   2.571   0.552   6.859 -0.8542  0.0396 -1.1530
  127OSM    C5S13552   2.731   0.418   6.885 -0.1358 -0.7599  0.4246
  127OSM    H5S13553   2.826   0.378   6.847  0.6073  0.2163  1.2144
  127OSM    C6S13554   2.701   0.382   7.029 -0.0653  1.1238  0.5325
  127OSM    H6S13555   2.783   0.417   7.095  1.0197 -0.9235  0.3593
  127OSM    H6T13556   2.706   0.271   7.029 -2.4517  0.9294 -0.8690
  127OSM    C7S13557   2.561   0.414   7.077 -0.0916  0.0282 -0.8907
  127OSM    H7S13558   2.472   0.395   7.013  0.3676  0.8066 -1.7981
  127OSM    H7T13559   2.566   0.525   7.086  0.1424  0.1081 -1.9093
  127OSM    C8S13560   2.545   0.350   7.222 -0.1029 -0.2397  0.9517
  127OSM    H8S13561   2.630   0.377   7.288  2.9628 -1.2151 -2.3040
  127OSM    H8T13562   2.565   0.241   7.215  0.5033 -0.1740  1.5341
  127OSM    C9S13563   2.410   0.378   7.292 -0.5299  0.2397  0.4428
  127OSM    H9S13564   2.325   0.373   7.221 -0.2613  1.8313 -0.0273
  127OSM    H9T13565   2.408   0.472   7.350 -0.4626 -0.7647  2.1456
  127OSM   C10S13566   2.402   0.277   7.404  0.2041 -0.3733 -1.3817
  127OSM   H10S13567   2.470   0.293   7.491 -1.2453 -1.5296  0.0343
  127OSM   H10T13568   2.415   0.170   7.377 -1.5880 -0.9775 -0.0429
  127OSM   C11S13569   2.257   0.258   7.459 -0.1976  0.0959  0.0649
  127OSM   H11S13570   2.196   0.210   7.379  1.8878  0.3606 -1.7728
  127OSM   H11T13571   2.210   0.356   7.481 -1.4265 -0.8597  2.0054
  127OSM   C12S13572   2.263   0.176   7.595  0.6255 -0.4096  0.2390
  127OSM   H12S13573   2.309   0.241   7.673 -1.2169  0.2899  0.7990
  127OSM   H12T13574   2.315   0.079   7.580  3.3589  1.0489 -0.2727
  127OSM   C13S13575   2.112   0.154   7.649 -0.7201 -0.1387 -0.1235
  127OSM   H13S13576   2.050   0.102   7.573 -0.9018 -2.2983  1.4316
  127OSM   H13T13577   2.074   0.255   7.673 -0.9865 -0.4447  0.7604
  127OSM   C14S13578   2.114   0.063   7.769  0.0932 -0.8130 -0.5393
  127OSM   H14S13579   2.210   0.081   7.821  1.2493 -0.7122 -2.6008
  127OSM   H14T13580   2.123  -0.040   7.728  2.2530 -0.7454 -0.3512
  127OSM   C15S13581   1.992   0.080   7.851  0.2802 -0.0450 -0.0827
  127OSM   H15S13582   1.908   0.068   7.779  0.0329 -0.7163  0.3070
  127OSM   H15T13583   1.994   0.185   7.887  1.6407  0.0330 -0.3231
  127OSM   C16S13584   1.990  -0.019   7.964 -0.5760 -0.6522  0.6107
  127OSM   H16S13585   2.018  -0.120   7.926 -1.5797 -0.9504  0.6296
  127OSM   H16T13586   1.898  -0.029   8.026 -1.4811  0.3549 -0.5278
  127OSM   C17S13587   2.109  -0.004   8.062 -0.6340 -0.3416 -0.1649
  127OSM   H17S13588   2.115   0.100   8.102  1.2943 -0.9271  1.2203
  127OSM   H17T13589   2.202  -0.028   8.007 -0.5362 -3.6145  1.2408
  127OSM   C18S13590   2.088  -0.093   8.183 -0.3998  0.2142  0.0617
  127OSM   H18S13591   2.176  -0.102   8.250  1.2129  0.1627 -1.9315
  127OSM   H18T13592   2.073  -0.194   8.140  2.5788 -0.0945 -0.5014
  127OSM   H18U13593   2.001  -0.062   8.244 -2.5025 -1.0381 -2.1514
  127OSM    C1F13594   2.848   0.857   6.792 -0.2047 -0.5228 -0.2861
  127OSM     OF13595   2.766   0.940   6.755 -0.8079 -0.3300 -0.1173
  127OSM    C2F13596   2.980   0.901   6.852  0.5973  0.5144  0.1491
  127OSM    H2F13597   2.986   1.007   6.820  1.1071  0.2475 -0.6934
  127OSM    H2G13598   3.068   0.845   6.811  0.8433  1.4618 -0.6437
  127OSM    C3F13599   2.979   0.890   7.003 -0.4718 -0.3955  0.2535
  127OSM    H3F13600   2.900   0.960   7.039  0.5838  1.8606 -1.5770
  127OSM    H3G13601   3.074   0.932   7.044 -1.2586  0.8425  0.8969
  127OSM    C4F13602   2.964   0.754   7.067  0.7302 -0.1806 -0.2487
  127OSM    H4F13603   3.050   0.688   7.043  1.4264  1.7449 -3.4959
  127OSM    H4G13604   2.871   0.708   7.027 -1.2807  0.7760  2.9179
  127OSM    C5F13605   2.953   0.753   7.222 -0.5812 -0.2224  0.7463
  127OSM    H5F13606   2.884   0.829   7.264 -1.9594 -1.2187  0.3342
  127OSM    H5G13607   3.050   0.780   7.270  0.1846 -3.3283  1.1299
  127OSM    C6F13608   2.882   0.627   7.278 -0.3529  0.3348 -0.0570
  127OSM    H6F13609   2.945   0.537   7.261  0.0404  0.5185  0.4065
  127OSM    H6G13610   2.789   0.604   7.220 -1.5261 -0.7885  2.1278
  127OSM    C7F13611   2.839   0.632   7.425  0.1221 -0.1675 -0.1569
  127OSM    H7F13612   2.774   0.545   7.449  1.8579 -1.6629 -0.6479
  127OSM    H7G13613   2.787   0.727   7.446  0.8269 -0.0759  1.2431
  127OSM    C8F13614   2.957   0.641   7.526  0.2246  0.0358 -0.0331
  127OSM    H8F13615   2.911   0.673   7.622 -0.4205 -1.3513  0.1462
  127OSM    H8G13616   3.037   0.709   7.491  1.2114 -0.5478  1.0205
  127OSM    C9F13617   3.012   0.499   7.543 -0.0574  0.6087 -0.3377
  127OSM    H9F13618   3.028   0.434   7.456 -0.7813 -3.5403  2.3202
  127OSM   C10F13619   3.064   0.449   7.660 -0.1258  0.1938  1.1468
  127OSM   H10F13620   3.108   0.348   7.656 -1.9073 -0.5646 -1.1024
  127OSM   C11F13621   3.064   0.530   7.788 -0.0396  0.2755 -0.4232
  127OSM   H11F13622   3.078   0.638   7.771 -0.7278  0.1366 -2.0355
  127OSM   H11G13623   3.146   0.486   7.848 -0.3229 -1.0298 -0.9443
  127OSM   C12F13624   2.936   0.511   7.874  0.3694 -0.0192  0.1244
  127OSM   H12F13625   2.930   0.411   7.923  2.6409  0.7931  2.3076
  127OSM   H12G13626   2.847   0.538   7.814 -0.0536  0.2737  0.8671
  127OSM   C13F13627   2.934   0.619   7.995 -0.1316 -0.0837 -0.5523
  127OSM   H13F13628   2.827   0.616   8.024 -0.0898  1.9354 -0.0634
  127OSM   H13G13629   2.953   0.723   7.962 -1.1199  0.8843  1.7484
  127OSM   C14F13630   3.019   0.574   8.114  1.2988 -0.1274 -0.0292
  127OSM   H14F13631   3.122   0.610   8.132  0.6672  1.6046  0.3518
  127OSM   H14G13632   3.023   0.463   8.113  2.9736 -0.2215  3.3477
  127OSM   C15F13633   2.943   0.600   8.251  0.7338  0.3131 -0.1845
  127OSM   H15F13634   2.840   0.558   8.250  0.0827  1.8458 -1.5620
  127OSM   H15G13635   2.930   0.708   8.271  1.9426  0.3891  0.2927
  127OSM   C16F13636   3.018   0.541   8.368  0.8893  0.0144  0.0414
  127OSM   H16F13637   3.054   0.440   8.340 -0.2936  0.0405 -1.6633
  127OSM   H16G13638   2.962   0.537   8.464  1.0736  1.5152  0.2305
  127OSM   C17F13639   3.135   0.640   8.404  0.3812  0.6562 -0.2999
  127OSM   H17F13640   3.102   0.744   8.425  2.5694  1.3157  0.1228
  127OSM   H17G13641   3.204   0.646   8.317 -0.3180 -1.6415 -1.0928
  127OSM   C18F13642   3.212   0.568   8.518 -0.4311  0.0510 -0.4296
  127OSM   H18F13643   3.144   0.546   8.603  0.8136 -1.0178  0.3425
  127OSM   H18G13644   3.286   0.641   8.559  0.1973 -0.9169  0.2144
  127OSM   H18H13645   3.257   0.474   8.477  1.4365  1.2859 -1.3782
  128OSM      N13646   2.585   2.566   6.131  0.5855  0.4570  0.1941
  128OSM    C1513647   2.507   2.438   6.119  0.5072 -0.6540 -0.6527
  128OSM   H15A13648   2.411   2.455   6.072 -0.2829  0.2396  1.1459
  128OSM   H15B13649   2.486   2.396   6.216 -0.2961  2.0544  0.4411
  128OSM   H15C13650   2.556   2.368   6.053 -1.1158 -1.7456 -0.7658
  128OSM    C1413651   2.723   2.535   6.176 -0.0232  0.0601  0.2765
  128OSM   H14A13652   2.773   2.483   6.096 -1.3631  1.3227 -1.4615
  128OSM   H14B13653   2.715   2.466   6.259 -4.5919  0.5843  0.5366
  128OSM   H14C13654   2.774   2.627   6.195  0.2596 -0.3948  1.8759
  128OSM    C1313655   2.583   2.632   5.992  0.0987 -0.2107  0.4161
  128OSM   H13A13656   2.617   2.561   5.918  0.7680 -0.0401  0.5558
  128OSM   H13B13657   2.644   2.720   5.985  0.3526 -0.4322 -0.2171
  128OSM   H13C13658   2.488   2.658   5.948  1.7308  3.7238 -1.2882
  128OSM    C1213659   2.523   2.670   6.221 -1.5919 -0.3217  0.1633
  128OSM   H12A13660   2.530   2.628   6.320  1.0946 -1.6080 -0.4700
  128OSM   H12B13661   2.418   2.677   6.197 -1.7593 -2.4512  0.0624
  128OSM    C1113662   2.586   2.810   6.226 -0.5036 -0.1336 -0.4436
  128OSM   H11A13663   2.696   2.794   6.234 -0.6611 -0.8180  0.5747
  128OSM   H11B13664   2.555   2.864   6.318 -1.0785 -0.1815 -0.6064
  128OSM      P13665   2.433   2.949   6.071  0.0386 -0.4235 -0.0384
  128OSM    O1313666   2.443   2.992   5.932  0.3936  0.1862  0.1775
  128OSM    O1413667   2.317   2.862   6.094  0.3502  0.2213  0.0855
  128OSM    O1113668   2.429   3.079   6.168 -0.2445 -0.1064 -0.5109
  128OSM    O1213669   2.566   2.884   6.109 -0.3327 -0.2230 -0.0768
  128OSM    C1S13670   2.307   3.090   6.243  0.1089 -0.5892  0.0302
  128OSM    H1S13671   2.290   3.000   6.307  0.5428 -0.5370  0.2197
  128OSM    H1T13672   2.222   3.114   6.175  1.1769  1.5874 -0.5957
  128OSM     NF13673   2.222   3.207   6.441  0.1546  0.3268 -0.7448
  128OSM    HNF13674   2.171   3.292   6.446 -1.2923 -0.5530  0.0579
  128OSM    C2S13675   2.330   3.202   6.345  0.0789  0.1156 -0.2204
  128OSM    H2S13676   2.425   3.179   6.397 -0.5670 -0.0349  0.9272
  128OSM    C3S13677   2.351   3.337   6.281 -0.1700  0.2655  0.4709
  128OSM    H3S13678   2.254   3.379   6.248 -0.7252 -1.8852 -0.8068
  128OSM     O313679   2.443   3.331   6.171 -0.6197  0.2054 -0.1692
  128OSM    HO313680   2.437   3.247   6.125  1.0538 -0.6856  1.1188
  128OSM    C4S13681   2.402   3.425   6.398 -0.0979 -0.2909  0.0761
  128OSM    H4S13682   2.321   3.493   6.430 -0.0105  0.8380 -1.9196
  128OSM    C5S13683   2.527   3.432   6.448 -0.0773  0.4935  0.4916
  128OSM    H5S13684   2.600   3.359   6.410  0.2755 -0.3428  2.6636
  128OSM    C6S13685   2.573   3.522   6.556  0.1290 -0.6101 -0.9520
  128OSM    H6S13686   2.616   3.616   6.515 -0.9262  0.1091 -0.4466
  128OSM    H6T13687   2.662   3.474   6.603  0.8400 -0.0539 -1.7070
  128OSM    C7S13688   2.482   3.569   6.674 -0.9632 -0.3222 -0.2062
  128OSM    H7S13689   2.396   3.627   6.634 -0.4166  1.1059  0.5900
  128OSM    H7T13690   2.542   3.624   6.750 -1.5983 -1.0201  0.8338
  128OSM    C8S13691   2.436   3.447   6.757 -0.2160 -0.0114 -0.1290
  128OSM    H8S13692   2.517   3.403   6.820 -1.0983 -1.3046  0.1364
  128OSM    H8T13693   2.402   3.367   6.688 -0.1102  0.4876 -0.7682
  128OSM    C9S13694   2.320   3.457   6.866 -0.3795 -0.2482  0.2391
  128OSM    H9S13695   2.307   3.366   6.929  0.5725  0.9750  2.3093
  128OSM    H9T13696   2.231   3.491   6.810 -0.0830  0.0824 -0.0398
  128OSM   C10S13697   2.346   3.563   6.970 -0.2588  0.0660 -0.7903
  128OSM   H10S13698   2.354   3.663   6.921 -0.0590  1.1175  1.2782
  128OSM   H10T13699   2.451   3.560   7.006 -0.0203  0.1275 -1.4650
  128OSM   C11S13700   2.248   3.567   7.082 -0.0739 -0.2185  0.0291
  128OSM   H11S13701   2.224   3.462   7.108  2.5473 -1.6463 -2.7513
  128OSM   H11T13702   2.155   3.621   7.053 -1.1587 -0.3516  2.9104
  128OSM   C12S13703   2.298   3.644   7.209 -0.0218 -0.3473 -0.2225
  128OSM   H12S13704   2.309   3.750   7.178 -3.1701 -0.2408 -1.2625
  128OSM   H12T13705   2.398   3.604   7.238  0.0440  0.2695  0.4119
  128OSM   C13S13706   2.192   3.639   7.313 -0.5615  0.4124  0.2786
  128OSM   H13S13707   2.144   3.539   7.325  2.0516 -0.9936 -0.0612
  128OSM   H13T13708   2.113   3.709   7.280 -1.1417 -0.7828 -0.9634
  128OSM   C14S13709   2.244   3.667   7.454 -0.2247 -1.0911 -0.2981
  128OSM   H14S13710   2.291   3.768   7.457 -1.5174 -0.4919  0.2514
  128OSM   H14T13711   2.327   3.592   7.460  0.6348 -0.3526 -2.0198
  128OSM   C15S13712   2.140   3.641   7.564  0.1097  0.1734 -0.0618
  128OSM   H15S13713   2.143   3.537   7.601 -0.4164  0.8406  2.0099
  128OSM   H15T13714   2.041   3.653   7.515  0.3554  1.6703 -0.2542
  128OSM   C16S13715   2.138   3.742   7.685 -0.2050  0.0467 -0.7252
  128OSM   H16S13716   2.043   3.728   7.741 -1.0185  0.7748 -1.8630
  128OSM   H16T13717   2.154   3.843   7.641  0.2644  0.3991  0.2321
  128OSM   C17S13718   2.255   3.711   7.781  0.1068  0.5805 -0.3362
  128OSM   H17S13719   2.265   3.795   7.853 -1.1759  0.2557  0.2464
  128OSM   H17T13720   2.346   3.692   7.721  0.6250  1.1438  0.2444
  128OSM   C18S13721   2.227   3.585   7.866  0.2096 -0.2248 -0.2933
  128OSM   H18S13722   2.243   3.494   7.804 -0.8966  0.3258 -1.4365
  128OSM   H18T13723   2.122   3.583   7.902  0.2938  0.7287  0.0323
  128OSM   H18U13724   2.299   3.575   7.950 -0.7779 -0.0599  0.5742
  128OSM    C1F13725   2.208   3.121   6.539 -0.5237 -0.4396 -0.3843
  128OSM     OF13726   2.296   3.037   6.562  1.0987 -0.7657  0.6863
  128OSM    C2F13727   2.088   3.131   6.624 -0.1302  0.2100  0.2651
  128OSM    H2F13728   2.022   3.046   6.594 -1.2156  1.1775 -0.1804
  128OSM    H2G13729   2.038   3.225   6.594  0.8183  1.0321  1.2043
  128OSM    C3F13730   2.117   3.131   6.774 -0.2319 -0.2530  0.2203
  128OSM    H3F13731   2.198   3.206   6.789  1.2648 -1.6549 -0.4508
  128OSM    H3G13732   2.160   3.033   6.805 -2.2994 -1.1904  0.2486
  128OSM    C4F13733   1.988   3.167   6.860 -0.9583  0.0069 -0.0828
  128OSM    H4F13734   1.920   3.080   6.847 -1.6248  0.1671  1.9894
  128OSM    H4G13735   1.928   3.250   6.820 -1.0004 -0.0775 -0.1944
  128OSM    C5F13736   2.013   3.200   7.000  0.3476  0.3657  0.0664
  128OSM    H5F13737   2.091   3.279   7.012 -0.5883  1.3586 -0.1887
  128OSM    H5G13738   2.052   3.108   7.048  1.2672  0.6588 -0.0931
  128OSM    C6F13739   1.886   3.236   7.068 -0.2262 -0.1443 -0.8128
  128OSM    H6F13740   1.806   3.162   7.045  0.2944 -1.0561  0.2318
  128OSM    H6G13741   1.849   3.334   7.031  0.6626  0.6398  0.3295
  128OSM    C7F13742   1.891   3.231   7.230  0.3965  0.0107 -0.0231
  128OSM    H7F13743   1.942   3.135   7.252  0.1099 -0.4257 -1.1708
  128OSM    H7G13744   1.792   3.236   7.280  0.6235  0.6002  0.3792
  128OSM    C8F13745   1.966   3.352   7.283 -0.2245 -0.1707  0.3008
  128OSM    H8F13746   1.899   3.440   7.297 -2.3971 -1.8359  0.9253
  128OSM    H8G13747   2.038   3.404   7.216 -0.2917  1.9731  1.7995
  128OSM    C9F13748   2.035   3.309   7.402 -0.6006  0.1020 -0.8986
  128OSM    H9F13749   2.142   3.293   7.384 -0.6461 -0.3303 -0.7960
  128OSM   C10F13750   1.974   3.293   7.518  0.3956 -0.2694 -1.2431
  128OSM   H10F13751   2.033   3.246   7.598 -1.0179 -0.8363 -0.4946
  128OSM   C11F13752   1.829   3.318   7.554  0.0899 -0.2400  0.1084
  128OSM   H11F13753   1.771   3.246   7.492  1.2765 -1.2509  0.1230
  128OSM   H11G13754   1.797   3.417   7.514 -0.6719 -0.8792 -0.8990
  128OSM   C12F13755   1.779   3.308   7.706 -0.9027  0.6405 -0.0380
  128OSM   H12F13756   1.817   3.215   7.753 -1.0571  0.9795  0.7740
  128OSM   H12G13757   1.669   3.302   7.718 -0.7667 -0.0818  0.9206
  128OSM   C13F13758   1.827   3.420   7.793 -0.5924 -0.2262  0.4095
  128OSM   H13F13759   1.765   3.507   7.764 -0.1412 -0.3617 -1.0215
  128OSM   H13G13760   1.931   3.438   7.758  0.0459 -3.5864  0.2209
  128OSM   C14F13761   1.824   3.418   7.947 -0.1779 -0.0317 -0.6645
  128OSM   H14F13762   1.878   3.511   7.977  1.5075 -1.5751  1.3072
  128OSM   H14G13763   1.898   3.342   7.978  0.1624 -0.2445 -1.9112
  128OSM   C15F13764   1.686   3.411   8.001  0.2079 -0.2824  0.5888
  128OSM   H15F13765   1.627   3.349   7.930 -1.4604 -0.0159  1.6864
  128OSM   H15G13766   1.640   3.511   7.991 -0.4471 -0.6955 -0.7538
  128OSM   C16F13767   1.662   3.357   8.139  0.5339 -0.3200  0.2203
  128OSM   H16F13768   1.690   3.250   8.128 -1.3891 -1.0573  1.8657
  128OSM   H16G13769   1.554   3.355   8.162  0.5080 -0.2167  0.1104
  128OSM   C17F13770   1.742   3.434   8.253 -0.0658 -0.2684  1.1729
  128OSM   H17F13771   1.845   3.428   8.214 -0.3317 -0.0941  0.4302
  128OSM   H17G13772   1.748   3.377   8.348  1.7735 -0.6190  0.8721
  128OSM   C18F13773   1.702   3.578   8.264  0.6093  0.0361  1.0293
  128OSM   H18F13774   1.749   3.625   8.353 -0.0009  2.7998 -0.0183
  128OSM   H18G13775   1.594   3.583   8.288  0.1689 -0.9606 -0.6172
  128OSM   H18H13776   1.708   3.644   8.175 -1.1438 -0.9380  0.1348
  129OSM      N13777   1.434   4.201   5.869 -0.6896 -0.2925 -0.3141
  129OSM    C1513778   1.349   4.131   5.779  0.4988 -0.1789  0.2068
  129OSM   H15A13779   1.291   4.195   5.715  1.2206  0.3433  0.0562
  129OSM   H15B13780   1.277   4.081   5.842  0.2132  1.9891  1.6986
  129OSM   H15C13781   1.400   4.046   5.736  1.5150 -1.4856  3.6479
  129OSM    C1413782   1.532   4.287   5.793  0.7685  0.7007  0.5808
  129OSM   H14A13783   1.585   4.337   5.872 -0.4352 -0.7385  2.3815
  129OSM   H14B13784   1.484   4.362   5.731 -0.9833 -0.9864 -0.2149
  129OSM   H14C13785   1.597   4.229   5.729  0.2380  0.9011 -0.1558
  129OSM    C1313786   1.343   4.268   5.969 -0.2295  0.2522  0.3009
  129OSM   H13A13787   1.278   4.340   5.920  0.7746  0.2369 -1.1080
  129OSM   H13B13788   1.398   4.311   6.052  2.2328  0.2402 -1.2539
  129OSM   H13C13789   1.275   4.192   6.005  0.6954 -0.9971 -0.5343
  129OSM    C1213790   1.521   4.097   5.944 -0.0066 -0.7703  0.1918
  129OSM   H12A13791   1.599   4.069   5.874  1.2401  1.2970  0.6471
  129OSM   H12B13792   1.469   4.010   5.980 -4.1263  1.2879 -0.1984
  129OSM    C1113793   1.601   4.142   6.064  0.4517  0.5337 -0.3647
  129OSM   H11A13794   1.650   4.051   6.104 -0.9574 -0.7689 -1.4973
  129OSM   H11B13795   1.525   4.164   6.142  2.3405 -0.0775  1.7258
  129OSM      P13796   1.841   4.229   5.984  0.2060  0.2507  0.1612
  129OSM    O1313797   1.831   4.106   5.902 -0.3407  0.2113  0.1281
  129OSM    O1413798   1.886   4.352   5.920 -0.0505 -0.0933  0.0717
  129OSM    O1113799   1.918   4.195   6.120 -0.1189 -0.7469 -0.1937
  129OSM    O1213800   1.688   4.253   6.042 -0.3744 -0.3327  0.7004
  129OSM    C1S13801   1.930   4.293   6.221 -0.5302 -0.2971  0.0315
  129OSM    H1S13802   1.905   4.399   6.197  0.0746  0.1294  1.2258
  129OSM    H1T13803   2.034   4.290   6.257 -0.4463 -2.5156 -0.2602
  129OSM     NF13804   1.824   4.352   6.438 -0.6136 -0.1397  0.0686
  129OSM    HNF13805   1.872   4.344   6.525  0.5887  2.0465 -0.3152
  129OSM    C2S13806   1.842   4.249   6.343 -0.0147  0.1775  0.5112
  129OSM    H2S13807   1.741   4.219   6.306 -0.1364  0.5555  0.5346
  129OSM    C3S13808   1.888   4.120   6.412 -0.4766 -0.2743 -0.0037
  129OSM    H3S13809   1.990   4.149   6.445 -0.7710  1.6860 -0.7246
  129OSM     O313810   1.911   4.010   6.323  0.4431 -0.7073 -0.2667
  129OSM    HO313811   1.894   4.047   6.235 -0.0771  0.9833  0.5071
  129OSM    C4S13812   1.798   4.080   6.521  0.3730  0.0911 -0.7406
  129OSM    H4S13813   1.693   4.081   6.488 -0.0873 -2.0274  0.4824
  129OSM    C5S13814   1.827   4.069   6.650 -0.3938  0.0592  0.3198
  129OSM    H5S13815   1.929   4.104   6.670 -1.1615  2.4477  0.3094
  129OSM    C6S13816   1.732   4.036   6.763  0.0204  0.5986  0.5681
  129OSM    H6S13817   1.754   3.934   6.802  0.3437 -0.2009 -1.5964
  129OSM    H6T13818   1.627   4.036   6.728  0.4796 -0.0348 -0.8705
  129OSM    C7S13819   1.737   4.142   6.875 -0.0792 -0.1689 -0.4825
  129OSM    H7S13820   1.723   4.246   6.837  1.0546  0.1541 -0.0431
  129OSM    H7T13821   1.843   4.136   6.906  0.2639 -0.7083 -1.6943
  129OSM    C8S13822   1.642   4.116   6.993 -0.6353 -0.2368  0.3128
  129OSM    H8S13823   1.636   4.007   7.012  0.4107 -0.5092 -0.8106
  129OSM    H8T13824   1.546   4.159   6.959  0.0990  1.5066  0.2971
  129OSM    C9S13825   1.682   4.188   7.119  0.3073 -0.1262 -0.9866
  129OSM    H9S13826   1.658   4.296   7.102 -0.3465  0.1649  1.4019
  129OSM    H9T13827   1.791   4.181   7.137  0.5804  0.9494 -2.1131
  129OSM   C10S13828   1.587   4.151   7.235  0.2314  0.0979 -0.1629
  129OSM   H10S13829   1.621   4.047   7.256  0.7714  0.8168  3.0427
  129OSM   H10T13830   1.482   4.148   7.199 -0.1936  4.2878  0.1877
  129OSM   C11S13831   1.582   4.232   7.367  0.3521  0.2937  0.4817
  129OSM   H11S13832   1.574   4.341   7.348 -0.2125 -0.0347 -1.3560
  129OSM   H11T13833   1.681   4.219   7.415  0.6616  2.0323  0.3843
  129OSM   C12S13834   1.468   4.178   7.457  0.3877 -0.1238  0.0390
  129OSM   H12S13835   1.490   4.069   7.467  4.6858  0.5771  0.1565
  129OSM   H12T13836   1.373   4.195   7.402  1.0827  1.3197 -0.7770
  129OSM   C13S13837   1.464   4.228   7.597 -0.3862 -0.0085 -0.3421
  129OSM   H13S13838   1.564   4.233   7.645 -0.1414 -1.4612 -0.6753
  129OSM   H13T13839   1.415   4.151   7.661  1.0995 -1.3237 -0.7270
  129OSM   C14S13840   1.411   4.367   7.612 -0.6732  0.3445 -0.4442
  129OSM   H14S13841   1.300   4.358   7.610 -0.6983  0.8182 -1.0841
  129OSM   H14T13842   1.447   4.440   7.538  1.4534  1.2610  1.3847
  129OSM   C15S13843   1.440   4.423   7.749  0.3895  0.9642 -0.0925
  129OSM   H15S13844   1.543   4.464   7.753  0.7166  0.0711  1.4016
  129OSM   H15T13845   1.432   4.338   7.820 -0.4650  0.6915 -0.5054
  129OSM   C16S13846   1.335   4.531   7.794 -0.0310 -0.1676 -0.4712
  129OSM   H16S13847   1.235   4.482   7.790 -0.3308  0.3809  0.1776
  129OSM   H16T13848   1.336   4.615   7.722 -2.1008 -0.3897 -0.8191
  129OSM   C17S13849   1.364   4.582   7.936 -0.0335 -0.4121  0.7198
  129OSM   H17S13850   1.453   4.648   7.931 -0.5140  0.1626 -1.1183
  129OSM   H17T13851   1.397   4.493   7.994  2.2984 -1.2240 -1.6487
  129OSM   C18S13852   1.239   4.631   8.007 -0.0595  0.2048 -0.9043
  129OSM   H18S13853   1.272   4.674   8.104 -0.9468 -0.7522 -0.1406
  129OSM   H18T13854   1.175   4.545   8.040  0.0701  0.4465  0.0151
  129OSM   H18U13855   1.180   4.703   7.946  1.1916  1.2587 -0.8989
  129OSM    C1F13856   1.757   4.470   6.416  1.1677 -0.0267 -0.4215
  129OSM     OF13857   1.694   4.491   6.307  0.4379 -0.2898 -0.1916
  129OSM    C2F13858   1.752   4.574   6.527 -0.3410  0.3368 -0.1245
  129OSM    H2F13859   1.719   4.672   6.487 -2.0832  0.0185  0.4588
  129OSM    H2G13860   1.853   4.602   6.565  0.6256 -1.8814 -0.8227
  129OSM    C3F13861   1.649   4.527   6.632 -0.5997 -0.1493 -0.0828
  129OSM    H3F13862   1.691   4.448   6.698 -0.3610  1.1488  1.3645
  129OSM    H3G13863   1.552   4.497   6.587 -1.7053 -0.7548  2.4888
  129OSM    C4F13864   1.616   4.636   6.741  0.3553  0.1311  0.1661
  129OSM    H4F13865   1.523   4.689   6.711  0.8879  1.9664  1.5734
  129OSM    H4G13866   1.698   4.709   6.728  1.2484 -1.2433 -2.7242
  129OSM    C5F13867   1.616   4.576   6.889  0.0213  0.4137  0.5845
  129OSM    H5F13868   1.711   4.522   6.907  1.0054  0.1594 -4.0358
  129OSM    H5G13869   1.536   4.499   6.897  0.7312 -0.5030 -0.7127
  129OSM    C6F13870   1.578   4.677   6.999 -0.2283  0.2393 -0.1424
  129OSM    H6F13871   1.478   4.718   6.972 -0.0907 -0.0797 -1.1886
  129OSM    H6G13872   1.644   4.765   7.013 -2.3920  1.5033  3.4779
  129OSM    C7F13873   1.578   4.622   7.143  0.3782  0.7715  0.8801
  129OSM    H7F13874   1.667   4.560   7.166 -0.9975 -1.7277 -0.1346
  129OSM    H7G13875   1.493   4.556   7.168 -1.2048  2.7277  0.9698
  129OSM    C8F13876   1.562   4.739   7.242  0.4179 -0.4818 -0.3336
  129OSM    H8F13877   1.465   4.778   7.204  0.6878  1.4662  0.8151
  129OSM    H8G13878   1.641   4.815   7.224 -0.2625  0.7127  1.3421
  129OSM    C9F13879   1.557   4.679   7.379 -0.0731  0.6441 -0.0891
  129OSM    H9F13880   1.579   4.571   7.371 -1.0307  0.4503 -0.1889
  129OSM   C10F13881   1.550   4.737   7.500 -0.2830 -0.3952 -1.0846
  129OSM   H10F13882   1.554   4.678   7.593  0.0529 -0.9017 -1.4186
  129OSM   C11F13883   1.540   4.886   7.525  0.1989  0.0934 -0.0309
  129OSM   H11F13884   1.513   4.941   7.433 -0.4995  3.3241  1.9347
  129OSM   H11G13885   1.630   4.937   7.565  1.6673 -1.6884 -0.9018
  129OSM   C12F13886   1.414   4.913   7.608 -0.3940 -0.4691 -0.3347
  129OSM   H12F13887   1.439   4.877   7.710  0.0701  0.2304 -0.1979
  129OSM   H12G13888   1.322   4.859   7.574  0.2996 -0.7239 -1.9106
  129OSM   C13F13889   1.393   5.065   7.629 -0.3628  0.0163 -0.5684
  129OSM   H13F13890   1.413   5.118   7.534  0.3750 -0.9332 -0.9507
  129OSM   H13G13891   1.477   5.109   7.686  0.9556  0.0579 -2.4667
  129OSM   C14F13892   1.263   5.103   7.697 -0.1334 -0.1530  0.0891
  129OSM   H14F13893   1.173   5.046   7.665  0.4171 -0.4598 -0.9558
  129OSM   H14G13894   1.257   5.214   7.687 -1.6289 -0.2219 -0.0797
  129OSM   C15F13895   1.269   5.083   7.849 -0.5331 -0.3417  0.0242
  129OSM   H15F13896   1.346   5.146   7.899 -0.0602 -0.3635 -0.6717
  129OSM   H15G13897   1.303   4.979   7.865  0.2964  0.2503  2.6486
  129OSM   C16F13898   1.136   5.119   7.911  0.5673 -0.1139 -0.3016
  129OSM   H16F13899   1.054   5.059   7.866 -0.3792 -1.7035  3.1996
  129OSM   H16G13900   1.109   5.224   7.884 -3.1111 -1.0903 -0.8849
  129OSM   C17F13901   1.132   5.085   8.057 -0.5383  0.6705 -0.4712
  129OSM   H17F13902   1.219   5.131   8.108  0.4472 -1.2681 -0.3365
  129OSM   H17G13903   1.124   4.975   8.065 -3.7152  0.6878 -1.9542
  129OSM   C18F13904   1.000   5.127   8.129  0.0533 -0.0083 -0.2643
  129OSM   H18F13905   0.923   5.119   8.049  0.1502  0.2786 -0.3915
  129OSM   H18G13906   0.998   5.233   8.162 -0.1970 -0.6934  2.0812
  129OSM   H18H13907   0.978   5.065   8.218 -0.0392  2.4146  1.5097
  130OSM      N13908   1.445   3.067   6.253  0.5915 -0.2206 -0.1251
  130OSM    C1513909   1.574   3.016   6.199 -0.5407  0.4351 -0.5721
  130OSM   H15A13910   1.658   3.067   6.244 -1.9840  0.0716  2.8427
  130OSM   H15B13911   1.577   3.027   6.091  1.2460  0.9695 -0.5040
  130OSM   H15C13912   1.578   2.911   6.225  0.5582  0.5226 -0.3355
  130OSM    C1413913   1.328   3.015   6.173  0.1717  0.2198 -0.0522
  130OSM   H14A13914   1.242   3.074   6.203  0.4329  1.3748 -1.4390
  130OSM   H14B13915   1.322   2.908   6.189  0.1181  0.0944 -0.8913
  130OSM   H14C13916   1.339   3.041   6.069 -1.4295  1.6905  0.0866
  130OSM    C1313917   1.435   3.010   6.387  0.2023  0.2525 -0.4895
  130OSM   H13A13918   1.457   2.904   6.392  0.3653  0.1463 -2.4384
  130OSM   H13B13919   1.335   3.027   6.424 -0.3699  0.3838 -2.0107
  130OSM   H13C13920   1.499   3.060   6.458 -0.0938 -0.8579  0.5918
  130OSM    C1213921   1.432   3.221   6.244  0.2747 -0.7765  0.2809
  130OSM   H12A13922   1.430   3.257   6.142 -0.1387  0.3581  0.6731
  130OSM   H12B13923   1.514   3.262   6.301 -0.2981 -1.1088  1.3648
  130OSM    C1113924   1.295   3.281   6.308  1.2059  0.4528 -0.2771
  130OSM   H11A13925   1.314   3.384   6.345  1.1555 -0.1200  1.4227
  130OSM   H11B13926   1.276   3.221   6.399  3.5027 -1.4953 -1.0031
  130OSM      P13927   1.119   3.387   6.126 -0.0200  0.0954  0.0860
  130OSM    O1313928   1.220   3.436   6.024 -0.6561 -0.1262  0.3725
  130OSM    O1413929   0.995   3.337   6.076  0.2896 -0.0602  0.1294
  130OSM    O1113930   1.082   3.504   6.225  0.3246 -0.2550 -0.0019
  130OSM    O1213931   1.181   3.271   6.217 -0.4620  0.2580 -0.2774
  130OSM    C1S13932   0.959   3.498   6.301  0.2035 -0.6977  0.5149
  130OSM    H1S13933   0.936   3.396   6.337  0.3148  0.3217  3.8325
  130OSM    H1T13934   0.883   3.552   6.240  0.4907 -0.5968  0.2453
  130OSM     NF13935   0.822   3.585   6.475  0.4153 -0.0618 -0.8664
  130OSM    HNF13936   0.771   3.670   6.464 -1.1019 -0.7102  0.6279
  130OSM    C2S13937   0.965   3.576   6.436 -0.3583 -0.5202  0.0620
  130OSM    H2S13938   1.018   3.514   6.512 -0.3580 -1.4561 -0.6877
  130OSM    C3S13939   1.035   3.714   6.417 -0.4003 -0.0835 -0.0840
  130OSM    H3S13940   0.977   3.765   6.337 -2.3390 -0.0416  1.2657
  130OSM     O313941   1.173   3.702   6.383 -0.4305  0.2091  0.4293
  130OSM    HO313942   1.195   3.615   6.350 -1.2886  0.6874 -1.5419
  130OSM    C4S13943   1.027   3.801   6.540  0.8272  0.6325  0.3900
  130OSM    H4S13944   1.075   3.761   6.631 -4.6585 -4.5741  1.6521
  130OSM    C5S13945   0.937   3.897   6.559 -0.2647 -0.4558  0.3187
  130OSM    H5S13946   0.874   3.930   6.476  0.6979  2.1529  0.5310
  130OSM    C6S13947   0.924   3.974   6.681  0.6627  0.0328  0.3861
  130OSM    H6S13948   0.824   4.023   6.684  0.6275 -0.0814  3.3040
  130OSM    H6T13949   0.995   4.059   6.675 -0.6703  1.2431  1.1504
  130OSM    C7S13950   0.924   3.893   6.816 -0.2199  0.3059  0.1505
  130OSM    H7S13951   1.022   3.843   6.831  0.2326  1.7881  2.6121
  130OSM    H7T13952   0.855   3.807   6.827  2.0400 -1.6471  0.0106
  130OSM    C8S13953   0.899   3.990   6.927  0.1307  0.4238  0.5374
  130OSM    H8S13954   0.808   4.047   6.900  1.0390  1.0223 -1.4970
  130OSM    H8T13955   0.975   4.071   6.924 -0.1276  0.6868  1.0085
  130OSM    C9S13956   0.877   3.935   7.066 -0.5178 -0.4580  0.0023
  130OSM    H9S13957   0.962   3.866   7.085  1.0980  1.8318  1.7845
  130OSM    H9T13958   0.779   3.883   7.065 -1.8544  1.8818  0.1626
  130OSM   C10S13959   0.866   4.045   7.168  0.1871 -0.1237  0.1125
  130OSM   H10S13960   0.771   4.101   7.157  0.0122 -0.1700  1.3074
  130OSM   H10T13961   0.942   4.120   7.136  1.1588 -1.0676  0.1397
  130OSM   C11S13962   0.871   3.990   7.312  0.5487  0.1065 -0.3771
  130OSM   H11S13963   0.971   3.949   7.339 -0.0253 -1.7018 -0.8610
  130OSM   H11T13964   0.790   3.922   7.346 -0.9019  2.1519  0.4546
  130OSM   C12S13965   0.871   4.115   7.415  0.1868  0.3318 -0.1290
  130OSM   H12S13966   0.873   4.071   7.517  1.5354  0.0643 -0.2592
  130OSM   H12T13967   0.779   4.177   7.410  0.3853  1.0022  2.7784
  130OSM   C13S13968   1.002   4.189   7.417 -0.0354  0.0413 -0.5824
  130OSM   H13S13969   1.013   4.243   7.320 -0.6105  1.8014  0.2972
  130OSM   H13T13970   1.093   4.124   7.418 -0.7268 -0.9433 -0.2195
  130OSM   C14S13971   1.013   4.295   7.528 -0.6804 -0.0343 -0.1145
  130OSM   H14S13972   0.924   4.360   7.514 -1.4795 -0.8078  1.1635
  130OSM   H14T13973   1.100   4.363   7.519  1.0957 -2.1541  0.4758
  130OSM   C15S13974   1.020   4.245   7.671 -0.1124  0.4265  0.7037
  130OSM   H15S13975   1.129   4.227   7.684  0.5804  3.8089  0.6870
  130OSM   H15T13976   0.957   4.160   7.701  0.7314 -0.3529  0.3261
  130OSM   C16S13977   0.981   4.358   7.772  0.0906  0.0444  0.2215
  130OSM   H16S13978   0.877   4.390   7.750  0.2679 -0.1221 -0.9238
  130OSM   H16T13979   1.045   4.446   7.747  0.1580 -0.2883 -0.7947
  130OSM   C17S13980   1.003   4.324   7.919  0.2669 -0.0928 -0.4184
  130OSM   H17S13981   0.960   4.408   7.976  1.7957  1.3645 -1.3235
  130OSM   H17T13982   1.112   4.329   7.938  0.0832 -1.1297  1.0729
  130OSM   C18S13983   0.951   4.187   7.962  1.0712  0.2766 -0.1462
  130OSM   H18S13984   0.983   4.105   7.894  1.4868 -1.0998  1.6372
  130OSM   H18T13985   0.840   4.189   7.966  1.0215  2.5598 -1.1713
  130OSM   H18U13986   0.985   4.172   8.066  1.5724  0.0800 -0.3312
  130OSM    C1F13987   0.757   3.478   6.521 -0.1170 -0.2958  0.0995
  130OSM     OF13988   0.816   3.371   6.539 -0.1590  0.5887  0.2299
  130OSM    C2F13989   0.611   3.491   6.544  0.0094 -0.7466  0.1459
  130OSM    H2F13990   0.555   3.494   6.447 -0.8899  2.5128  0.6410
  130OSM    H2G13991   0.583   3.587   6.593  0.5221 -0.3617 -0.2950
  130OSM    C3F13992   0.559   3.368   6.625 -0.0097 -0.9882 -0.0158
  130OSM    H3F13993   0.599   3.350   6.727  1.3667  1.9140  0.0394
  130OSM    H3G13994   0.589   3.273   6.576  2.5790 -1.3601  2.0621
  130OSM    C4F13995   0.407   3.388   6.634  0.0509 -0.1265  0.3775
  130OSM    H4F13996   0.365   3.400   6.532  0.6751 -0.1725  0.1071
  130OSM    H4G13997   0.381   3.485   6.682  0.8418 -0.8413  2.3544
  130OSM    C5F13998   0.344   3.279   6.721  0.5235 -0.0828  0.4301
  130OSM    H5F13999   0.388   3.183   6.686 -0.6300 -0.3592 -0.3205
  130OSM    H5G14000   0.238   3.266   6.692  0.4406  0.1275  0.6357
  130OSM    C6F14001   0.343   3.288   6.873  0.1729  0.7047 -0.6459
  130OSM    H6F14002   0.303   3.389   6.899 -1.2419 -0.3706  1.7143
  130OSM    H6G14003   0.448   3.278   6.907 -0.3831 -0.0286  0.9671
  130OSM    C7F14004   0.257   3.181   6.937  0.2951 -0.2992 -0.1749
  130OSM    H7F14005   0.310   3.083   6.939  0.0671 -0.4126  0.3051
  130OSM    H7G14006   0.162   3.170   6.880 -0.2966  0.9199  0.5219
  130OSM    C8F14007   0.208   3.202   7.084 -0.0997 -0.5601 -0.3974
  130OSM    H8F14008   0.142   3.114   7.101 -0.6487 -0.2843 -1.0376
  130OSM    H8G14009   0.140   3.290   7.081  1.1793  0.5148  0.8823
  130OSM    C9F14010   0.321   3.215   7.183  0.5802 -0.8582 -0.6360
  130OSM    H9F14011   0.411   3.274   7.161  0.1410 -0.2154 -0.7367
  130OSM   C10F14012   0.311   3.171   7.317  0.0157 -0.0528  0.0854
  130OSM   H10F14013   0.399   3.176   7.383 -0.5826  1.6383  0.8193
  130OSM   C11F14014   0.194   3.101   7.384  0.1819 -0.8199 -0.6632
  130OSM   H11F14015   0.228   3.003   7.424 -0.4122 -0.3440  1.0975
  130OSM   H11G14016   0.110   3.071   7.317 -1.8034 -0.8134  1.6914
  130OSM   C12F14017   0.142   3.167   7.512  0.0415 -0.3647 -0.4037
  130OSM   H12F14018   0.064   3.098   7.550 -0.6971  0.2824 -0.7333
  130OSM   H12G14019   0.098   3.266   7.488  4.0016  2.2697  2.0098
  130OSM   C13F14020   0.249   3.161   7.624 -0.5189 -0.3240 -0.2905
  130OSM   H13F14021   0.332   3.227   7.591 -1.2180  0.0796 -1.2905
  130OSM   H13G14022   0.291   3.059   7.630  0.0377 -0.0983 -0.2815
  130OSM   C14F14023   0.200   3.206   7.759 -0.3157  0.0088  0.6379
  130OSM   H14F14024   0.110   3.150   7.791 -1.1714  0.8718 -0.2297
  130OSM   H14G14025   0.156   3.306   7.743  2.1124  0.9899 -0.4281
  130OSM   C15F14026   0.308   3.204   7.866  0.4545  0.8877  0.9454
  130OSM   H15F14027   0.397   3.258   7.826 -0.1588  1.1324 -0.1106
  130OSM   H15G14028   0.352   3.103   7.884 -0.1838  0.8736  2.5297
  130OSM   C16F14029   0.268   3.282   7.987 -0.7815 -0.1089 -0.2684
  130OSM   H16F14030   0.218   3.372   7.947 -1.1082 -0.3216 -0.3453
  130OSM   H16G14031   0.360   3.302   8.047 -0.4706  0.0196 -0.7806
  130OSM   C17F14032   0.174   3.209   8.075 -0.5727  0.6317 -0.2365
  130OSM   H17F14033   0.228   3.122   8.118  0.8973  0.8417 -1.5760
  130OSM   H17G14034   0.084   3.177   8.019  0.0410 -0.8385 -0.4070
  130OSM   C18F14035   0.126   3.303   8.188 -0.0883 -0.0901 -0.1839
  130OSM   H18F14036   0.071   3.393   8.152 -0.9376  0.0311  1.3061
  130OSM   H18G14037   0.217   3.340   8.239 -0.8082  0.7022  0.5608
  130OSM   H18H14038   0.066   3.248   8.264 -2.4374  1.9546 -0.4133
  131OSM      N14039   1.182   0.125   6.149 -0.7261 -0.3200 -0.0658
  131OSM    C1514040   1.106   0.034   6.062 -0.0182  0.3468  0.2116
  131OSM   H15A14041   1.007   0.026   6.105  0.5311  1.8949  1.8906
  131OSM   H15B14042   1.148  -0.065   6.057  1.2956  0.8622  0.5494
  131OSM   H15C14043   1.098   0.068   5.960  1.6061 -0.3226 -0.1643
  131OSM    C1414044   1.324   0.141   6.101  0.3128 -0.2809  0.6599
  131OSM   H14A14045   1.311   0.180   6.001 -1.7318 -1.5331  0.3758
  131OSM   H14B14046   1.370   0.044   6.087  2.0299  0.5974 -0.0649
  131OSM   H14C14047   1.389   0.202   6.161  3.2706 -2.2855 -0.2644
  131OSM    C1314048   1.117   0.261   6.153 -0.8556  0.4832 -0.3225
  131OSM   H13A14049   1.033   0.268   6.220 -0.8228 -1.1474 -0.0697
  131OSM   H13B14050   1.081   0.280   6.053  0.2210  2.0287 -0.4526
  131OSM   H13C14051   1.196   0.328   6.183  2.4655 -2.8548 -0.8069
  131OSM    C1214052   1.180   0.077   6.289 -0.2087  0.7418  0.5867
  131OSM   H12A14053   1.085   0.097   6.335 -0.9640 -3.8414  1.5468
  131OSM   H12B14054   1.250   0.135   6.348  1.5968 -1.3355  0.6179
  131OSM    C1114055   1.204  -0.078   6.311 -0.1135  0.3716 -0.0615
  131OSM   H11A14056   1.114  -0.138   6.284  1.5972 -2.3592 -0.1074
  131OSM   H11B14057   1.216  -0.090   6.420 -0.3553 -0.7456 -0.1457
  131OSM      P14058   1.306  -0.289   6.213 -0.1064 -0.4362  0.7208
  131OSM    O1314059   1.205  -0.304   6.106  0.6968  1.1359 -0.2065
  131OSM    O1414060   1.441  -0.342   6.191 -0.3597  0.2590 -0.5799
  131OSM    O1114061   1.238  -0.334   6.348 -0.0598  0.0571 -0.3322
  131OSM    O1214062   1.316  -0.129   6.233 -0.0442 -0.0865  0.1853
  131OSM    C1S14063   1.311  -0.375   6.464 -0.8731  0.3579  0.1520
  131OSM    H1S14064   1.367  -0.286   6.500  1.0072 -0.4453 -0.6829
  131OSM    H1T14065   1.377  -0.460   6.437 -1.3351  0.3520 -1.0218
  131OSM     NF14066   1.299  -0.440   6.693 -0.5984  0.0857  0.4310
  131OSM    HNF14067   1.350  -0.526   6.696  1.3606  1.1972  3.0591
  131OSM    C2S14068   1.217  -0.419   6.576  0.1796  0.2175 -0.1896
  131OSM    H2S14069   1.137  -0.342   6.590 -0.6073 -0.6327  0.0768
  131OSM    C3S14070   1.142  -0.553   6.533 -0.1539  0.2753 -0.0250
  131OSM    H3S14071   1.223  -0.626   6.511 -0.3527  0.2645 -0.7751
  131OSM     O314072   1.073  -0.550   6.407  0.0064  0.0479 -0.5975
  131OSM    HO314073   1.107  -0.474   6.360  0.7990 -0.9710 -1.7520
  131OSM    C4S14074   1.052  -0.602   6.643  0.5676 -0.0327 -0.0071
  131OSM    H4S14075   0.975  -0.543   6.695  0.2402 -2.0341  1.9590
  131OSM    C5S14076   1.069  -0.722   6.695  0.9937  0.5728 -1.0948
  131OSM    H5S14077   1.167  -0.769   6.677  1.3705  1.4447 -1.3709
  131OSM    C6S14078   0.987  -0.784   6.814 -0.0909 -0.0240 -0.0064
  131OSM    H6S14079   1.056  -0.822   6.892 -0.8643  0.7165  1.0707
  131OSM    H6T14080   0.936  -0.875   6.774  0.0193 -0.0875 -0.0035
  131OSM    C7S14081   0.882  -0.696   6.888 -0.2805 -0.2705  0.5639
  131OSM    H7S14082   0.809  -0.656   6.814 -1.9755 -1.7531  1.3744
  131OSM    H7T14083   0.946  -0.612   6.923  1.3830 -0.8143 -0.9972
  131OSM    C8S14084   0.812  -0.764   7.005  0.9111 -0.0614 -0.3771
  131OSM    H8S14085   0.807  -0.874   6.985 -0.3898 -0.5408  2.2191
  131OSM    H8T14086   0.707  -0.731   7.010  0.5217 -1.2535 -0.2249
  131OSM    C9S14087   0.885  -0.733   7.139 -0.4683  0.2990 -0.6221
  131OSM    H9S14088   0.876  -0.623   7.154 -0.0563  0.1933  0.5266
  131OSM    H9T14089   0.994  -0.748   7.124 -0.9363 -1.9037 -2.3485
  131OSM   C10S14090   0.836  -0.805   7.259 -0.1550  0.0757  0.3424
  131OSM   H10S14091   0.897  -0.897   7.266 -0.5569 -0.3978 -1.7196
  131OSM   H10T14092   0.727  -0.827   7.270  0.2047 -1.0973  1.8117
  131OSM   C11S14093   0.864  -0.727   7.384 -0.4224  0.0904  0.5614
  131OSM   H11S14094   0.790  -0.644   7.373 -0.3468 -0.0175 -1.0774
  131OSM   H11T14095   0.957  -0.667   7.383 -1.5423  1.9393 -0.8856
  131OSM   C12S14096   0.830  -0.804   7.514  0.1910 -0.1109  1.2059
  131OSM   H12S14097   0.921  -0.854   7.554 -0.1161 -1.0464  0.7610
  131OSM   H12T14098   0.755  -0.884   7.496  0.0280  0.5393 -1.4131
  131OSM   C13S14099   0.774  -0.709   7.621  0.1310 -0.2048 -0.1475
  131OSM   H13S14100   0.670  -0.691   7.586 -0.4587 -3.0257 -0.0555
  131OSM   H13T14101   0.825  -0.610   7.620  2.3982 -1.3245 -0.4854
  131OSM   C14S14102   0.783  -0.754   7.765  0.0547 -0.4036 -0.4405
  131OSM   H14S14103   0.889  -0.758   7.798  0.3871  0.9187 -1.2532
  131OSM   H14T14104   0.758  -0.861   7.781 -2.6058  0.1242 -0.6423
  131OSM   C15S14105   0.712  -0.664   7.863 -0.2382  0.6075  0.5844
  131OSM   H15S14106   0.602  -0.676   7.846 -0.0601  1.7887 -1.7547
  131OSM   H15T14107   0.743  -0.558   7.865 -0.8195  0.8342 -1.1377
  131OSM   C16S14108   0.718  -0.729   8.006  0.5043 -0.2834 -0.9178
  131OSM   H16S14109   0.800  -0.804   8.006  2.4642  1.6910 -3.2295
  131OSM   H16T14110   0.621  -0.772   8.038  0.6208 -1.2184 -1.7963
  131OSM   C17S14111   0.773  -0.637   8.123 -0.1873 -0.2437 -0.4585
  131OSM   H17S14112   0.700  -0.554   8.134 -1.2281 -1.3110  1.0802
  131OSM   H17T14113   0.871  -0.599   8.087 -0.0610  0.0028  0.1454
  131OSM   C18S14114   0.781  -0.709   8.255 -0.8049 -0.0555  0.0776
  131OSM   H18S14115   0.862  -0.784   8.241  0.0339  1.0286 -1.0547
  131OSM   H18T14116   0.694  -0.774   8.275 -1.3695  0.4496 -0.6774
  131OSM   H18U14117   0.809  -0.654   8.347  1.0020 -0.3273 -0.2569
  131OSM    C1F14118   1.349  -0.339   6.767  0.3211 -0.5127 -0.3154
  131OSM     OF14119   1.307  -0.224   6.745 -0.4004 -0.0125  0.1280
  131OSM    C2F14120   1.453  -0.363   6.868 -0.9793  0.3808 -0.2006
  131OSM    H2F14121   1.548  -0.396   6.821 -1.2770 -0.4100 -0.2709
  131OSM    H2G14122   1.410  -0.449   6.923 -2.1017  0.9030 -0.2344
  131OSM    C3F14123   1.476  -0.230   6.933  0.0812  0.4120 -0.7337
  131OSM    H3F14124   1.377  -0.191   6.966 -0.9387 -3.0530  0.8333
  131OSM    H3G14125   1.528  -0.157   6.868  0.4326 -1.5416 -2.7472
  131OSM    C4F14126   1.571  -0.242   7.054 -0.4516  0.1578 -0.8932
  131OSM    H4F14127   1.614  -0.143   7.079  0.3942  0.4262 -3.1796
  131OSM    H4G14128   1.661  -0.297   7.020  0.7434  0.9249  0.8457
  131OSM    C5F14129   1.513  -0.304   7.185 -0.0947  0.6896 -0.1934
  131OSM    H5F14130   1.450  -0.393   7.162  0.1837  0.6984 -1.0202
  131OSM    H5G14131   1.451  -0.237   7.248 -0.4945 -1.0592  1.3594
  131OSM    C6F14132   1.627  -0.335   7.292 -0.4029  0.0456 -0.5871
  131OSM    H6F14133   1.605  -0.278   7.384 -0.0907  2.4885 -1.9252
  131OSM    H6G14134   1.725  -0.295   7.256 -0.9543  1.6032 -0.4182
  131OSM    C7F14135   1.636  -0.480   7.321  0.3335  0.1338 -0.4439
  131OSM    H7F14136   1.679  -0.532   7.233  0.2374  1.1668 -1.1041
  131OSM    H7G14137   1.533  -0.522   7.333  0.4454  0.3205  1.5362
  131OSM    C8F14138   1.703  -0.527   7.453  0.3263 -0.4894  0.1656
  131OSM    H8F14139   1.718  -0.637   7.447 -1.1820 -0.6469 -2.1520
  131OSM    H8G14140   1.633  -0.509   7.537  0.2782  1.0082 -0.1715
  131OSM    C9F14141   1.840  -0.464   7.476  0.2525  0.7561 -0.1953
  131OSM    H9F14142   1.906  -0.451   7.388  0.4905 -0.2543 -0.1795
  131OSM   C10F14143   1.888  -0.428   7.594  0.5439  0.3167 -0.6787
  131OSM   H10F14144   1.991  -0.389   7.595  1.1056 -1.0319 -1.9725
  131OSM   C11F14145   1.807  -0.453   7.724  0.2874  0.2635 -0.0072
  131OSM   H11F14146   1.748  -0.546   7.710  1.1437 -0.1617 -0.9857
  131OSM   H11G14147   1.736  -0.371   7.745 -0.0594  0.1505 -0.7109
  131OSM   C12F14148   1.901  -0.466   7.843 -0.1768 -0.3503  0.0283
  131OSM   H12F14149   1.950  -0.369   7.864 -0.7714  0.0276 -0.3094
  131OSM   H12G14150   1.980  -0.541   7.820 -0.1746 -0.7167  1.1692
  131OSM   C13F14151   1.836  -0.518   7.969 -0.9506  0.2112  0.9125
  131OSM   H13F14152   1.785  -0.616   7.955 -3.9912  1.5002  1.9593
  131OSM   H13G14153   1.760  -0.445   8.005  0.8675  1.6017  2.1570
  131OSM   C14F14154   1.944  -0.545   8.077 -1.0052  0.3468  0.3105
  131OSM   H14F14155   1.971  -0.449   8.125 -0.1766  0.2369  0.0787
  131OSM   H14G14156   2.034  -0.592   8.032 -1.8824  0.1638 -1.3203
  131OSM   C15F14157   1.886  -0.644   8.182  0.1196 -0.5079 -0.3919
  131OSM   H15F14158   1.978  -0.689   8.227  1.8306  1.3854 -1.8020
  131OSM   H15G14159   1.828  -0.724   8.132  0.6002 -1.4247  0.4727
  131OSM   C16F14160   1.798  -0.579   8.294  0.9662 -0.1268  0.2324
  131OSM   H16F14161   1.727  -0.512   8.242  0.4277  0.3874  1.5876
  131OSM   H16G14162   1.858  -0.517   8.365  1.0845 -1.1227  1.0286
  131OSM   C17F14163   1.727  -0.681   8.390 -0.3269 -0.0877  0.8900
  131OSM   H17F14164   1.638  -0.721   8.335 -1.4945  2.8455  0.4546
  131OSM   H17G14165   1.681  -0.638   8.481 -0.7593  1.5657 -0.0704
  131OSM   C18F14166   1.820  -0.795   8.433  0.0566 -0.7404  0.3962
  131OSM   H18F14167   1.856  -0.848   8.342 -0.9140  0.1104 -0.5111
  131OSM   H18G14168   1.765  -0.865   8.500  0.2857 -1.4551 -0.1522
  131OSM   H18H14169   1.900  -0.741   8.488 -1.5531  2.0113  0.2155
  132OSM      N14170   4.496   4.042   5.817  0.5048  0.0394  0.5732
  132OSM    C1514171   4.549   4.177   5.790 -0.5969 -0.1278  0.3258
  132OSM   H15A14172   4.493   4.255   5.840 -0.7294  1.2917 -1.9039
  132OSM   H15B14173   4.550   4.210   5.687  0.0161  0.2467  0.4448
  132OSM   H15C14174   4.646   4.186   5.836 -0.5049 -5.5091  1.7916
  132OSM    C1414175   4.590   3.942   5.747 -0.0752 -0.5581 -0.3709
  132OSM   H14A14176   4.583   3.957   5.640  2.0651  1.5495 -0.3103
  132OSM   H14B14177   4.566   3.840   5.772  0.5317 -0.3313  1.2709
  132OSM   H14C14178   4.691   3.971   5.773  0.6435 -2.2191 -1.1431
  132OSM    C1314179   4.499   3.999   5.958 -0.7209 -0.2824  0.1798
  132OSM   H13A14180   4.503   3.892   5.968  1.1777 -0.1367  1.2907
  132OSM   H13B14181   4.413   4.038   6.012  0.4480  0.8852  1.2634
  132OSM   H13C14182   4.585   4.039   6.008 -0.5929  2.2588 -1.8393
  132OSM    C1214183   4.355   4.029   5.761 -0.0921  0.2047 -0.0783
  132OSM   H12A14184   4.324   3.928   5.781  1.5204  0.0141  1.7926
  132OSM   H12B14185   4.352   4.058   5.657 -0.9122  1.1748  0.1913
  132OSM    C1114186   4.244   4.118   5.814 -0.1489 -0.6133  0.3480
  132OSM   H11A14187   4.154   4.090   5.755 -0.3860 -1.0982  0.9169
  132OSM   H11B14188   4.281   4.220   5.793 -1.8439 -0.2543 -1.0842
  132OSM      P14189   4.151   3.981   6.014  0.5903  0.0123  0.2134
  132OSM    O1314190   4.021   4.034   6.059 -0.2191  0.7007  0.0355
  132OSM    O1414191   4.152   3.873   5.911 -0.1491  0.2004 -0.3619
  132OSM    O1114192   4.244   3.951   6.138 -0.1523  0.0121  0.4218
  132OSM    O1214193   4.220   4.106   5.947 -0.1342 -0.5788  0.1489
  132OSM    C1S14194   4.267   4.053   6.238 -0.4245 -0.0051 -0.1237
  132OSM    H1S14195   4.170   4.101   6.264 -0.7825  0.2468 -1.7881
  132OSM    H1T14196   4.331   4.128   6.188  2.3540 -0.8902  1.8882
  132OSM     NF14197   4.332   4.094   6.479  0.6232 -0.2779 -0.0866
  132OSM    HNF14198   4.412   4.154   6.484  0.0084  0.4634  1.2696
  132OSM    C2S14199   4.338   4.000   6.367 -0.3289  0.0472  0.5857
  132OSM    H2S14200   4.279   3.911   6.397  2.4341 -1.8049  0.8959
  132OSM    C3S14201   4.476   3.945   6.333 -0.2492 -0.4801  0.3797
  132OSM    H3S14202   4.526   4.035   6.291 -0.2026 -1.5928 -2.1438
  132OSM     O314203   4.477   3.852   6.219 -0.5359 -0.4480 -0.6584
  132OSM    HO314204   4.389   3.857   6.182 -0.9070 -0.9495  0.1537
  132OSM    C4S14205   4.554   3.888   6.448 -0.2929 -0.6462  0.0030
  132OSM    H4S14206   4.619   3.959   6.500 -2.3967  2.5747 -1.4379
  132OSM    C5S14207   4.559   3.762   6.491  0.0329 -0.1988  0.4915
  132OSM    H5S14208   4.500   3.682   6.444 -0.0532  0.3177 -0.2915
  132OSM    C6S14209   4.651   3.714   6.610  0.7330  0.0564 -0.3294
  132OSM    H6S14210   4.760   3.714   6.591  0.7555 -2.4783 -0.5553
  132OSM    H6T14211   4.634   3.605   6.620 -0.0029  0.2894  1.3368
  132OSM    C7S14212   4.614   3.773   6.739 -0.0275  0.4124 -0.7817
  132OSM    H7S14213   4.504   3.780   6.751  0.0268  0.8132 -0.4785
  132OSM    H7T14214   4.657   3.874   6.757  3.0247 -0.9144  0.0964
  132OSM    C8S14215   4.657   3.683   6.859  0.1133 -0.1794  0.4740
  132OSM    H8S14216   4.765   3.660   6.848  0.5828  1.5070  1.2604
  132OSM    H8T14217   4.608   3.584   6.851  1.0527 -0.6939  0.8369
  132OSM    C9S14218   4.623   3.743   6.999 -0.4319 -0.1354 -0.8680
  132OSM    H9S14219   4.512   3.754   7.004 -0.6183 -2.0571  2.3959
  132OSM    H9T14220   4.673   3.842   7.004 -2.8619  1.1407  3.1668
  132OSM   C10S14221   4.658   3.647   7.111 -0.4147 -0.2557 -0.0517
  132OSM   H10S14222   4.767   3.631   7.108 -0.1849  0.7445  1.4757
  132OSM   H10T14223   4.616   3.548   7.085 -3.6142  1.2733 -1.3065
  132OSM   C11S14224   4.625   3.694   7.254  0.7361 -0.5000 -0.5683
  132OSM   H11S14225   4.516   3.701   7.274  0.1039  0.5378 -3.8653
  132OSM   H11T14226   4.672   3.794   7.262  1.9693 -1.1019 -0.0237
  132OSM   C12S14227   4.674   3.588   7.358  0.4349 -0.0658 -0.5021
  132OSM   H12S14228   4.784   3.584   7.349  0.7052 -1.0474  2.1874
  132OSM   H12T14229   4.635   3.484   7.354  0.5259 -0.4308  3.4503
  132OSM   C13S14230   4.647   3.635   7.503  0.1423  0.9349  0.4670
  132OSM   H13S14231   4.539   3.645   7.528 -0.3542 -1.2744 -0.4840
  132OSM   H13T14232   4.697   3.731   7.528  1.1965  0.2603  1.0412
  132OSM   C14S14233   4.707   3.552   7.619 -0.6039 -0.1988 -0.0536
  132OSM   H14S14234   4.815   3.558   7.643 -0.3541 -1.5253 -0.7461
  132OSM   H14T14235   4.684   3.444   7.611  0.4202 -0.4093 -0.3145
  132OSM   C15S14236   4.631   3.595   7.745  0.3655  1.1814 -0.1113
  132OSM   H15S14237   4.524   3.568   7.728  1.5138 -2.8478 -2.4362
  132OSM   H15T14238   4.638   3.703   7.769 -0.0653  0.7530  2.2819
  132OSM   C16S14239   4.676   3.519   7.870 -0.2383  0.9788 -0.5105
  132OSM   H16S14240   4.677   3.578   7.964 -1.4806 -2.2017  1.6750
  132OSM   H16T14241   4.781   3.487   7.856 -0.6641 -0.0551 -1.5258
  132OSM   C17S14242   4.588   3.403   7.912  0.9798 -0.2277 -0.2013
  132OSM   H17S14243   4.487   3.446   7.928  1.3684 -0.0066  1.9887
  132OSM   H17T14244   4.615   3.367   8.013 -0.7767 -4.2721 -0.9833
  132OSM   C18S14245   4.596   3.286   7.821  0.4621  0.0648  0.5437
  132OSM   H18S14246   4.703   3.257   7.816  0.1060 -2.2153  3.3579
  132OSM   H18T14247   4.563   3.314   7.719  1.4677 -1.0834 -0.1314
  132OSM   H18U14248   4.542   3.194   7.852 -0.6699 -0.1443 -1.8220
  132OSM    C1F14249   4.215   4.133   6.526 -0.3883 -0.2903 -0.3180
  132OSM     OF14250   4.111   4.084   6.489 -0.4858 -0.3449  0.8718
  132OSM    C2F14251   4.224   4.255   6.605 -0.1843 -0.4859  0.7310
  132OSM    H2F14252   4.168   4.340   6.560 -1.7221 -2.1916 -0.7291
  132OSM    H2G14253   4.333   4.274   6.597 -0.2777 -0.7298 -1.9126
  132OSM    C3F14254   4.188   4.227   6.751  0.0075  0.2486 -0.5761
  132OSM    H3F14255   4.082   4.193   6.758  0.4432 -0.9880  0.2336
  132OSM    H3G14256   4.203   4.319   6.811  2.2589  0.3530 -1.2001
  132OSM    C4F14257   4.276   4.116   6.810  0.1403 -0.0637 -1.0436
  132OSM    H4F14258   4.384   4.143   6.814  0.0353  0.2904 -0.6212
  132OSM    H4G14259   4.269   4.025   6.747 -1.7979  0.8737 -2.3014
  132OSM    C5F14260   4.240   4.098   6.952 -0.1999 -0.4180 -0.4862
  132OSM    H5F14261   4.130   4.095   6.964 -0.0211 -1.3101  1.3757
  132OSM    H5G14262   4.259   4.189   7.013 -2.1538 -0.6802  0.6035
  132OSM    C6F14263   4.302   3.979   7.023 -0.5021  0.1389 -0.2397
  132OSM    H6F14264   4.413   3.977   7.013 -0.1764  0.7111  2.4513
  132OSM    H6G14265   4.265   3.885   6.976 -2.5413  2.0347 -2.7435
  132OSM    C7F14266   4.261   3.968   7.173  0.5453  0.0505  0.2334
  132OSM    H7F14267   4.297   3.866   7.202 -0.5392 -0.3394  0.2679
  132OSM    H7G14268   4.151   3.970   7.181  0.4454  2.5935 -0.8329
  132OSM    C8F14269   4.332   4.071   7.263  0.0441  0.5594  0.0737
  132OSM    H8F14270   4.314   4.168   7.213 -2.7581 -0.0786 -0.3599
  132OSM    H8G14271   4.439   4.042   7.259  1.2430  4.3781  0.3625
  132OSM    C9F14272   4.266   4.061   7.402 -0.1611  0.4454 -0.4672
  132OSM    H9F14273   4.186   4.136   7.403 -0.0328  0.6257  1.8628
  132OSM   C10F14274   4.309   4.005   7.514  0.5408  0.6232  0.1622
  132OSM   H10F14275   4.243   4.010   7.602 -0.0063  0.8225 -0.2552
  132OSM   C11F14276   4.439   3.938   7.532 -0.7125  0.0023  0.5178
  132OSM   H11F14277   4.484   3.915   7.434 -2.5020 -0.7569 -0.1739
  132OSM   H11G14278   4.426   3.839   7.581 -0.3440 -0.5025 -0.3860
  132OSM   C12F14279   4.533   4.023   7.628 -0.6236 -0.2393 -0.4748
  132OSM   H12F14280   4.525   4.127   7.591 -0.4047 -0.8560 -2.3695
  132OSM   H12G14281   4.641   4.005   7.608  0.1519  1.1434  1.9818
  132OSM   C13F14282   4.501   3.994   7.777 -0.2229 -0.1273 -0.4315
  132OSM   H13F14283   4.486   3.884   7.782 -0.4744 -0.1145 -0.8997
  132OSM   H13G14284   4.404   4.034   7.815 -0.5313 -1.3215  0.0968
  132OSM   C14F14285   4.620   4.025   7.870 -0.0753 -0.9251  0.4443
  132OSM   H14F14286   4.635   4.135   7.861 -1.6786 -0.8250 -1.8716
  132OSM   H14G14287   4.722   3.989   7.848  0.9380  2.7617 -1.7760
  132OSM   C15F14288   4.599   3.989   8.016 -0.3416 -0.4296  0.2011
  132OSM   H15F14289   4.506   4.045   8.041 -1.5986 -1.6985 -1.4266
  132OSM   H15G14290   4.667   4.037   8.090 -1.1970  0.7619  0.2517
  132OSM   C16F14291   4.586   3.841   8.039  0.0826 -0.0149  0.1971
  132OSM   H16F14292   4.671   3.776   8.008 -0.5165 -0.1669 -1.2108
  132OSM   H16G14293   4.504   3.790   7.983  1.2747  1.4020 -3.0995
  132OSM   C17F14294   4.542   3.811   8.182 -0.1779  0.6510  0.2144
  132OSM   H17F14295   4.448   3.871   8.190  0.8673  2.6534 -1.4236
  132OSM   H17G14296   4.622   3.848   8.250  0.2791  0.5707 -0.2762
  132OSM   C18F14297   4.505   3.669   8.222  0.3295  0.3018 -0.4075
  132OSM   H18F14298   4.477   3.657   8.328 -0.8079  2.1551 -0.4515
  132OSM   H18G14299   4.584   3.598   8.191  1.2632  0.1148  2.2154
  132OSM   H18H14300   4.421   3.630   8.160 -0.7193  1.8150 -0.0036
  133SAPE     N14301   5.788   0.451  10.737 -0.0956  0.0512 -0.2163
  133SAPE   HN114302   5.703   0.423  10.683  0.9576  1.5696 -2.8500
  133SAPE   HN214303   5.764   0.461  10.838  1.9275  0.6901  0.2464
  133SAPE   HN314304   5.803   0.546  10.697 -0.0207 -0.9095 -2.6394
  133SAPE   C1214305   5.908   0.371  10.721 -0.2257  0.2449 -0.0977
  133SAPE  H12A14306   5.906   0.345  10.613 -1.9391  1.0669 -0.2988
  133SAPE  H12B14307   5.900   0.280  10.784  2.9372 -0.3064 -0.3425
  133SAPE   C1114308   6.032   0.454  10.749 -0.1579 -0.2267  0.0069
  133SAPE  H11A14309   6.117   0.384  10.766  1.0309  1.4315  1.2572
  133SAPE  H11B14310   6.021   0.511  10.844 -0.1320 -0.5172  0.1849
  133SAPE     P14311   6.027   0.700  10.637 -0.2631 -0.3568  0.2229
  133SAPE   O1314312   5.888   0.721  10.682  0.4004 -0.0581  0.4062
  133SAPE   O1414313   6.137   0.776  10.704 -0.0884  0.1429  0.2393
  133SAPE   O1214314   6.055   0.540  10.632  0.4308 -0.6404  0.5927
  133SAPE   O1114315   6.047   0.724  10.489 -0.0545 -0.2047  0.2939
  133SAPE    C114316   5.975   0.652  10.387 -0.3626 -0.0435  0.2542
  133SAPE    HA14317   5.904   0.572  10.419  0.9849 -0.8125  1.4417
  133SAPE    HB14318   5.898   0.717  10.341 -0.0950  1.1800  1.4882
  133SAPE    C214319   6.056   0.589  10.274 -0.5705  0.9702 -0.3431
  133SAPE    HS14320   6.106   0.512  10.337 -2.0619 -1.7604 -2.2936
  133SAPE   O2114321   6.145   0.687  10.211 -0.2323  0.0287  0.3023
  133SAPE   C2114322   6.253   0.626  10.166 -0.3188  0.0521 -0.2735
  133SAPE   O2214323   6.281   0.509  10.177 -0.5394  0.3036 -0.0112
  133SAPE   C2214324   6.338   0.730  10.106 -0.4886 -0.6599 -0.6510
  133SAPE   H2R14325   6.362   0.798  10.190 -0.5430 -1.6779  0.2193
  133SAPE   H2S14326   6.428   0.680  10.064  0.5351  0.1798  0.4645
  133SAPE    C314327   5.962   0.527  10.164  0.2165  0.1640  0.0338
  133SAPE    HX14328   5.889   0.458  10.211  0.2147  0.5103  0.5551
  133SAPE    HY14329   6.028   0.460  10.106 -1.3850 -1.0881 -0.3931
  133SAPE   O3114330   5.897   0.632  10.085  0.0396 -0.1341 -0.1914
  133SAPE   C3114331   5.836   0.595   9.973 -0.2168  0.5956  0.3752
  133SAPE   O3214332   5.843   0.482   9.922  0.2576 -0.1120 -0.1870
  133SAPE   C3214333   5.783   0.724   9.912  0.2783  0.3378 -0.5409
  133SAPE   H2X14334   5.876   0.773   9.876  3.1594 -2.4444  2.3646
  133SAPE   H2Y14335   5.743   0.784   9.997  0.0958 -1.7336  0.9209
  133SAPE   C2314336   6.277   0.802   9.987 -0.3866  0.9767  0.4920
  133SAPE   H3R14337   6.345   0.887   9.962  0.6533  0.2306  0.7382
  133SAPE   H3S14338   6.182   0.843  10.027 -0.8439  0.8145 -0.4060
  133SAPE   C2414339   6.241   0.713   9.866  0.2533 -0.0540  0.1221
  133SAPE   H4R14340   6.185   0.626   9.907  3.0595 -0.8076  2.7513
  133SAPE   H4S14341   6.336   0.688   9.815  0.4003  0.4674  0.1377
  133SAPE   C2514342   6.159   0.781   9.760 -0.0935 -0.2862  0.0324
  133SAPE   H5R14343   6.123   0.882   9.786 -0.7841 -0.0996 -1.5089
  133SAPE   C2614344   6.112   0.724   9.648  0.4202  0.0836  0.1962
  133SAPE   H6R14345   6.047   0.785   9.582 -0.4484  2.0202  2.6867
  133SAPE   C2714346   6.132   0.579   9.601  0.5912  0.1735  0.7857
  133SAPE   H7R14347   6.207   0.523   9.660 -0.1281  0.0293  1.5802
  133SAPE   H7S14348   6.177   0.585   9.499  0.1475  1.5042  0.6465
  133SAPE   C2814349   6.012   0.483   9.599 -0.1524  0.3955 -0.3697
  133SAPE   H8R14350   5.992   0.443   9.700  1.7823  1.3162  0.4268
  133SAPE   C2914351   5.923   0.468   9.495 -0.4526  0.1657  0.2742
  133SAPE   H9R14352   5.845   0.391   9.503  1.3977 -1.9180 -0.8163
  133SAPE  C21014353   5.927   0.538   9.353 -0.5573  0.4340 -0.1486
  133SAPE  H10R14354   6.020   0.595   9.332  0.9281 -1.8330 -0.1418
  133SAPE  H10S14355   5.838   0.604   9.350 -1.9497 -1.3265  0.5933
  133SAPE  C21114356   5.906   0.439   9.240  0.8291  0.7053  0.4227
  133SAPE  H11R14357   5.852   0.353   9.282  0.1329  1.8100  1.8601
  133SAPE  C21214358   5.931   0.444   9.112 -0.6350  0.0086  0.3771
  133SAPE  H12R14359   5.931   0.352   9.052 -1.9137 -1.2740  2.2114
  133SAPE  C21314360   5.997   0.563   9.047  0.2946  0.0495 -0.2237
  133SAPE  H13R14361   6.041   0.631   9.124 -1.2078  0.8249 -0.0185
  133SAPE  H13S14362   5.918   0.629   9.007  0.1928 -1.7480 -3.2558
  133SAPE  C21414363   6.101   0.546   8.938 -0.1694  0.7598 -0.2034
  133SAPE  H14R14364   6.202   0.574   8.969 -0.1789  1.2331 -0.5952
  133SAPE  C21514365   6.079   0.517   8.810  0.8059 -0.2031 -0.1691
  133SAPE  H15R14366   6.170   0.499   8.752  0.6411 -1.2467 -0.1196
  133SAPE  C21614367   5.956   0.485   8.735  0.1613 -0.3366 -0.0999
  133SAPE  H16R14368   5.866   0.495   8.800  0.6491  1.0128  0.4156
  133SAPE  H16S14369   5.969   0.385   8.689 -1.6508 -0.6358 -0.0447
  133SAPE  C21714370   5.920   0.591   8.622 -0.7043  0.0600 -0.1902
  133SAPE  H17R14371   5.846   0.532   8.564  3.1249 -1.0117 -4.6135
  133SAPE  H17S14372   5.998   0.607   8.544  0.8970  3.2563  1.8576
  133SAPE  C21814373   5.871   0.727   8.672  0.7864  0.4261  0.2557
  133SAPE  H18R14374   5.957   0.778   8.721  1.5077  0.3739 -0.9223
  133SAPE  H18S14375   5.792   0.714   8.750 -0.4986 -1.7825 -1.2951
  133SAPE  C21914376   5.815   0.827   8.565 -0.8888 -0.2325  0.2492
  133SAPE  H19R14377   5.778   0.919   8.615 -1.8692  0.6179 -1.8730
  133SAPE  H19S14378   5.722   0.787   8.520 -0.6034 -1.3301  0.6001
  133SAPE  C22014379   5.919   0.878   8.465 -0.3861  0.0701 -0.8227
  133SAPE  H20R14380   5.889   0.978   8.426 -1.8953 -0.1006 -0.1616
  133SAPE  H20S14381   5.936   0.810   8.379  0.1567 -1.6541  0.5749
  133SAPE  H20T14382   6.016   0.893   8.518  0.8970  1.5628 -3.4062
  133SAPE   C3314383   5.681   0.701   9.805  0.5765  0.9348  0.5714
  133SAPE   H3X14384   5.595   0.651   9.856  0.1305  0.7287 -0.3700
  133SAPE   H3Y14385   5.714   0.627   9.730 -0.4880  0.9015  0.1106
  133SAPE   C3414386   5.632   0.830   9.747 -0.9666  0.3595 -0.6297
  133SAPE   H4X14387   5.729   0.876   9.718 -0.1617 -0.7258  0.2515
  133SAPE   H4Y14388   5.586   0.886   9.831  1.2488  1.2716  0.0389
  133SAPE   C3514389   5.523   0.806   9.639 -0.0790 -0.3707  0.4564
  133SAPE   H5X14390   5.479   0.905   9.613  1.7907  0.0250 -1.5616
  133SAPE   H5Y14391   5.454   0.743   9.699  3.1562 -2.7907  1.9290
  133SAPE   C3614392   5.569   0.732   9.512  1.0788  0.7912 -0.5012
  133SAPE   H6X14393   5.601   0.629   9.538  1.5659  0.8839 -0.7147
  133SAPE   H6Y14394   5.655   0.792   9.475 -0.3700  1.5017 -2.9489
  133SAPE   C3714395   5.463   0.725   9.403 -0.4905  0.2651  0.6370
  133SAPE   H7X14396   5.391   0.810   9.409 -0.6654  0.5093 -2.7205
  133SAPE   H7Y14397   5.406   0.631   9.419  0.8190 -0.5843  0.4727
  133SAPE   C3814398   5.532   0.712   9.266 -0.2772 -0.1414  0.0037
  133SAPE   H8X14399   5.462   0.673   9.189 -0.1017  0.9071 -0.7227
  133SAPE   H8Y14400   5.617   0.641   9.267 -1.5763 -1.7568  0.1280
  133SAPE   C3914401   5.579   0.839   9.198 -0.7140 -0.2045  0.9208
  133SAPE   H9X14402   5.624   0.911   9.269  0.2025  0.3580 -0.2025
  133SAPE   H9Y14403   5.495   0.902   9.162  1.9630  3.7812  1.0366
  133SAPE  C31014404   5.679   0.808   9.085  0.7793 -0.2469 -0.6451
  133SAPE  H10X14405   5.614   0.812   8.994 -1.0745 -0.5138  0.6160
  133SAPE  H10Y14406   5.718   0.705   9.095  0.2463 -0.2752  1.5061
  133SAPE  C31114407   5.788   0.915   9.078  0.1968 -0.3451 -0.6252
  133SAPE  H11X14408   5.732   1.011   9.075 -0.4523 -0.7340 -2.3354
  133SAPE  H11Y14409   5.844   0.925   8.983 -0.1185  0.9093 -0.6974
  133SAPE  C31214410   5.892   0.906   9.199  0.5342 -0.4708  1.5098
  133SAPE  H12X14411   5.890   0.796   9.215 -3.1043 -0.9451 -0.9867
  133SAPE  H12Y14412   5.845   0.961   9.283  1.5025  3.0038 -0.0572
  133SAPE  C31314413   6.032   0.976   9.185  0.0695 -0.7718 -0.1712
  133SAPE  H13X14414   6.073   0.977   9.082 -2.2258 -0.2364 -1.1309
  133SAPE  H13Y14415   6.103   0.921   9.251  0.0632  0.2266  0.6987
  133SAPE  C31414416   6.037   1.120   9.234  0.7427 -0.5435  0.2118
  133SAPE  H14X14417   5.984   1.125   9.331  0.4691 -1.8753  0.1481
  133SAPE  H14Y14418   5.971   1.174   9.163  0.1851  0.8157  1.6973
  133SAPE  C31514419   6.170   1.201   9.239 -0.3253  0.2507 -0.8951
  133SAPE  H15X14420   6.155   1.310   9.255  0.4915  0.4210 -1.2512
  133SAPE  H15Y14421   6.201   1.184   9.134 -3.6806 -0.0111 -1.9813
  133SAPE  C31614422   6.273   1.139   9.340  0.2074 -0.0632  0.4327
  133SAPE  H16X14423   6.371   1.187   9.324 -0.8469  1.7268 -1.1046
  133SAPE  H16Y14424   6.297   1.036   9.307 -0.0017  0.3328 -1.0239
  133SAPE  C31714425   6.229   1.159   9.483 -0.3276 -0.1909 -0.3475
  133SAPE  H17X14426   6.152   1.080   9.496 -0.0940 -0.4759 -0.6816
  133SAPE  H17Y14427   6.178   1.257   9.499  2.2771  1.3061 -0.7386
  133SAPE  C31814428   6.334   1.144   9.597 -0.8981  0.4789  0.3662
  133SAPE  H18X14429   6.362   1.037   9.612 -1.5224  0.3963  0.9819
  133SAPE  H18Y14430   6.303   1.177   9.698  1.7874  1.2149  1.0457
  133SAPE  H18Z14431   6.420   1.207   9.567 -0.1881 -0.3097  0.6871
  134SAPE     N14432   1.491   3.715  10.604  0.2341 -0.2154  0.8658
  134SAPE   HN114433   1.483   3.798  10.542  0.9889 -1.7019 -1.3613
  134SAPE   HN214434   1.578   3.671  10.568 -1.2552 -1.2243 -1.8044
  134SAPE   HN314435   1.414   3.645  10.595  1.0880 -1.1913  0.9399
  134SAPE   C1214436   1.539   3.746  10.741 -0.1501 -0.2356 -0.2853
  134SAPE  H12A14437   1.558   3.660  10.808 -1.4984  1.1737  2.0131
  134SAPE  H12B14438   1.446   3.796  10.775  0.1222  1.9289 -2.4163
  134SAPE   C1114439   1.655   3.847  10.751  0.6339  0.2530  0.0117
  134SAPE  H11A14440   1.681   3.868  10.857 -1.0257 -2.4234  1.0569
  134SAPE  H11B14441   1.632   3.941  10.696  1.7750  1.1575  1.0152
  134SAPE     P14442   1.886   3.861  10.633  0.3721 -0.0411  0.0430
  134SAPE   O1314443   1.952   3.891  10.759 -0.1039 -0.6010  0.5527
  134SAPE   O1414444   1.959   3.771  10.542  0.0642 -0.6291  0.6831
  134SAPE   O1214445   1.759   3.783  10.679 -0.2642  0.1049  0.3993
  134SAPE   O1114446   1.833   3.996  10.558  0.2452  0.2726  0.3029
  134SAPE    C114447   1.741   3.993  10.448  0.2963 -0.4444  0.2058
  134SAPE    HA14448   1.669   3.909  10.447  0.5830 -0.6986 -1.3884
  134SAPE    HB14449   1.673   4.081  10.438  0.2448 -0.6420 -1.4324
  134SAPE    C214450   1.809   3.965  10.309 -0.2019  0.1914 -0.4897
  134SAPE    HS14451   1.870   3.872  10.309 -0.8717 -0.2688  0.4458
  134SAPE   O2114452   1.899   4.071  10.279  0.8572 -0.8850 -0.7530
  134SAPE   C2114453   2.000   4.045  10.202 -0.2288 -0.0078  0.4322
  134SAPE   O2214454   2.038   3.932  10.171  0.6541 -0.2632 -0.3930
  134SAPE   C2214455   2.053   4.177  10.138  0.0059 -0.0190 -0.0210
  134SAPE   H2R14456   2.074   4.251  10.218  3.6423 -1.3488  0.4585
  134SAPE   H2S14457   2.147   4.151  10.085  0.4381  0.2546  0.5937
  134SAPE    C314458   1.700   3.959  10.199  0.0291 -0.9222  0.1590
  134SAPE    HX14459   1.669   4.061  10.168 -0.4310 -1.0624  0.1467
  134SAPE    HY14460   1.614   3.897  10.232  0.2614 -1.3823 -0.0921
  134SAPE   O3114461   1.748   3.906  10.074 -0.2825  0.1784 -0.0253
  134SAPE   C3114462   1.770   3.769  10.072  0.2519  0.0116 -0.1888
  134SAPE   O3214463   1.748   3.691  10.164 -0.7873  0.4881 -0.1729
  134SAPE   C3214464   1.837   3.736   9.936 -0.5195 -0.0451  0.1486
  134SAPE   H2X14465   1.946   3.753   9.948 -0.8139  2.0101  0.2586
  134SAPE   H2Y14466   1.808   3.820   9.870  1.8755  1.8080  1.3059
  134SAPE   C2314467   1.956   4.225  10.029  0.1994 -0.1337 -0.2645
  134SAPE   H3R14468   1.973   4.335  10.021 -2.4051  0.2974 -0.4571
  134SAPE   H3S14469   1.855   4.211  10.072  0.9217 -3.2517  0.6756
  134SAPE   C2414470   1.957   4.164   9.894 -0.0415  0.8912  0.2344
  134SAPE   H4R14471   1.866   4.207   9.847 -0.9588 -1.4067 -0.1878
  134SAPE   H4S14472   1.932   4.056   9.903 -3.2177  1.4864 -0.2364
  134SAPE   C2514473   2.079   4.205   9.819  0.2252 -0.0332  0.2881
  134SAPE   H5R14474   2.178   4.177   9.859  0.3897 -2.6058 -1.6595
  134SAPE   C2614475   2.071   4.243   9.692 -0.0675 -0.3406  0.6519
  134SAPE   H6R14476   2.161   4.243   9.630  0.1348 -1.0842  0.9481
  134SAPE   C2714477   1.946   4.251   9.606 -0.0510  0.4489  0.5528
  134SAPE   H7R14478   1.908   4.356   9.601 -0.8619  0.1403  0.0375
  134SAPE   H7S14479   1.857   4.202   9.651  0.9404  0.6114  2.8054
  134SAPE   C2814480   1.957   4.198   9.461 -0.1805 -0.3275 -0.6396
  134SAPE   H8R14481   2.009   4.102   9.452 -0.0644 -0.0978 -2.7573
  134SAPE   C2914482   1.915   4.258   9.346  0.3072 -0.6850 -0.0754
  134SAPE   H9R14483   1.936   4.205   9.252  0.3150 -1.2550  0.2379
  134SAPE  C21014484   1.840   4.388   9.331 -0.4332 -0.6783  0.7409
  134SAPE  H10R14485   1.877   4.456   9.410  0.6400 -0.8709  0.4136
  134SAPE  H10S14486   1.730   4.370   9.333 -0.3160 -1.7054 -0.5548
  134SAPE  C21114487   1.857   4.464   9.196  0.5938  0.5669 -0.0716
  134SAPE  H11R14488   1.921   4.553   9.193  1.1855  0.1408 -1.4381
  134SAPE  C21214489   1.820   4.414   9.079  0.0766  0.8491  0.3932
  134SAPE  H12R14490   1.830   4.488   8.998  2.2205 -0.3120 -0.4800
  134SAPE  C21314491   1.759   4.281   9.052 -0.4041 -0.2997  0.0929
  134SAPE  H13R14492   1.734   4.233   9.148  0.7521  0.1267  0.6269
  134SAPE  H13S14493   1.835   4.211   9.011 -0.4637 -0.9256  1.0273
  134SAPE  C21414494   1.647   4.302   8.959 -0.4535 -1.3504  0.6882
  134SAPE  H14R14495   1.553   4.339   9.003 -0.9455 -1.4001 -0.2905
  134SAPE  C21514496   1.648   4.270   8.827 -0.5064  0.0459 -0.5486
  134SAPE  H15R14497   1.556   4.282   8.768 -0.2324  0.3043 -0.9332
  134SAPE  C21614498   1.762   4.204   8.755  0.1966 -1.3969  0.2224
  134SAPE  H16R14499   1.855   4.261   8.775 -0.6405  0.2544 -0.3952
  134SAPE  H16S14500   1.749   4.221   8.646 -0.7176  0.2076  0.5505
  134SAPE  C21714501   1.773   4.056   8.782 -0.2680  0.3009  1.1905
  134SAPE  H17R14502   1.671   4.013   8.772  1.3638 -3.5647 -1.8313
  134SAPE  H17S14503   1.793   4.035   8.889  1.0239 -1.8887  0.5934
  134SAPE  C21814504   1.874   3.979   8.699 -0.4079 -0.3913  0.3794
  134SAPE  H18R14505   1.978   4.010   8.723 -0.8982  2.4080 -0.7146
  134SAPE  H18S14506   1.859   4.006   8.592  0.2651  1.6183  0.7500
  134SAPE  C21914507   1.853   3.825   8.713 -0.3132  0.0895  0.0336
  134SAPE  H19R14508   1.749   3.790   8.696  0.2292 -2.4937  1.3925
  134SAPE  H19S14509   1.870   3.806   8.822 -0.2334  0.8347  0.1570
  134SAPE  C22014510   1.948   3.742   8.639  0.1689  0.7621  0.1124
  134SAPE  H20R14511   1.922   3.753   8.531 -0.0042  2.5788  0.3135
  134SAPE  H20S14512   1.928   3.636   8.666  1.1272  0.3273 -0.7823
  134SAPE  H20T14513   2.052   3.774   8.664  1.0430 -1.0126 -1.0178
  134SAPE   C3314514   1.790   3.606   9.866 -1.1745 -0.4817 -0.2597
  134SAPE   H3X14515   1.679   3.604   9.864 -1.2589 -0.6987  1.8355
  134SAPE   H3Y14516   1.823   3.519   9.927 -0.2174  0.5844  0.7962
  134SAPE   C3414517   1.856   3.587   9.727  0.3212  0.3545 -0.4849
  134SAPE   H4X14518   1.847   3.484   9.686  2.3399 -0.1916  0.3439
  134SAPE   H4Y14519   1.961   3.604   9.760  0.1890  0.9324 -0.3622
  134SAPE   C3514520   1.824   3.696   9.626  0.5778  0.2449 -0.1817
  134SAPE   H5X14521   1.843   3.798   9.664 -2.8021  0.4845  1.2730
  134SAPE   H5Y14522   1.713   3.702   9.614  0.1829 -1.0985  2.0955
  134SAPE   C3614523   1.899   3.668   9.492 -0.3135 -0.4767 -0.2137
  134SAPE   H6X14524   1.881   3.566   9.451  0.4008 -1.2990  1.4129
  134SAPE   H6Y14525   2.006   3.660   9.520 -0.5363 -3.5898  0.1097
  134SAPE   C3714526   1.864   3.775   9.386  0.0072  0.5711 -0.3274
  134SAPE   H7X14527   1.861   3.869   9.445 -0.0071  1.1250 -1.1879
  134SAPE   H7Y14528   1.758   3.767   9.354  0.0922  3.0209 -1.4285
  134SAPE   C3814529   1.961   3.782   9.263 -0.2642  0.3777  0.8083
  134SAPE   H8X14530   1.956   3.680   9.221  0.8494 -0.1441  1.8784
  134SAPE   H8Y14531   2.065   3.807   9.290  0.8551 -0.2805 -2.4930
  134SAPE   C3914532   1.924   3.881   9.156  0.1496  0.2851 -0.0836
  134SAPE   H9X14533   1.883   3.973   9.204  1.4271 -0.1952  2.0729
  134SAPE   H9Y14534   1.837   3.842   9.099 -0.9690  1.5059  0.7194
  134SAPE  C31014535   2.036   3.922   9.063 -0.1087  0.3166 -0.7387
  134SAPE  H10X14536   2.097   4.003   9.107 -0.4343  0.8677 -1.2690
  134SAPE  H10Y14537   1.981   3.971   8.980  0.8161  0.1829 -1.4480
  134SAPE  C31114538   2.129   3.813   9.010  0.0544  0.6272 -0.2140
  134SAPE  H11X14539   2.066   3.733   8.967 -0.3547  0.0659  1.3675
  134SAPE  H11Y14540   2.194   3.783   9.095  0.1237 -0.9923 -0.8076
  134SAPE  C31214541   2.225   3.875   8.905 -0.1154 -0.0733 -0.8974
  134SAPE  H12X14542   2.292   3.946   8.959 -0.7041  0.1024 -0.3873
  134SAPE  H12Y14543   2.165   3.938   8.836 -1.2380 -0.5006 -0.3397
  134SAPE  C31314544   2.302   3.762   8.832 -0.1882 -0.5714 -0.0057
  134SAPE  H13X14545   2.236   3.713   8.757  0.6457  0.8059 -1.7282
  134SAPE  H13Y14546   2.333   3.688   8.908  0.9808  0.2734  0.3669
  134SAPE  C31414547   2.430   3.815   8.760  0.3290 -0.5558 -0.0008
  134SAPE  H14X14548   2.512   3.824   8.834 -0.9675  1.5181  1.2896
  134SAPE  H14Y14549   2.417   3.914   8.711  0.0516 -0.2446  0.6901
  134SAPE  C31514550   2.486   3.718   8.648 -0.0116 -0.3052 -0.1679
  134SAPE  H15X14551   2.392   3.690   8.596 -1.5582 -2.8659  3.5352
  134SAPE  H15Y14552   2.527   3.624   8.691  0.2333 -0.5595 -0.9576
  134SAPE  C31614553   2.582   3.806   8.564  0.7194  0.1234  0.3353
  134SAPE  H16X14554   2.540   3.908   8.553  0.4010 -0.2162 -1.9910
  134SAPE  H16Y14555   2.586   3.760   8.463  1.9008  1.6768 -0.3746
  134SAPE  C31714556   2.715   3.805   8.635 -0.1672  1.2449 -1.0377
  134SAPE  H17X14557   2.760   3.705   8.656  1.0920  1.8288 -0.9029
  134SAPE  H17Y14558   2.703   3.833   8.742 -2.8313 -1.2925 -0.5210
  134SAPE  C31814559   2.818   3.887   8.557 -0.7532  0.6338 -0.4013
  134SAPE  H18X14560   2.896   3.824   8.509 -1.3447  0.9762 -1.8548
  134SAPE  H18Y14561   2.858   3.960   8.631  1.2320 -1.5117  0.7669
  134SAPE  H18Z14562   2.769   3.939   8.473  2.0931  0.2224 -2.4549
  135SAPE     N14563   0.397   1.029  10.364  0.2208 -0.4115 -0.5542
  135SAPE   HN114564   0.443   1.100  10.303 -0.8794 -1.2607 -2.4754
  135SAPE   HN214565   0.451   0.940  10.353 -1.9646 -1.8446 -0.3902
  135SAPE   HN314566   0.304   1.008  10.323 -0.0478 -0.2965 -0.0006
  135SAPE   C1214567   0.385   1.083  10.506  0.5436 -0.3980 -0.0658
  135SAPE  H12A14568   0.296   1.149  10.507  0.0832 -0.8718 -2.4551
  135SAPE  H12B14569   0.471   1.147  10.534  0.0366  0.5474 -0.6225
  135SAPE   C1114570   0.368   0.976  10.610 -0.5157 -0.3854 -0.2605
  135SAPE  H11A14571   0.359   1.030  10.706  1.7658  1.7120 -1.1102
  135SAPE  H11B14572   0.456   0.908  10.622 -0.3323 -0.4270 -1.6879
  135SAPE     P14573   0.242   0.755  10.506  0.2166 -0.1656  0.2710
  135SAPE   O1314574   0.292   0.653  10.606  0.3163  0.1884  0.5312
  135SAPE   O1414575   0.103   0.730  10.458 -0.0015  0.1895 -0.0450
  135SAPE   O1214576   0.252   0.901  10.579  0.3476 -0.3400  0.2625
  135SAPE   O1114577   0.332   0.761  10.377  0.3740  0.7262 -0.0562
  135SAPE    C114578   0.426   0.670  10.345  0.2315 -0.0448 -0.4172
  135SAPE    HA14579   0.516   0.696  10.405  0.4350 -0.1825 -0.6623
  135SAPE    HB14580   0.393   0.564  10.358  1.0898 -0.4356 -1.3027
  135SAPE    C214581   0.482   0.682  10.197 -0.2028 -0.0459  0.1215
  135SAPE    HS14582   0.543   0.774  10.187  0.1605 -0.2082  0.8380
  135SAPE   O2114583   0.371   0.683  10.099  0.3875  0.6746  0.0073
  135SAPE   C2114584   0.332   0.799  10.066 -0.2479 -0.2644 -0.3335
  135SAPE   O2214585   0.378   0.902  10.111 -0.0597  0.0463  0.4830
  135SAPE   C2214586   0.224   0.793   9.956  0.3053 -0.6911  0.8621
  135SAPE   H2R14587   0.256   0.709   9.890  1.2591  0.0543  0.3390
  135SAPE   H2S14588   0.131   0.764  10.010  0.5444 -0.1665  1.5747
  135SAPE    C314589   0.585   0.563  10.164  0.5415  0.3121  0.2193
  135SAPE    HX14590   0.536   0.464  10.179  0.5383 -0.0159 -1.7504
  135SAPE    HY14591   0.671   0.572  10.234  1.4410 -1.6773 -0.5604
  135SAPE   O3114592   0.640   0.573  10.027  0.3689 -0.8539  0.1910
  135SAPE   C3114593   0.708   0.465   9.986  0.7308  0.6108 -0.3896
  135SAPE   O3214594   0.735   0.365  10.053 -0.2650 -0.6118 -0.2585
  135SAPE   C3214595   0.759   0.493   9.841 -0.6319  0.5071  0.1566
  135SAPE   H2X14596   0.764   0.391   9.796  0.3539  0.7797 -0.3819
  135SAPE   H2Y14597   0.866   0.523   9.845  0.1628 -1.7198 -1.6826
  135SAPE   C2314598   0.197   0.925   9.881  0.3646  0.2405  0.2102
  135SAPE   H3R14599   0.194   1.007   9.956  1.5109  0.2672  0.2319
  135SAPE   H3S14600   0.100   0.922   9.826  0.8364 -1.2778 -0.5951
  135SAPE   C2414601   0.309   0.953   9.785  0.0802 -0.6785  0.5522
  135SAPE   H4R14602   0.403   0.957   9.844 -0.3882 -0.5337  1.3080
  135SAPE   H4S14603   0.287   1.056   9.749  0.4482 -0.5260  0.7635
  135SAPE   C2514604   0.316   0.849   9.678  0.0861  0.8714 -0.2134
  135SAPE   H5R14605   0.368   0.755   9.704 -1.2469  0.3994  0.8783
  135SAPE   C2614606   0.235   0.859   9.567  1.0585  0.0635 -0.3314
  135SAPE   H6R14607   0.239   0.775   9.495  0.4463 -1.7855  1.6783
  135SAPE   C2714608   0.146   0.974   9.511 -0.2564 -0.0379 -0.4077
  135SAPE   H7R14609   0.201   1.019   9.426 -0.2268 -1.8386 -1.3945
  135SAPE   H7S14610   0.121   1.062   9.573 -2.1786 -1.1626  0.5072
  135SAPE   C2814611   0.018   0.920   9.442  0.4297 -0.0737 -0.3570
  135SAPE   H8R14612  -0.078   0.944   9.491 -0.6412 -1.3476 -1.7239
  135SAPE   C2914613   0.013   0.863   9.323 -0.0632  0.9582  0.2050
  135SAPE   H9R14614  -0.085   0.838   9.280  0.1734  0.8082 -0.2539
  135SAPE  C21014615   0.131   0.835   9.225 -0.2838  0.8293 -0.5427
  135SAPE  H10R14616   0.116   0.726   9.209  0.7397  0.6621 -0.4278
  135SAPE  H10S14617   0.228   0.857   9.275  0.1705  0.1997 -1.1278
  135SAPE  C21114618   0.113   0.911   9.100  0.0367 -0.4412  0.4002
  135SAPE  H11R14619   0.138   1.018   9.106  1.0068 -0.5782 -0.8314
  135SAPE  C21214620   0.075   0.867   8.982  0.6567 -0.2708 -0.1690
  135SAPE  H12R14621   0.070   0.931   8.893 -3.0837  0.2625  0.2700
  135SAPE  C21314622   0.042   0.720   8.947  0.4018 -0.5893  0.0853
  135SAPE  H13R14623  -0.052   0.727   8.889  0.7294  1.2998 -0.2851
  135SAPE  H13S14624   0.015   0.666   9.041  2.2730 -0.8679  0.5097
  135SAPE  C21414625   0.145   0.647   8.864 -0.3745 -0.1438  0.3813
  135SAPE  H14R14626   0.203   0.720   8.806  2.4639 -2.2727  0.3491
  135SAPE  C21514627   0.163   0.514   8.861  0.9300  0.3365  0.3513
  135SAPE  H15R14628   0.249   0.475   8.804 -0.2322  0.2958 -1.4515
  135SAPE  C21614629   0.082   0.412   8.935  0.0833 -0.0114 -0.2860
  135SAPE  H16R14630   0.069   0.440   9.042  0.6458  0.0561 -0.2296
  135SAPE  H16S14631   0.134   0.314   8.940  1.1399  0.3948 -2.3990
  135SAPE  C21714632  -0.059   0.404   8.868 -0.2841  0.1755 -0.4529
  135SAPE  H17R14633  -0.107   0.502   8.888  0.3267  0.1785  1.1884
  135SAPE  H17S14634  -0.120   0.327   8.921 -0.8349  0.7743 -0.2046
  135SAPE  C21814635  -0.053   0.371   8.721 -0.6802  0.4803  0.4244
  135SAPE  H18R14636   0.004   0.276   8.708  0.5327  1.3405 -0.8155
  135SAPE  H18S14637   0.012   0.446   8.671 -2.5705  1.1898 -1.1169
  135SAPE  C21914638  -0.185   0.356   8.651  0.3870 -0.0461 -0.1180
  135SAPE  H19R14639  -0.254   0.421   8.710  0.8266  1.7219 -1.4597
  135SAPE  H19S14640  -0.212   0.249   8.663  0.4496  0.0343  0.8578
  135SAPE  C22014641  -0.164   0.400   8.502 -0.5134  0.2309  1.0192
  135SAPE  H20R14642  -0.068   0.368   8.456 -0.5767  1.1313  0.2048
  135SAPE  H20S14643  -0.174   0.511   8.491  1.2372  0.2783 -0.8169
  135SAPE  H20T14644  -0.239   0.361   8.430 -0.3339 -0.1092  1.0129
  135SAPE   C3314645   0.670   0.578   9.751  0.5429  0.0611  0.0375
  135SAPE   H3X14646   0.647   0.680   9.789  0.7029  0.2873 -0.4727
  135SAPE   H3Y14647   0.579   0.520   9.726  0.6920  0.4716 -1.5487
  135SAPE   C3414648   0.739   0.581   9.614  0.9778 -0.0190  0.7739
  135SAPE   H4X14649   0.748   0.485   9.559  2.3433  0.3208  0.3520
  135SAPE   H4Y14650   0.843   0.616   9.632  0.7029  0.8978  0.6515
  135SAPE   C3514651   0.675   0.677   9.502 -1.2825  0.2217 -0.6460
  135SAPE   H5X14652   0.754   0.697   9.426  1.8301 -1.8481  1.7905
  135SAPE   H5Y14653   0.651   0.771   9.556  0.3742 -0.4351  1.3582
  135SAPE   C3614654   0.546   0.620   9.443 -0.0534 -0.7424  1.0473
  135SAPE   H6X14655   0.469   0.601   9.521 -0.7841 -2.5013 -0.0398
  135SAPE   H6Y14656   0.566   0.525   9.388 -0.0033  0.3883 -0.9687
  135SAPE   C3714657   0.485   0.704   9.337  0.0379 -0.1285 -0.1243
  135SAPE   H7X14658   0.449   0.804   9.371  0.4039  0.7957 -2.2674
  135SAPE   H7Y14659   0.394   0.649   9.304 -0.0257 -1.2495  1.7986
  135SAPE   C3814660   0.560   0.727   9.201  0.4673 -0.2317  0.0731
  135SAPE   H8X14661   0.624   0.636   9.191  1.1715  0.2906 -0.2482
  135SAPE   H8Y14662   0.630   0.813   9.204 -1.2071  1.1791  2.1724
  135SAPE   C3914663   0.472   0.721   9.076 -0.0944  0.0200 -0.2571
  135SAPE   H9X14664   0.405   0.810   9.085  1.4349  1.3476 -1.3003
  135SAPE   H9Y14665   0.404   0.634   9.087 -0.7331  0.3838 -1.1791
  135SAPE  C31014666   0.541   0.724   8.939  0.1548  0.1676 -0.5277
  135SAPE  H10X14667   0.542   0.832   8.915 -0.0317 -0.1542 -2.0379
  135SAPE  H10Y14668   0.484   0.665   8.864  1.1524 -2.1000  0.3980
  135SAPE  C31114669   0.688   0.685   8.945  0.1867 -0.7404 -0.2217
  135SAPE  H11X14670   0.697   0.578   8.974 -1.5249 -0.4079  1.7480
  135SAPE  H11Y14671   0.754   0.730   9.022 -0.3030 -1.5037  0.6677
  135SAPE  C31214672   0.750   0.694   8.811  0.1842  0.1336  0.0609
  135SAPE  H12X14673   0.726   0.798   8.778  1.3763  0.4400  0.1305
  135SAPE  H12Y14674   0.701   0.627   8.737 -1.3813 -0.2285  1.3588
  135SAPE  C31314675   0.900   0.665   8.810 -0.2326  0.6009  0.9221
  135SAPE  H13X14676   0.939   0.712   8.903  1.5927  0.3308  0.3423
  135SAPE  H13Y14677   0.946   0.723   8.728 -2.8045  1.2034 -0.1810
  135SAPE  C31414678   0.928   0.513   8.796  0.4362 -0.0517 -0.5921
  135SAPE  H14X14679   0.872   0.463   8.714 -1.9452 -1.3533  1.6829
  135SAPE  H14Y14680   0.879   0.476   8.888 -0.7695 -1.7587 -1.8473
  135SAPE  C31514681   1.073   0.472   8.810 -0.0540  0.4316  0.5006
  135SAPE  H15X14682   1.118   0.514   8.902 -1.5184 -0.8913  1.8694
  135SAPE  H15Y14683   1.125   0.493   8.714  2.7095 -1.2298  1.5132
  135SAPE  C31614684   1.096   0.319   8.808 -0.2698  0.6890  0.1423
  135SAPE  H16X14685   1.012   0.282   8.744  1.4187 -3.5505  0.0878
  135SAPE  H16Y14686   1.069   0.285   8.910 -4.0580  1.9629 -0.2675
  135SAPE  C31714687   1.230   0.275   8.751  0.5946 -0.7344  0.3536
  135SAPE  H17X14688   1.260   0.175   8.791  0.4248  0.6641  4.5024
  135SAPE  H17Y14689   1.314   0.340   8.782 -1.1295  2.0108 -0.4602
  135SAPE  C31814690   1.221   0.269   8.598 -0.6009 -0.3865 -0.3489
  135SAPE  H18X14691   1.321   0.240   8.560  0.1968  1.4877  0.1813
  135SAPE  H18Y14692   1.212   0.371   8.555  1.1943  0.0248  0.1575
  135SAPE  H18Z14693   1.147   0.199   8.555 -1.3554  0.3259 -0.2345
  136SAPE     N14694   3.712   0.154  10.973 -0.4572 -0.0114  0.7475
  136SAPE   HN114695   3.758   0.139  11.065  0.6751  1.4729  0.4667
  136SAPE   HN214696   3.693   0.255  10.956 -0.2102 -0.0518  0.2008
  136SAPE   HN314697   3.621   0.105  10.972 -1.3118  1.5181  0.1638
  136SAPE   C1214698   3.788   0.102  10.851 -0.3149  0.0560  0.2217
  136SAPE  H12A14699   3.880   0.164  10.844  0.2332 -0.8347 -0.8529
  136SAPE  H12B14700   3.732   0.128  10.758  2.6002  0.2931 -1.6236
  136SAPE   C1114701   3.807  -0.050  10.857 -0.1099  0.0686 -0.1463
  136SAPE  H11A14702   3.868  -0.068  10.765  0.7323  0.0309  0.4063
  136SAPE  H11B14703   3.703  -0.085  10.840 -1.2010  2.4818  1.0966
  136SAPE     P14704   4.025  -0.081  10.999  0.3870 -0.2134 -0.0975
  136SAPE   O1314705   4.057   0.014  11.105 -0.0657 -0.3345 -0.1872
  136SAPE   O1414706   4.081  -0.217  11.021 -0.0535  0.1415 -0.3378
  136SAPE   O1214707   3.872  -0.087  10.983 -0.4006  0.4668  0.0854
  136SAPE   O1114708   4.069  -0.012  10.863  0.7876  0.2040  0.0708
  136SAPE    C114709   4.208  -0.046  10.828 -0.2528 -0.0560  0.1823
  136SAPE    HA14710   4.259   0.048  10.797  0.2170 -0.8448 -1.5799
  136SAPE    HB14711   4.268  -0.096  10.907  0.0289  1.4775  0.9685
  136SAPE    C214712   4.221  -0.130  10.695 -0.0076  0.5222 -0.2565
  136SAPE    HS14713   4.316  -0.103  10.644 -0.6387  1.1500 -1.1225
  136SAPE   O2114714   4.104  -0.119  10.612  0.2605 -0.1031  0.1311
  136SAPE   C2114715   4.103  -0.010  10.534  0.0228  0.3049  0.0816
  136SAPE   O2214716   4.185   0.077  10.537 -0.3832  0.5201  0.0321
  136SAPE   C2214717   3.976  -0.007  10.451  0.5534 -0.3394 -0.6973
  136SAPE   H2R14718   3.918   0.077  10.495 -0.2707 -1.1146 -0.2835
  136SAPE   H2S14719   4.000   0.030  10.349 -0.4257  1.8886 -0.1783
  136SAPE    C314720   4.225  -0.281  10.740  0.0614  0.9800  0.0388
  136SAPE    HX14721   4.128  -0.303  10.792  1.3372 -0.5951  1.9019
  136SAPE    HY14722   4.307  -0.291  10.814 -0.1690 -0.2067  0.1441
  136SAPE   O3114723   4.241  -0.369  10.632 -0.1519 -0.0562  0.2705
  136SAPE   C3114724   4.355  -0.370  10.573  0.1779  0.0187  0.5902
  136SAPE   O3214725   4.448  -0.295  10.599 -0.0334 -0.5792 -0.3757
  136SAPE   C3214726   4.350  -0.468  10.459  0.3470  0.1492  0.0308
  136SAPE   H2X14727   4.287  -0.553  10.492 -0.3490  1.1825  1.4540
  136SAPE   H2Y14728   4.456  -0.494  10.438  0.4032 -0.8120  1.3637
  136SAPE   C2314729   3.888  -0.132  10.470  0.3971 -0.1928  0.7204
  136SAPE   H3R14730   3.858  -0.144  10.577  2.6362  0.5336  1.4974
  136SAPE   H3S14731   3.947  -0.222  10.443  0.7779 -0.5506  2.5703
  136SAPE   C2414732   3.758  -0.124  10.383 -0.0047 -0.0316 -0.5775
  136SAPE   H4R14733   3.715  -0.227  10.386  0.6795 -0.3200 -0.5638
  136SAPE   H4S14734   3.783  -0.114  10.276 -0.8778 -0.6653 -0.8500
  136SAPE   C2514735   3.666  -0.015  10.431 -0.4541  0.7009  0.6594
  136SAPE   H5R14736   3.618  -0.027  10.530 -1.6366 -1.9548 -0.1226
  136SAPE   C2614737   3.619   0.084  10.355  0.1993 -0.3225 -0.2879
  136SAPE   H6R14738   3.546   0.143  10.413 -0.7742 -1.9331  0.1875
  136SAPE   C2714739   3.644   0.114  10.210  0.3086 -1.0361  0.6405
  136SAPE   H7R14740   3.566   0.189  10.185 -0.5611 -1.6385  1.4283
  136SAPE   H7S14741   3.619   0.025  10.148  0.0670 -0.6386  0.1556
  136SAPE   C2814742   3.790   0.160  10.183  0.0143 -0.1545  0.2137
  136SAPE   H8R14743   3.845   0.191  10.273  0.1922 -1.4156  0.5656
  136SAPE   C2914744   3.853   0.165  10.065 -0.0166  1.0144 -0.6501
  136SAPE   H9R14745   3.950   0.218  10.061  1.4259 -1.5437 -3.4399
  136SAPE  C21014746   3.803   0.132   9.932  0.3319 -0.2474 -0.2047
  136SAPE  H10R14747   3.825   0.223   9.872 -2.0461  0.9990  0.6739
  136SAPE  H10S14748   3.692   0.132   9.944  0.3077  1.6431 -0.2301
  136SAPE  C21114749   3.844   0.006   9.866  0.3640  1.1876  0.6937
  136SAPE  H11R14750   3.822  -0.088   9.919 -3.8621  0.7804 -1.3710
  136SAPE  C21214751   3.903  -0.013   9.744  0.5491 -0.2356 -0.0743
  136SAPE  H12R14752   3.911  -0.114   9.701 -0.3849  0.1197 -1.1111
  136SAPE  C21314753   3.935   0.101   9.653  0.1825 -0.1819  0.8108
  136SAPE  H13R14754   4.042   0.093   9.622 -0.3696 -2.2251 -0.8010
  136SAPE  H13S14755   3.930   0.197   9.709 -1.2192  2.2936 -3.1529
  136SAPE  C21414756   3.837   0.122   9.538  0.8181  0.5463  0.5231
  136SAPE  H14R14757   3.739   0.165   9.562 -0.6873 -1.1618 -2.1291
  136SAPE  C21514758   3.855   0.074   9.419 -0.4298  0.0388  0.7508
  136SAPE  H15R14759   3.779   0.093   9.342  1.2741 -1.4604 -1.4077
  136SAPE  C21614760   3.966   0.002   9.348 -0.4692 -0.1169 -1.1696
  136SAPE  H16R14761   4.046  -0.013   9.423 -3.1969  0.5103  2.0978
  136SAPE  H16S14762   4.009   0.065   9.267  0.9926 -2.1924 -2.0801
  136SAPE  C21714763   3.935  -0.130   9.279 -0.1212  0.4647  0.4439
  136SAPE  H17R14764   4.015  -0.165   9.210 -0.8187  1.0026 -0.6707
  136SAPE  H17S14765   3.846  -0.112   9.214  0.3611  2.1472  0.2180
  136SAPE  C21814766   3.902  -0.243   9.383  0.6714 -0.4670 -0.5960
  136SAPE  H18R14767   3.803  -0.216   9.427 -0.1881  2.4587 -3.8829
  136SAPE  H18S14768   3.984  -0.231   9.456  0.5923  1.9679 -0.8121
  136SAPE  C21914769   3.889  -0.384   9.332 -0.2377 -0.6743  0.0224
  136SAPE  H19R14770   3.986  -0.406   9.283 -0.9311 -1.0949 -1.2038
  136SAPE  H19S14771   3.801  -0.375   9.265 -0.5110 -3.1273 -0.0580
  136SAPE  C22014772   3.871  -0.465   9.452 -0.0184  0.1640 -0.3172
  136SAPE  H20R14773   3.841  -0.568   9.423 -0.4582  0.5443 -1.2206
  136SAPE  H20S14774   3.793  -0.433   9.525  0.5424  0.3981  0.1849
  136SAPE  H20T14775   3.963  -0.472   9.515 -0.3161  0.0570  0.1142
  136SAPE   C3314776   4.274  -0.403  10.338 -0.3385 -0.4283 -0.6267
  136SAPE   H3X14777   4.347  -0.330  10.296  0.3658  0.6135  2.1934
  136SAPE   H3Y14778   4.178  -0.352  10.362 -0.5985 -0.8394 -0.7818
  136SAPE   C3414779   4.262  -0.517  10.236 -0.1006 -0.2198 -0.5194
  136SAPE   H4X14780   4.199  -0.586  10.295 -1.4205  0.9799 -0.4650
  136SAPE   H4Y14781   4.360  -0.560  10.204  0.8807  1.0316  0.6512
  136SAPE   C3514782   4.182  -0.475  10.110  0.1503  0.4938 -0.4314
  136SAPE   H5X14783   4.073  -0.459  10.123  0.1207  0.6768 -0.8676
  136SAPE   H5Y14784   4.200  -0.562  10.043  1.3843  0.0730  0.4003
  136SAPE   C3614785   4.242  -0.358  10.038  0.2645 -0.4540 -0.2028
  136SAPE   H6X14786   4.352  -0.354  10.053  0.1792 -0.0355  0.3388
  136SAPE   H6Y14787   4.201  -0.264  10.080  0.9036 -0.3484  0.1974
  136SAPE   C3714788   4.194  -0.359   9.892 -0.1474 -0.0564 -0.2151
  136SAPE   H7X14789   4.083  -0.360   9.894 -0.2533 -0.7097 -2.8883
  136SAPE   H7Y14790   4.223  -0.459   9.853  0.3064  0.8714 -2.3838
  136SAPE   C3814791   4.252  -0.249   9.803  0.1479  0.4745 -0.2258
  136SAPE   H8X14792   4.361  -0.243   9.823  0.5559 -1.0696 -1.8185
  136SAPE   H8Y14793   4.198  -0.158   9.838 -3.2626 -1.3398 -0.3141
  136SAPE   C3914794   4.235  -0.269   9.650 -0.1283 -0.1467  0.4636
  136SAPE   H9X14795   4.130  -0.276   9.615  0.4319  0.7439 -1.6111
  136SAPE   H9Y14796   4.286  -0.365   9.629  1.9470  1.3816 -2.2769
  136SAPE  C31014797   4.298  -0.161   9.559  0.4073  0.0852  0.0180
  136SAPE  H10X14798   4.397  -0.130   9.599  0.2629  0.6601 -0.0577
  136SAPE  H10Y14799   4.241  -0.066   9.573 -0.9181 -0.6366 -0.2963
  136SAPE  C31114800   4.292  -0.213   9.418  0.5244 -0.3545  0.7905
  136SAPE  H11X14801   4.184  -0.230   9.397  0.7599 -0.8824 -0.0431
  136SAPE  H11Y14802   4.338  -0.313   9.409 -0.0094 -0.5352 -0.0556
  136SAPE  C31214803   4.347  -0.116   9.311 -0.3172 -0.1998 -0.8716
  136SAPE  H12X14804   4.440  -0.076   9.355 -0.4340  1.5980 -2.1402
  136SAPE  H12Y14805   4.278  -0.029   9.306  0.7206  0.9381  2.1893
  136SAPE  C31314806   4.378  -0.169   9.174 -0.1550  0.2978  0.1169
  136SAPE  H13X14807   4.280  -0.193   9.127  0.7035  0.9246 -2.1354
  136SAPE  H13Y14808   4.445  -0.258   9.184 -1.4777 -0.6613  0.8139
  136SAPE  C31414809   4.440  -0.067   9.079  0.1862 -0.1624  0.3554
  136SAPE  H14X14810   4.527  -0.022   9.131  1.3624 -0.2348 -1.4713
  136SAPE  H14Y14811   4.364   0.013   9.066  0.0248 -0.5878 -1.5603
  136SAPE  C31514812   4.496  -0.116   8.946 -0.0761  0.0903  0.7371
  136SAPE  H15X14813   4.409  -0.140   8.881 -0.2610  2.2812  0.0975
  136SAPE  H15Y14814   4.547  -0.213   8.965 -2.0386 -1.0930  0.2276
  136SAPE  C31614815   4.597  -0.010   8.888 -0.2236  0.6019  0.0851
  136SAPE  H16X14816   4.667  -0.054   8.814 -0.9233 -1.0201  0.3437
  136SAPE  H16Y14817   4.661   0.028   8.970  0.5818 -0.5567  0.0174
  136SAPE  C31714818   4.524   0.107   8.820 -0.5044  0.3120 -0.5422
  136SAPE  H17X14819   4.590   0.188   8.784 -0.9187  0.0266 -1.9979
  136SAPE  H17Y14820   4.463   0.148   8.904  0.1157  1.7499 -0.7648
  136SAPE  C31814821   4.440   0.065   8.699 -0.2256  0.5475 -0.0130
  136SAPE  H18X14822   4.355  -0.003   8.721 -0.3608  0.1077 -1.7537
  136SAPE  H18Y14823   4.503   0.005   8.630 -2.0242  0.2277 -1.4339
  136SAPE  H18Z14824   4.408   0.154   8.641 -0.1857 -0.0839 -1.0138
  137SAPE     N14825   2.393   4.669  10.589  0.7799 -0.2606 -0.0337
  137SAPE   HN114826   2.310   4.726  10.613  0.8928  1.1517 -2.6084
  137SAPE   HN214827   2.426   4.702  10.495 -1.1837 -1.1435 -1.0977
  137SAPE   HN314828   2.381   4.566  10.581  1.0166 -0.2602 -0.4665
  137SAPE   C1214829   2.499   4.702  10.690 -0.1072  0.2370 -0.1030
  137SAPE  H12A14830   2.558   4.788  10.651  0.2477 -0.5502 -1.3665
  137SAPE  H12B14831   2.566   4.614  10.703  0.3120  0.5313 -0.2635
  137SAPE   C1114832   2.433   4.746  10.825 -0.0872  0.3792  0.1966
  137SAPE  H11A14833   2.513   4.770  10.899 -0.2863  1.3228  0.1203
  137SAPE  H11B14834   2.358   4.671  10.859 -0.0394 -0.2986 -1.1112
  137SAPE     P14835   2.213   4.890  10.779 -0.2813 -0.1028 -0.0140
  137SAPE   O1314836   2.171   4.792  10.677  0.2115 -0.1465  0.1876
  137SAPE   O1414837   2.126   4.911  10.905 -0.3218  0.2057  0.0596
  137SAPE   O1214838   2.362   4.870  10.812 -0.6039 -0.1902  0.4199
  137SAPE   O1114839   2.221   5.037  10.715  0.2433 -0.1483 -0.1942
  137SAPE    C114840   2.305   5.075  10.612 -0.2168 -0.6240  0.0098
  137SAPE    HA14841   2.310   5.185  10.600  1.5988 -0.5992  0.7258
  137SAPE    HB14842   2.409   5.037  10.615  0.9055  1.9296 -2.4309
  137SAPE    C214843   2.223   5.045  10.485 -0.2011 -0.0727  0.3803
  137SAPE    HS14844   2.191   4.938  10.482 -0.5609  0.0631 -1.5249
  137SAPE   O2114845   2.300   5.070  10.364  0.1753 -0.7507 -0.2361
  137SAPE   C2114846   2.385   4.974  10.333 -0.4426 -0.7232  0.3502
  137SAPE   O2214847   2.409   4.881  10.405 -0.0778  0.3215  0.6918
  137SAPE   C2214848   2.436   4.988  10.188 -0.0708  0.1593 -0.3770
  137SAPE   H2R14849   2.350   4.955  10.127  0.4561  0.3709 -1.2480
  137SAPE   H2S14850   2.449   5.096  10.164  1.3664 -0.1742 -1.1740
  137SAPE    C314851   2.094   5.135  10.477  1.0659 -0.1630  0.3714
  137SAPE    HX14852   2.126   5.241  10.485  0.8836 -0.1425  0.8614
  137SAPE    HY14853   2.033   5.092  10.559  0.5330  1.6737  0.9878
  137SAPE   O3114854   2.034   5.116  10.347 -0.3792  0.3232 -0.2260
  137SAPE   C3114855   1.955   5.209  10.299  0.5440 -0.4518 -0.7795
  137SAPE   O3214856   1.936   5.321  10.350  0.3163  0.0427  0.0262
  137SAPE   C3214857   1.880   5.161  10.173  0.0035  0.4541  0.0757
  137SAPE   H2X14858   1.778   5.205  10.179 -0.9054 -1.6858  1.7249
  137SAPE   H2Y14859   1.883   5.050  10.177 -2.1776  0.3747  0.6728
  137SAPE   C2314860   2.549   4.901  10.141 -0.0097 -0.0965  0.1638
  137SAPE   H3R14861   2.518   4.794  10.145  1.4977 -0.5564  0.1684
  137SAPE   H3S14862   2.633   4.910  10.214 -0.0770 -3.0131  0.7519
  137SAPE   C2414863   2.601   4.931  10.001  0.0613 -0.4640  0.3738
  137SAPE   H4R14864   2.696   4.874   9.996 -0.4898 -1.4123  0.4320
  137SAPE   H4S14865   2.633   5.037  10.009 -1.1491 -0.1479  1.3516
  137SAPE   C2514866   2.509   4.920   9.885 -0.3587  0.0717  0.0782
  137SAPE   H5R14867   2.486   4.815   9.862 -0.9402  0.6547 -2.2596
  137SAPE   C2614868   2.455   5.013   9.813  0.1692 -1.2585  0.3189
  137SAPE   H6R14869   2.387   4.974   9.736 -0.0961 -1.0161  0.4308
  137SAPE   C2714870   2.473   5.167   9.825 -0.2571  0.3511  0.6972
  137SAPE   H7R14871   2.485   5.215   9.925 -1.7578  1.1237  0.5181
  137SAPE   H7S14872   2.375   5.209   9.797 -0.5462 -1.4523 -1.2487
  137SAPE   C2814873   2.579   5.223   9.737 -0.2074 -0.7866  0.0856
  137SAPE   H8R14874   2.671   5.259   9.785 -0.9106  0.1382  0.7833
  137SAPE   C2914875   2.582   5.235   9.602  0.6084 -0.7912  0.3723
  137SAPE   H9R14876   2.666   5.283   9.551 -1.0871  0.0093 -1.8592
  137SAPE  C21014877   2.472   5.187   9.514 -0.8679 -0.1754 -0.0456
  137SAPE  H10R14878   2.463   5.251   9.424  1.4617 -0.5081 -0.5660
  137SAPE  H10S14879   2.374   5.181   9.566  0.6874  1.0904  3.3957
  137SAPE  C21114880   2.509   5.042   9.469  1.0096 -0.4716  0.1990
  137SAPE  H11R14881   2.593   4.994   9.521  1.1308  0.4951  0.9210
  137SAPE  C21214882   2.432   4.976   9.380 -0.0665 -0.2934 -0.2964
  137SAPE  H12R14883   2.459   4.870   9.366  4.3899  0.7944 -1.6455
  137SAPE  C21314884   2.309   5.020   9.307 -0.2317 -0.2622  0.3308
  137SAPE  H13R14885   2.258   5.104   9.359 -1.6462 -1.0977  0.3468
  137SAPE  H13S14886   2.231   4.941   9.310 -0.0611 -0.4478 -0.0434
  137SAPE  C21414887   2.328   5.067   9.167  0.8056  0.4902 -0.1466
  137SAPE  H14R14888   2.327   5.177   9.155 -1.0422  0.5739  0.3888
  137SAPE  C21514889   2.333   4.988   9.055  0.6187  0.1795  0.4175
  137SAPE  H15R14890   2.334   5.046   8.962  1.0226  2.7098  1.8987
  137SAPE  C21614891   2.325   4.835   9.050  0.2075  0.6210 -0.4339
  137SAPE  H16R14892   2.382   4.813   9.144  0.1266 -0.7245 -0.6819
  137SAPE  H16S14893   2.394   4.800   8.971  0.9658 -4.8108  2.1205
  137SAPE  C21714894   2.195   4.765   9.033 -0.8029 -0.4119 -0.6192
  137SAPE  H17R14895   2.146   4.785   8.935 -1.9373  0.7757  0.1533
  137SAPE  H17S14896   2.121   4.794   9.111  1.2829  0.6046  1.0642
  137SAPE  C21814897   2.214   4.614   9.063  0.3270  0.3524  0.8234
  137SAPE  H18R14898   2.111   4.572   9.064  0.3703  0.2500  1.4325
  137SAPE  H18S14899   2.268   4.601   9.159  0.7842 -0.6714  0.4407
  137SAPE  C21914900   2.308   4.548   8.957 -0.4563  0.7744 -0.2213
  137SAPE  H19R14901   2.320   4.439   8.973  2.5815  0.3436 -3.9824
  137SAPE  H19S14902   2.412   4.580   8.978  0.4955 -3.3257  2.2939
  137SAPE  C22014903   2.245   4.579   8.820 -0.8572  0.6492 -0.0790
  137SAPE  H20R14904   2.134   4.576   8.829 -0.6698 -0.3216  2.5126
  137SAPE  H20S14905   2.278   4.515   8.736  0.8227 -1.4987  2.0862
  137SAPE  H20T14906   2.276   4.682   8.793  0.4267  0.8649  1.9915
  137SAPE   C3314907   1.959   5.203  10.046  0.2687  0.1434  0.0432
  137SAPE   H3X14908   1.940   5.109   9.988  2.6287 -0.9916  1.0110
  137SAPE   H3Y14909   2.063   5.212  10.081 -0.2330  2.3271  1.0890
  137SAPE   C3414910   1.913   5.331   9.976  0.1384  0.0396 -0.1616
  137SAPE   H4X14911   1.889   5.412  10.047 -3.0463 -2.1249  1.4835
  137SAPE   H4Y14912   1.821   5.314   9.916 -0.6558  1.6948  0.5257
  137SAPE   C3514913   2.021   5.384   9.887  0.6184  1.0565  0.6660
  137SAPE   H5X14914   2.119   5.382   9.940 -0.0662  0.4718  1.9567
  137SAPE   H5Y14915   1.980   5.486   9.872 -1.7837  0.0224 -0.3216
  137SAPE   C3614916   2.032   5.300   9.760 -0.0145  0.4269  0.0139
  137SAPE   H6X14917   1.936   5.295   9.703  0.1564 -2.4938 -0.1489
  137SAPE   H6Y14918   2.056   5.194   9.781  2.2478  0.7869 -0.5154
  137SAPE   C3714919   2.131   5.346   9.655 -0.3222  0.6492  0.6999
  137SAPE   H7X14920   2.233   5.313   9.683  0.0787  0.1618 -1.2075
  137SAPE   H7Y14921   2.138   5.456   9.642 -2.6346  0.8130  0.3200
  137SAPE   C3814922   2.105   5.281   9.523  0.8420  1.0058  0.7953
  137SAPE   H8X14923   2.000   5.248   9.513  0.8175  0.7460  1.8149
  137SAPE   H8Y14924   2.151   5.180   9.523 -0.4435  0.4056 -0.2106
  137SAPE   C3914925   2.135   5.371   9.399  0.3486 -0.1783 -0.0977
  137SAPE   H9X14926   2.180   5.317   9.314 -0.9675  0.0407 -0.9619
  137SAPE   H9Y14927   2.213   5.443   9.431  0.8107 -0.7252  0.0363
  137SAPE  C31014928   2.010   5.457   9.356  0.0068  0.0807  1.0187
  137SAPE  H10X14929   1.955   5.495   9.445 -2.2000  1.2047 -0.7096
  137SAPE  H10Y14930   1.945   5.385   9.303  1.8847  1.2150 -3.2585
  137SAPE  C31114931   2.031   5.580   9.249 -0.5830  0.3081  0.0038
  137SAPE  H11X14932   2.128   5.629   9.273 -0.3149 -1.1717  2.2531
  137SAPE  H11Y14933   1.947   5.651   9.267 -0.3476  0.3970  0.7855
  137SAPE  C31214934   2.020   5.520   9.104 -0.0135  0.0654 -0.3041
  137SAPE  H12X14935   2.097   5.443   9.083 -0.1085 -0.4213  1.0534
  137SAPE  H12Y14936   2.040   5.604   9.034 -3.0303 -0.6446 -2.2293
  137SAPE  C31314937   1.886   5.463   9.056 -0.2250  0.6883  0.5047
  137SAPE  H13X14938   1.814   5.546   9.071  1.7072  1.9889  3.5813
  137SAPE  H13Y14939   1.854   5.372   9.111 -1.8986  1.2624  0.5370
  137SAPE  C31414940   1.884   5.425   8.904 -0.6969  0.1996 -0.1787
  137SAPE  H14X14941   1.933   5.507   8.848  0.3896  1.3061  2.2160
  137SAPE  H14Y14942   1.778   5.425   8.870 -0.7609  2.3029 -0.1299
  137SAPE  C31514943   1.946   5.293   8.867  0.2451  0.2288  0.0630
  137SAPE  H15X14944   1.910   5.206   8.927  3.1588  0.5869  2.5921
  137SAPE  H15Y14945   2.050   5.309   8.904  0.4077 -2.7040  1.1248
  137SAPE  C31614946   1.942   5.252   8.715 -0.3903 -0.0033 -0.4682
  137SAPE  H16X14947   2.033   5.296   8.670  0.5154 -1.7489 -0.4387
  137SAPE  H16Y14948   1.851   5.296   8.668 -0.1203  1.7286  0.5410
  137SAPE  C31714949   1.927   5.107   8.698 -0.9261  0.2826  0.0021
  137SAPE  H17X14950   1.896   5.077   8.596 -1.1571  1.4834 -0.2996
  137SAPE  H17Y14951   1.841   5.067   8.756 -0.6073 -0.6049 -0.1191
  137SAPE  C31814952   2.058   5.035   8.740 -0.2526 -0.3403  0.2748
  137SAPE  H18X14953   2.141   5.073   8.676 -0.1402  3.3403  2.3443
  137SAPE  H18Y14954   2.052   4.925   8.751 -1.7466 -0.2143  0.8804
  137SAPE  H18Z14955   2.084   5.081   8.837  1.5689 -0.5080 -0.0983
  138SAPE     N14956   6.141   4.252  10.729 -0.3643  0.5334  0.4392
  138SAPE   HN114957   6.129   4.150  10.717  0.6250  0.2963  1.3171
  138SAPE   HN214958   6.240   4.273  10.753  0.2367  0.8796 -2.0364
  138SAPE   HN314959   6.085   4.299  10.804 -1.7382 -0.1994 -0.0847
  138SAPE   C1214960   6.118   4.328  10.609  0.3181  0.0612  0.6017
  138SAPE  H12A14961   6.008   4.344  10.612  0.4223  0.7310  1.0740
  138SAPE  H12B14962   6.150   4.268  10.521  2.2972  2.4375 -0.4265
  138SAPE   C1114963   6.188   4.464  10.607 -0.3567  0.1295 -0.9458
  138SAPE  H11A14964   6.145   4.527  10.688  3.5659  0.6151  1.0272
  138SAPE  H11B14965   6.159   4.516  10.514  0.4140 -0.2126 -1.3882
  138SAPE     P14966   6.429   4.571  10.608 -0.3162  0.2274  0.2218
  138SAPE   O1314967   6.384   4.685  10.683  0.5923  0.0631  0.0550
  138SAPE   O1414968   6.567   4.528  10.632  0.2409  0.5525 -0.0574
  138SAPE   O1214969   6.326   4.448  10.630  0.6737  0.2312 -0.3065
  138SAPE   O1114970   6.416   4.588  10.453  0.0106 -0.1662 -0.2221
  138SAPE    C114971   6.451   4.469  10.379 -0.4612 -0.7221  0.6115
  138SAPE    HA14972   6.538   4.497  10.315 -3.1367  0.1469 -2.9893
  138SAPE    HB14973   6.476   4.374  10.430  0.9316 -0.4209  0.5310
  138SAPE    C214974   6.348   4.445  10.273  0.1850 -0.6882  0.3937
  138SAPE    HS14975   6.257   4.403  10.320  0.1365 -0.3411  0.6128
  138SAPE   O2114976   6.397   4.365  10.168 -0.2124 -0.1528  0.0010
  138SAPE   C2114977   6.322   4.269  10.126 -0.9535 -0.1413  0.1793
  138SAPE   O2214978   6.212   4.248  10.159  0.8698  0.2516 -0.7101
  138SAPE   C2214979   6.401   4.189  10.023  0.4492  0.4309 -0.0006
  138SAPE   H2R14980   6.498   4.167  10.073 -0.3361 -1.4506  0.7641
  138SAPE   H2S14981   6.348   4.092  10.017  0.3552  0.4704  0.2005
  138SAPE    C314982   6.303   4.574  10.201  0.2086 -0.4345 -0.5786
  138SAPE    HX14983   6.394   4.625  10.162  1.2337  0.4595  2.6600
  138SAPE    HY14984   6.256   4.636  10.280 -1.1722 -0.3408 -1.4354
  138SAPE   O3114985   6.200   4.561  10.095 -0.4018 -0.5322  0.6580
  138SAPE   C3114986   6.076   4.544  10.139  0.4495 -0.2716  0.0348
  138SAPE   O3214987   6.045   4.538  10.260 -0.9281  0.0129 -0.2156
  138SAPE   C3214988   5.979   4.530  10.023 -0.3812 -0.5518 -0.1125
  138SAPE   H2X14989   6.033   4.511   9.928  0.0357  1.4709 -0.3206
  138SAPE   H2Y14990   5.918   4.622  10.015  1.3422  0.4772 -2.0573
  138SAPE   C2314991   6.401   4.266   9.889  0.1282 -0.0897  0.0256
  138SAPE   H3R14992   6.505   4.282   9.852 -0.2196  2.2192 -0.0696
  138SAPE   H3S14993   6.347   4.362   9.900  0.7582  0.1072  1.6991
  138SAPE   C2414994   6.318   4.186   9.779 -0.5571  0.1717 -0.4576
  138SAPE   H4R14995   6.211   4.171   9.802 -0.6711  1.3930 -0.1650
  138SAPE   H4S14996   6.365   4.085   9.774 -1.3657 -0.2529  0.3198
  138SAPE   C2514997   6.342   4.258   9.649  0.5326 -0.0526  0.6682
  138SAPE   H5R14998   6.424   4.220   9.586 -0.0226 -2.7205  1.4088
  138SAPE   C2614999   6.272   4.359   9.596 -0.0434  0.0357 -0.4475
  138SAPE   H6R15000   6.302   4.383   9.493  1.7789  0.2236  0.0903
  138SAPE   C2715001   6.147   4.419   9.658 -0.4479 -0.1053 -0.1774
  138SAPE   H7R15002   6.145   4.526   9.629 -1.3564  0.4483  1.7606
  138SAPE   H7S15003   6.154   4.428   9.768 -0.8852  1.6463 -0.2579
  138SAPE   C2815004   6.034   4.332   9.602 -0.3759 -0.2397  0.5698
  138SAPE   H8R15005   6.013   4.242   9.663  1.3138 -2.8417 -2.3898
  138SAPE   C2915006   5.956   4.351   9.490 -0.0679  0.0190 -0.3508
  138SAPE   H9R15007   5.881   4.276   9.461 -1.0540  1.4971 -1.7728
  138SAPE  C21015008   5.979   4.459   9.392 -0.0947 -0.1747  0.7269
  138SAPE  H10R15009   6.073   4.431   9.340  0.1121  1.0827  0.3709
  138SAPE  H10S15010   6.016   4.549   9.447  1.4183  0.4261 -1.1545
  138SAPE  C21115011   5.885   4.477   9.274 -0.7718 -0.3034 -0.5350
  138SAPE  H11R15012   5.780   4.469   9.306 -0.6231  0.8819  0.3101
  138SAPE  C21215013   5.915   4.506   9.145 -0.0396 -0.1274 -1.0364
  138SAPE  H12R15014   5.834   4.509   9.071 -3.3630 -0.6060  2.2758
  138SAPE  C21315015   6.058   4.525   9.090 -0.3359 -0.1218 -0.0593
  138SAPE  H13R15016   6.055   4.505   8.981  1.5957 -0.3686 -0.1087
  138SAPE  H13S15017   6.138   4.457   9.126  1.4658  2.5702  1.4284
  138SAPE  C21415018   6.115   4.658   9.128 -0.6698  0.6050 -0.1234
  138SAPE  H14R15019   6.112   4.679   9.236 -0.6662 -3.7837  0.9345
  138SAPE  C21515020   6.138   4.759   9.042 -0.0910  0.6551 -0.2361
  138SAPE  H15R15021   6.189   4.847   9.084  0.4657  1.0193 -1.6291
  138SAPE  C21615022   6.128   4.756   8.889 -0.2169 -0.6329 -0.3985
  138SAPE  H16R15023   6.072   4.846   8.856 -0.2044 -0.4683  0.0267
  138SAPE  H16S15024   6.066   4.668   8.861 -1.1489 -0.1732  0.1814
  138SAPE  C21715025   6.269   4.765   8.838 -0.3071  0.5230  0.2010
  138SAPE  H17R15026   6.328   4.688   8.894  1.3545  0.8618 -1.0159
  138SAPE  H17S15027   6.325   4.858   8.860  2.0379 -0.4820 -1.0989
  138SAPE  C21815028   6.290   4.746   8.683  0.2934 -0.6506 -0.2159
  138SAPE  H18R15029   6.270   4.838   8.624 -1.8868 -2.4024 -2.4178
  138SAPE  H18S15030   6.216   4.675   8.642 -1.2455  0.2040  0.9825
  138SAPE  C21915031   6.431   4.698   8.667  0.2155  0.1272  0.3273
  138SAPE  H19R15032   6.433   4.595   8.709 -1.6860 -0.1068 -0.0659
  138SAPE  H19S15033   6.504   4.763   8.721 -0.1491 -0.2947  1.3508
  138SAPE  C22015034   6.482   4.695   8.515 -0.3384 -0.2319  0.7176
  138SAPE  H20R15035   6.433   4.614   8.457  2.3168 -0.6382 -1.1868
  138SAPE  H20S15036   6.592   4.678   8.515 -0.2717 -0.0008 -1.1667
  138SAPE  H20T15037   6.463   4.796   8.473 -0.6774 -1.3899 -2.1499
  138SAPE   C3315038   5.877   4.416  10.042  0.3564 -0.0238 -0.3859
  138SAPE   H3X15039   5.835   4.433  10.143  0.3298 -3.2946  0.2705
  138SAPE   H3Y15040   5.938   4.324  10.046  2.4369  1.3459  1.9160
  138SAPE   C3415041   5.772   4.409   9.933  0.3266 -0.1740 -0.2364
  138SAPE   H4X15042   5.704   4.328   9.966  0.9339  0.2378  2.1959
  138SAPE   H4Y15043   5.819   4.375   9.838 -1.4198 -0.5897 -0.9912
  138SAPE   C3515044   5.681   4.528   9.922  0.0719 -0.7926  0.6414
  138SAPE   H5X15045   5.742   4.620   9.907  1.3512 -1.5615  1.0035
  138SAPE   H5Y15046   5.626   4.544  10.018 -1.6458  2.4096 -0.7188
  138SAPE   C3615047   5.564   4.506   9.827 -0.0779 -0.0597 -0.3336
  138SAPE   H6X15048   5.489   4.585   9.848  0.6620  0.3510  0.8437
  138SAPE   H6Y15049   5.520   4.409   9.861  1.3727  0.5020  3.6452
  138SAPE   C3715050   5.609   4.496   9.680 -0.3032 -0.7796  0.1189
  138SAPE   H7X15051   5.688   4.422   9.658 -0.1921  0.1873 -3.3063
  138SAPE   H7Y15052   5.661   4.592   9.656  1.7890 -1.2408  2.3708
  138SAPE   C3815053   5.495   4.489   9.584 -0.2521  0.5917 -0.5782
  138SAPE   H8X15054   5.430   4.577   9.602 -0.0366  0.7891 -0.7662
  138SAPE   H8Y15055   5.441   4.396   9.612  0.1690  0.8027  1.0681
  138SAPE   C3915056   5.537   4.468   9.439  0.0605 -1.2560  0.2104
  138SAPE   H9X15057   5.583   4.371   9.414 -1.7951 -1.3768 -3.3341
  138SAPE   H9Y15058   5.617   4.535   9.402 -1.2731  1.7724  2.3748
  138SAPE  C31015059   5.417   4.484   9.344  0.5602  0.1203 -0.4566
  138SAPE  H10X15060   5.377   4.588   9.343 -0.9621 -0.4254  0.0626
  138SAPE  H10Y15061   5.343   4.405   9.371  2.2077 -1.2264  0.2538
  138SAPE  C31115062   5.453   4.455   9.196 -0.3262  0.0772 -0.6840
  138SAPE  H11X15063   5.360   4.433   9.140  0.3315 -2.2393 -0.9778
  138SAPE  H11Y15064   5.521   4.367   9.197 -2.3304 -1.5456 -1.1632
  138SAPE  C31215065   5.543   4.553   9.112  0.1002 -0.0441  0.0981
  138SAPE  H12X15066   5.589   4.504   9.024  0.4928  0.7307 -0.1432
  138SAPE  H12Y15067   5.621   4.592   9.181  1.1596  2.1318 -2.1642
  138SAPE  C31315068   5.465   4.670   9.043 -0.2613  0.8834 -0.6753
  138SAPE  H13X15069   5.414   4.728   9.122 -2.2936  0.3195 -1.5147
  138SAPE  H13Y15070   5.394   4.616   8.977 -1.3586  1.2338  0.1976
  138SAPE  C31415071   5.560   4.761   8.965  0.1593  0.0836  0.2572
  138SAPE  H14X15072   5.653   4.764   9.026 -0.5473  1.6612  1.3230
  138SAPE  H14Y15073   5.518   4.863   8.952 -0.9831 -0.5745 -1.5661
  138SAPE  C31515074   5.600   4.714   8.824 -0.8376 -0.1649  0.7398
  138SAPE  H15X15075   5.517   4.707   8.751  0.8518  0.4196 -1.3474
  138SAPE  H15Y15076   5.639   4.610   8.826  1.4544  0.6483  2.1263
  138SAPE  C31615077   5.719   4.800   8.770  0.7656  0.1187 -0.9193
  138SAPE  H16X15078   5.808   4.778   8.833 -0.4687 -0.4521  0.6905
  138SAPE  H16Y15079   5.690   4.904   8.794 -1.0799 -0.6978  0.6913
  138SAPE  C31715080   5.744   4.775   8.623  0.6796 -0.1462 -0.7505
  138SAPE  H17X15081   5.653   4.808   8.569  1.0543  3.3110  0.4869
  138SAPE  H17Y15082   5.766   4.671   8.591  0.2525 -0.4692 -0.0166
  138SAPE  C31815083   5.859   4.856   8.565 -0.1194  0.4219  0.5255
  138SAPE  H18X15084   5.956   4.829   8.611 -0.7251 -2.9573  0.0371
  138SAPE  H18Y15085   5.833   4.964   8.577 -1.5047  0.3006 -1.0087
  138SAPE  H18Z15086   5.870   4.841   8.455 -1.2341 -0.0656  0.4675
  139SAPE     N15087   5.135   2.786  10.630  0.1098 -0.0916 -0.4731
  139SAPE   HN115088   5.233   2.813  10.652 -0.0689 -0.3735  0.7364
  139SAPE   HN215089   5.065   2.862  10.641 -0.3146 -0.7353  1.7459
  139SAPE   HN315090   5.107   2.718  10.704  0.4837  0.1091 -0.1396
  139SAPE   C1215091   5.117   2.724  10.501  0.3155 -0.4122 -0.5692
  139SAPE  H12A15092   5.170   2.627  10.508  1.3339  0.1224 -0.7682
  139SAPE  H12B15093   5.180   2.789  10.437  1.5896 -0.6971  0.3457
  139SAPE   C1115094   4.973   2.724  10.454 -0.3520 -0.3167  0.0985
  139SAPE  H11A15095   4.970   2.669  10.358  0.8055 -1.5351  0.7251
  139SAPE  H11B15096   4.942   2.829  10.436  3.5918  1.5398  2.6120
  139SAPE     P15097   4.798   2.537  10.527  0.0139 -0.0605  0.1184
  139SAPE   O1315098   4.866   2.433  10.597  0.5747 -0.7396  0.0348
  139SAPE   O1415099   4.667   2.580  10.572 -0.2426 -0.1240  0.0901
  139SAPE   O1215100   4.883   2.666  10.543 -0.2982  0.4475  0.0121
  139SAPE   O1115101   4.789   2.518  10.369 -0.1660 -0.3540  0.5866
  139SAPE    C115102   4.754   2.391  10.313 -0.1201 -0.3416 -0.0173
  139SAPE    HA15103   4.690   2.329  10.380 -1.3033  0.4653 -0.3731
  139SAPE    HB15104   4.710   2.401  10.212 -1.8186  1.5729  0.8253
  139SAPE    C215105   4.893   2.312  10.307 -0.3052 -0.3131 -0.1911
  139SAPE    HS15106   4.927   2.293  10.410  1.7247 -1.5690 -1.0428
  139SAPE   O2115107   4.991   2.380  10.227  0.0344  0.0041  0.0927
  139SAPE   C2115108   5.115   2.389  10.279 -0.0070 -0.2556 -0.0576
  139SAPE   O2215109   5.156   2.326  10.376  0.2206 -0.1939  0.6774
  139SAPE   C2215110   5.203   2.480  10.194 -1.3901 -0.0375 -0.2863
  139SAPE   H2R15111   5.147   2.565  10.150 -1.1518  0.4659  0.3614
  139SAPE   H2S15112   5.264   2.535  10.269 -2.8995  0.0987  0.8901
  139SAPE    C315113   4.877   2.166  10.245  0.2788  0.4432  0.3537
  139SAPE    HX15114   4.836   2.174  10.142  1.6749  0.0529 -0.2431
  139SAPE    HY15115   4.802   2.112  10.307  0.9276 -1.5306 -0.5222
  139SAPE   O3115116   5.005   2.098  10.225  0.2983 -0.0597 -0.4934
  139SAPE   C3115117   5.039   2.032  10.334  0.0487 -0.7137 -0.9125
  139SAPE   O3215118   4.983   2.025  10.444 -0.1838 -0.8728  0.3172
  139SAPE   C3215119   5.183   1.966  10.304 -0.0167  0.4283 -0.3326
  139SAPE   H2X15120   5.247   1.991  10.391 -0.5567 -0.1575  0.2489
  139SAPE   H2Y15121   5.232   2.015  10.217  2.7328 -1.2594  0.1536
  139SAPE   C2315122   5.279   2.400  10.076  1.3231 -0.3246 -0.0952
  139SAPE   H3R15123   5.368   2.357  10.128  1.6780  0.3617 -0.1248
  139SAPE   H3S15124   5.323   2.471  10.003  0.6692  0.3193  0.1287
  139SAPE   C2415125   5.207   2.285  10.009 -1.0473 -0.4697 -0.8782
  139SAPE   H4R15126   5.177   2.210  10.085  0.9731 -1.3384 -0.8768
  139SAPE   H4S15127   5.284   2.241   9.942 -0.9745 -3.5552  1.0514
  139SAPE   C2515128   5.082   2.312   9.932  0.1010 -0.4497  0.2195
  139SAPE   H5R15129   5.010   2.382   9.976 -0.2213 -1.4017  1.2637
  139SAPE   C2615130   5.061   2.262   9.809  0.4430  0.6145 -0.4011
  139SAPE   H6R15131   4.967   2.291   9.761  0.1722 -0.6400 -0.6580
  139SAPE   C2715132   5.150   2.179   9.727  0.1892  0.4640 -0.2562
  139SAPE   H7R15133   5.145   2.079   9.774 -0.1739 -0.0904 -1.4335
  139SAPE   H7S15134   5.257   2.206   9.739 -0.2262  1.6892  0.9691
  139SAPE   C2815135   5.116   2.172   9.578 -0.1355 -0.0728  0.0330
  139SAPE   H8R15136   5.013   2.209   9.564 -0.4976 -0.3509  1.7397
  139SAPE   C2915137   5.196   2.136   9.477 -0.1921 -1.1484 -0.7946
  139SAPE   H9R15138   5.159   2.145   9.374  0.0246  1.9323 -0.7017
  139SAPE  C21015139   5.338   2.087   9.499 -1.4189  0.1351 -0.1631
  139SAPE  H10R15140   5.327   1.982   9.465  0.8381  0.1356 -1.0626
  139SAPE  H10S15141   5.373   2.083   9.604  1.5190  1.9424 -0.9594
  139SAPE  C21115142   5.439   2.163   9.412  0.4463 -0.5726  0.2333
  139SAPE  H11R15143   5.465   2.265   9.443 -0.5085 -0.2394 -0.0373
  139SAPE  C21215144   5.493   2.115   9.297  0.5822 -0.2784 -0.1472
  139SAPE  H12R15145   5.562   2.180   9.242  1.8683 -2.3380 -1.0834
  139SAPE  C21315146   5.474   1.976   9.239  0.2067  0.3260 -0.5569
  139SAPE  H13R15147   5.366   1.968   9.211 -0.4857  0.3383  1.8982
  139SAPE  H13S15148   5.482   1.908   9.326 -0.2366  1.2827  0.2605
  139SAPE  C21415149   5.576   1.942   9.130  0.1480  0.2589  0.6623
  139SAPE  H14R15150   5.643   1.861   9.160 -1.0732 -0.3698  1.8200
  139SAPE  C21515151   5.582   2.003   9.013  0.1735  0.3335  0.4734
  139SAPE  H15R15152   5.653   1.961   8.941 -0.2038  1.1865 -0.4120
  139SAPE  C21615153   5.502   2.117   8.953  0.2325  0.3902 -0.0932
  139SAPE  H16R15154   5.568   2.199   8.917  0.7643 -0.1848 -0.4676
  139SAPE  H16S15155   5.434   2.160   9.030  1.3329  3.4089 -0.6713
  139SAPE  C21715156   5.418   2.062   8.830  0.5201  0.4036  0.3433
  139SAPE  H17R15157   5.374   1.962   8.850  1.5540 -0.4984 -1.6090
  139SAPE  H17S15158   5.490   2.026   8.754  0.4243 -1.7930  1.2203
  139SAPE  C21815159   5.327   2.164   8.760  0.2441  0.7409 -0.0311
  139SAPE  H18R15160   5.302   2.129   8.657 -0.8455  3.6988 -0.8869
  139SAPE  H18S15161   5.380   2.262   8.758  2.4975 -0.3460  1.8129
  139SAPE  C21915162   5.192   2.177   8.821 -0.3846  0.0072 -0.6708
  139SAPE  H19R15163   5.218   2.221   8.920 -0.8523  0.1328 -0.6025
  139SAPE  H19S15164   5.152   2.075   8.842  1.9523 -0.7309  0.7021
  139SAPE  C22015165   5.092   2.266   8.749  0.4205  0.1295 -0.4218
  139SAPE  H20R15166   5.121   2.369   8.718 -1.5662  0.6008 -0.8304
  139SAPE  H20S15167   5.000   2.280   8.809 -1.5233 -1.3604 -2.8958
  139SAPE  H20T15168   5.073   2.216   8.652  1.9964  1.5580 -1.5291
  139SAPE   C3315169   5.166   1.815  10.284 -0.3592  0.5652  0.2702
  139SAPE   H3X15170   5.061   1.788  10.263  0.0674 -1.1142  0.1003
  139SAPE   H3Y15171   5.185   1.772  10.385 -1.4776  0.3581  0.3971
  139SAPE   C3415172   5.264   1.757  10.167  0.2237  0.5770 -0.4054
  139SAPE   H4X15173   5.285   1.650  10.187  0.2193  0.9125  1.5266
  139SAPE   H4Y15174   5.358   1.816  10.170  1.5289 -1.4238  2.3727
  139SAPE   C3515175   5.197   1.779  10.032  0.8529 -0.6829  0.2779
  139SAPE   H5X15176   5.188   1.889  10.018 -1.8815 -0.5562  2.1900
  139SAPE   H5Y15177   5.095   1.737  10.045  0.7214 -0.0668  1.3625
  139SAPE   C3615178   5.263   1.701   9.920  0.3313 -0.0203  0.1441
  139SAPE   H6X15179   5.283   1.598   9.955 -3.8291 -0.4837  1.5813
  139SAPE   H6Y15180   5.356   1.758   9.897  0.0844  0.6594  0.7763
  139SAPE   C3715181   5.184   1.700   9.787  0.2570  0.2096  0.1718
  139SAPE   H7X15182   5.142   1.803   9.778 -1.1221 -0.4484 -1.4922
  139SAPE   H7Y15183   5.087   1.646   9.789 -0.0070  0.6468 -0.3030
  139SAPE   C3815184   5.257   1.665   9.662  0.0842  0.6787  0.0461
  139SAPE   H8X15185   5.240   1.557   9.641 -2.0772  0.6039  1.7778
  139SAPE   H8Y15186   5.365   1.687   9.669  0.2388 -0.1505  0.4681
  139SAPE   C3915187   5.195   1.732   9.536  0.1796 -0.8386 -0.8057
  139SAPE   H9X15188   5.212   1.841   9.546  0.7653 -0.8791 -1.3040
  139SAPE   H9Y15189   5.084   1.727   9.530  0.0219 -0.6903  1.2111
  139SAPE  C31015190   5.250   1.679   9.401 -0.2651 -0.3434 -0.2754
  139SAPE  H10X15191   5.237   1.570   9.384 -0.8563 -0.5977  1.5691
  139SAPE  H10Y15192   5.359   1.699   9.408 -0.2577 -0.8747  2.4398
  139SAPE  C31115193   5.178   1.745   9.281 -0.6272  0.7898  0.8798
  139SAPE  H11X15194   5.207   1.852   9.281  4.5553 -0.3731  1.2355
  139SAPE  H11Y15195   5.071   1.726   9.305 -0.1571 -1.3374  1.4779
  139SAPE  C31215196   5.244   1.678   9.155 -0.8117  0.2789 -0.7581
  139SAPE  H12X15197   5.245   1.568   9.170  0.0480  0.2827 -0.7230
  139SAPE  H12Y15198   5.350   1.711   9.149 -0.6226  0.1099  1.1725
  139SAPE  C31315199   5.180   1.721   9.025  0.1998 -0.4239  0.1922
  139SAPE  H13X15200   5.227   1.666   8.940 -2.0813  1.5416 -2.5462
  139SAPE  H13Y15201   5.210   1.828   9.016 -0.8875 -0.0055  1.2201
  139SAPE  C31415202   5.025   1.708   9.009 -0.0043  0.4558 -0.6325
  139SAPE  H14X15203   4.975   1.727   9.106  0.8965 -2.7322  0.5718
  139SAPE  H14Y15204   5.012   1.598   8.994  0.0998  0.3792 -0.1525
  139SAPE  C31515205   4.974   1.786   8.891  0.0017  0.2063  0.2643
  139SAPE  H15X15206   4.981   1.894   8.918  0.3294  0.3284 -0.2939
  139SAPE  H15Y15207   4.867   1.755   8.885  0.1712 -0.6813  1.5452
  139SAPE  C31615208   5.061   1.775   8.763  0.2628 -0.3761 -0.3833
  139SAPE  H16X15209   5.159   1.825   8.779 -0.7558  1.8906 -0.8863
  139SAPE  H16Y15210   5.080   1.670   8.734  1.9459  0.3098 -1.9691
  139SAPE  C31715211   4.975   1.836   8.650 -0.1145  0.0667 -0.6112
  139SAPE  H17X15212   4.935   1.937   8.673 -0.0988 -0.3464  1.4213
  139SAPE  H17Y15213   4.883   1.778   8.631  0.0970 -0.0798 -1.2302
  139SAPE  C31815214   5.054   1.855   8.526 -0.1309  0.1826 -0.0292
  139SAPE  H18X15215   4.995   1.864   8.432  1.6999 -0.0543 -1.2563
  139SAPE  H18Y15216   5.125   1.774   8.499 -0.6640 -0.0392 -0.7980
  139SAPE  H18Z15217   5.114   1.949   8.528 -1.9577  1.4583 -1.2551
  140SAPE     N15218   0.898   5.340  11.066  0.1788 -0.4166 -0.1185
  140SAPE   HN115219   0.934   5.243  11.051 -0.7922 -0.7789 -0.2259
  140SAPE   HN215220   0.973   5.391  11.116 -0.2781  0.5792 -0.4160
  140SAPE   HN315221   0.814   5.338  11.127 -0.1714 -0.5821 -0.6010
  140SAPE   C1215222   0.871   5.404  10.926  0.3338  0.1876  0.2508
  140SAPE  H12A15223   0.946   5.363  10.854 -0.0299 -0.2703  0.1312
  140SAPE  H12B15224   0.878   5.514  10.934 -1.6746  0.2876  1.1853
  140SAPE   C1115225   0.725   5.388  10.880  0.6548 -0.1491  0.2042
  140SAPE  H11A15226   0.696   5.285  10.851 -0.0794  0.3628 -0.9704
  140SAPE  H11B15227   0.719   5.442  10.783  1.8824  1.3310  0.9219
  140SAPE     P15228   0.487   5.390  10.991 -0.0968 -0.2437 -0.3468
  140SAPE   O1315229   0.481   5.255  11.055 -0.7738  0.1800 -0.0079
  140SAPE   O1415230   0.405   5.495  11.055 -0.0497 -0.4444 -0.8479
  140SAPE   O1215231   0.637   5.447  10.973 -0.0948 -0.2260 -0.0721
  140SAPE   O1115232   0.443   5.382  10.842 -0.1527 -0.4020 -0.9365
  140SAPE    C115233   0.444   5.505  10.764  0.1906 -0.6564 -0.0895
  140SAPE    HA15234   0.512   5.583  10.804  0.0610 -0.8909  0.6058
  140SAPE    HB15235   0.499   5.482  10.670 -0.6038 -2.5530 -0.1300
  140SAPE    C215236   0.297   5.550  10.737  0.1535 -0.5114  0.0657
  140SAPE    HS15237   0.263   5.573  10.841  0.1767 -2.5324  0.5560
  140SAPE   O2115238   0.219   5.444  10.677 -0.0865 -0.7377 -0.6505
  140SAPE   C2115239   0.089   5.462  10.677  0.6177  0.1915 -0.1898
  140SAPE   O2215240   0.024   5.544  10.742  0.2908 -0.4399  0.2555
  140SAPE   C2215241   0.029   5.359  10.579  0.2345 -0.4417 -0.1762
  140SAPE   H2R15242   0.102   5.318  10.506  0.0841 -0.3707 -0.3694
  140SAPE   H2S15243  -0.009   5.267  10.628 -2.1446  0.4629 -0.1627
  140SAPE    C315244   0.277   5.683  10.655 -0.8554 -0.1840 -0.2344
  140SAPE    HX15245   0.368   5.741  10.682 -1.7313  0.4824  1.5056
  140SAPE    HY15246   0.182   5.733  10.687 -0.7865 -0.1073 -0.1491
  140SAPE   O3115247   0.287   5.651  10.521  0.1047  0.3501  0.2782
  140SAPE   C3115248   0.199   5.712  10.442 -0.0243 -0.5415 -0.6879
  140SAPE   O3215249   0.125   5.802  10.482 -0.9004  0.2666 -0.3038
  140SAPE   C3215250   0.198   5.660  10.296  0.2878  0.0395  0.1661
  140SAPE   H2X15251   0.158   5.557  10.289 -0.5977  0.2662  1.6479
  140SAPE   H2Y15252   0.303   5.660  10.260  0.2988 -1.3322  0.1518
  140SAPE   C2315253  -0.084   5.427  10.505  0.8853  0.4487  0.7417
  140SAPE   H3R15254  -0.067   5.523  10.452  0.6392 -0.4106 -0.9488
  140SAPE   H3S15255  -0.160   5.448  10.584  2.1113  1.3538  1.7413
  140SAPE   C2415256  -0.159   5.330  10.410 -0.3467 -0.4459 -0.0015
  140SAPE   H4R15257  -0.245   5.388  10.373  0.2194 -0.6564 -1.7162
  140SAPE   H4S15258  -0.187   5.241  10.471 -1.4183  1.1537  1.9564
  140SAPE   C2515259  -0.078   5.283  10.292  0.1988 -0.4541  0.4273
  140SAPE   H5R15260  -0.004   5.207  10.320 -1.6128 -2.7467 -0.6766
  140SAPE   C2615261  -0.091   5.313  10.165 -0.4841 -0.1550  0.5213
  140SAPE   H6R15262  -0.022   5.276  10.088 -3.0898  2.3878 -3.3856
  140SAPE   C2715263  -0.195   5.412  10.116  0.1396  0.5442  0.2507
  140SAPE   H7R15264  -0.171   5.512  10.158  0.7245  0.7801 -0.6174
  140SAPE   H7S15265  -0.300   5.400  10.148  0.3242 -0.5575  0.4847
  140SAPE   C2815266  -0.176   5.433   9.965 -0.4648  0.1900 -0.2978
  140SAPE   H8R15267  -0.081   5.454   9.915 -0.3364 -2.3742 -1.3168
  140SAPE   C2915268  -0.276   5.439   9.872 -0.8058 -0.4967  0.1465
  140SAPE   H9R15269  -0.236   5.444   9.770 -3.1804 -1.5163 -0.9012
  140SAPE  C21015270  -0.425   5.415   9.880  0.1637  0.2828  0.2156
  140SAPE  H10R15271  -0.484   5.493   9.828 -0.3498 -0.1664  0.1075
  140SAPE  H10S15272  -0.459   5.420   9.986 -2.1222  1.7230 -0.5204
  140SAPE  C21115273  -0.457   5.276   9.827 -0.3589 -0.6546 -0.4925
  140SAPE  H11R15274  -0.436   5.193   9.897 -0.9573 -0.2650  0.1692
  140SAPE  C21215275  -0.497   5.245   9.706  0.0541 -0.2466  0.2637
  140SAPE  H12R15276  -0.517   5.140   9.681  1.2600  0.4560 -4.7403
  140SAPE  C21315277  -0.531   5.329   9.585 -0.1257  0.1122  0.4916
  140SAPE  H13R15278  -0.469   5.318   9.494  1.3430  0.0899  1.4480
  140SAPE  H13S15279  -0.514   5.437   9.608  0.4338 -0.3325  2.3673
  140SAPE  C21415280  -0.676   5.320   9.550  0.3548 -0.8848  0.3825
  140SAPE  H14R15281  -0.740   5.329   9.638  0.8818  0.2583  0.6631
  140SAPE  C21515282  -0.725   5.299   9.428  0.6091  0.4950  0.5121
  140SAPE  H15R15283  -0.833   5.284   9.417  0.4796  1.6468 -0.0103
  140SAPE  C21615284  -0.655   5.292   9.292  0.0677  0.3186 -0.2266
  140SAPE  H16R15285  -0.719   5.257   9.209  1.9818  0.5152 -1.8456
  140SAPE  H16S15286  -0.574   5.216   9.291 -1.2529 -1.1379  0.1461
  140SAPE  C21715287  -0.587   5.426   9.247 -0.4458  0.6058 -0.0077
  140SAPE  H17R15288  -0.525   5.471   9.327 -0.7857  0.9963  0.0419
  140SAPE  H17S15289  -0.674   5.494   9.239 -1.1333  0.0399  2.1988
  140SAPE  C21815290  -0.521   5.420   9.106 -0.3208  0.1786  0.2818
  140SAPE  H18R15291  -0.452   5.335   9.088  1.1102  1.3195  0.1575
  140SAPE  H18S15292  -0.478   5.522   9.097 -0.6387  0.2917  0.0242
  140SAPE  C21915293  -0.622   5.403   8.994 -0.2361 -0.0182  0.0484
  140SAPE  H19R15294  -0.709   5.472   8.999 -1.7898 -1.9795  2.4544
  140SAPE  H19S15295  -0.668   5.302   8.998  2.4994 -1.3297  0.8981
  140SAPE  C22015296  -0.557   5.398   8.855  0.4695  0.2921 -0.6922
  140SAPE  H20R15297  -0.514   5.499   8.839  1.3643  0.4101  1.9352
  140SAPE  H20S15298  -0.636   5.376   8.780 -1.3032  0.7199  0.9615
  140SAPE  H20T15299  -0.477   5.321   8.857 -0.0780 -0.2923  1.5668
  140SAPE   C3315300   0.120   5.752  10.197 -0.1917  0.2286 -0.3746
  140SAPE   H3X15301   0.170   5.849  10.219  0.0623  0.0577 -0.1859
  140SAPE   H3Y15302   0.017   5.773  10.231  0.7263  1.6755  1.7338
  140SAPE   C3415303   0.131   5.687  10.059 -0.2295 -0.1048 -0.9265
  140SAPE   H4X15304   0.090   5.586  10.077 -1.0227  0.4580  0.6076
  140SAPE   H4Y15305   0.233   5.696  10.018  0.1090  0.7747  0.0742
  140SAPE   C3515306   0.035   5.761   9.968 -0.7077  0.5654 -0.4546
  140SAPE   H5X15307   0.055   5.869   9.955  2.4568  0.0906 -0.2429
  140SAPE   H5Y15308  -0.069   5.750  10.007 -1.9231  1.2706 -3.2865
  140SAPE   C3615309   0.040   5.703   9.824 -0.7181  0.1593  0.3001
  140SAPE   H6X15310   0.020   5.594   9.817  2.1308 -0.3463 -4.2452
  140SAPE   H6Y15311   0.138   5.734   9.781  0.9671 -0.8430  3.1712
  140SAPE   C3715312  -0.061   5.774   9.733  0.1694  0.0076 -0.1541
  140SAPE   H7X15313  -0.035   5.882   9.728  1.8125 -0.4206 -2.5256
  140SAPE   H7Y15314  -0.168   5.759   9.758 -0.7635 -1.7847 -4.3554
  140SAPE   C3815315  -0.054   5.710   9.591  0.2110 -0.5085  0.2334
  140SAPE   H8X15316  -0.097   5.608   9.589 -0.1029 -0.3830 -1.6541
  140SAPE   H8Y15317   0.054   5.702   9.566  0.7517  3.0749  0.8713
  140SAPE   C3915318  -0.115   5.801   9.477 -0.5929  0.7202  0.8214
  140SAPE   H9X15319  -0.054   5.894   9.475  2.8660 -1.3760  0.1752
  140SAPE   H9Y15320  -0.222   5.817   9.499 -1.1335 -0.8572 -0.4607
  140SAPE  C31015321  -0.092   5.739   9.335 -0.0948 -0.4201  0.1581
  140SAPE  H10X15322  -0.119   5.632   9.345  1.2089 -0.6029  2.5368
  140SAPE  H10Y15323   0.018   5.736   9.323 -0.2156 -0.4533 -1.1446
  140SAPE  C31115324  -0.163   5.818   9.223  0.2500  0.6898 -0.2143
  140SAPE  H11X15325  -0.110   5.915   9.212  1.2006  0.0896 -1.1026
  140SAPE  H11Y15326  -0.263   5.841   9.266 -0.2889  0.0598 -1.0796
  140SAPE  C31215327  -0.168   5.735   9.089  0.7054 -0.1720 -0.3978
  140SAPE  H12X15328  -0.212   5.638   9.120 -1.4274 -0.0936 -2.8388
  140SAPE  H12Y15329  -0.063   5.719   9.055 -0.1350 -0.3112 -3.2342
  140SAPE  C31315330  -0.241   5.818   8.986  0.4542  0.3651  0.4244
  140SAPE  H13X15331  -0.184   5.911   8.966 -2.1607  2.3587  1.5841
  140SAPE  H13Y15332  -0.345   5.845   9.015  0.2803  2.7756 -1.9594
  140SAPE  C31415333  -0.254   5.737   8.851  0.1029  0.2409 -0.5165
  140SAPE  H14X15334  -0.313   5.649   8.883  2.0999 -0.9037  0.2122
  140SAPE  H14Y15335  -0.150   5.704   8.830 -0.1673 -0.8433 -0.2227
  140SAPE  C31515336  -0.314   5.817   8.735 -0.5409  0.3442  0.5824
  140SAPE  H15X15337  -0.245   5.897   8.701 -0.8741  0.2314 -0.3884
  140SAPE  H15Y15338  -0.407   5.862   8.775 -1.3424 -0.5498 -0.2372
  140SAPE  C31615339  -0.358   5.728   8.615 -0.4757  0.4407 -0.0888
  140SAPE  H16X15340  -0.418   5.644   8.654  2.6362 -2.2753 -0.7154
  140SAPE  H16Y15341  -0.267   5.684   8.569  0.6073  1.6947  0.7776
  140SAPE  C31715342  -0.433   5.806   8.506  1.0844 -0.2836 -0.0458
  140SAPE  H17X15343  -0.374   5.893   8.470 -1.6106  1.3990 -0.6763
  140SAPE  H17Y15344  -0.527   5.849   8.545  0.5220  0.4588 -2.0868
  140SAPE  C31815345  -0.468   5.707   8.388  0.2516  0.0747  0.1062
  140SAPE  H18X15346  -0.376   5.651   8.362  1.0390  0.8644  1.1438
  140SAPE  H18Y15347  -0.504   5.762   8.299 -3.2889 -0.6760  0.9232
  140SAPE  H18Z15348  -0.548   5.633   8.411  0.7258 -0.1343  1.1826
  141SAPE     N15349   1.942   1.618  11.137 -0.5685  0.1796 -0.2093
  141SAPE   HN115350   1.883   1.553  11.082 -0.0227 -0.4640 -0.0425
  141SAPE   HN215351   2.002   1.559  11.197 -3.3601 -2.8733 -0.1048
  141SAPE   HN315352   1.887   1.680  11.200  1.1626 -0.5980  2.1747
  141SAPE   C1215353   2.024   1.685  11.037  0.1133  1.2150  0.0584
  141SAPE  H12A15354   2.014   1.619  10.947  0.0859  1.6975 -0.2984
  141SAPE  H12B15355   2.130   1.684  11.069  0.3926 -1.5463 -0.6721
  141SAPE   C1115356   1.950   1.816  11.007 -0.5079 -0.2235 -0.2064
  141SAPE  H11A15357   1.990   1.861  10.914 -0.2280  0.8410  0.4164
  141SAPE  H11B15358   1.969   1.883  11.093  1.6996 -1.3361  0.2618
  141SAPE     P15359   1.716   1.903  10.918  0.6155 -0.0325  0.1583
  141SAPE   O1315360   1.577   1.863  10.948 -0.1229  0.2737  0.6094
  141SAPE   O1415361   1.753   2.044  10.953  0.1413  0.1579  0.3174
  141SAPE   O1215362   1.815   1.803  10.988  0.0327  0.2123 -0.3218
  141SAPE   O1115363   1.745   1.890  10.767  0.3328  0.3420  0.5387
  141SAPE    C115364   1.701   1.769  10.696 -0.5918  0.0128  0.1843
  141SAPE    HA15365   1.735   1.676  10.746 -3.0284 -0.9981  0.0549
  141SAPE    HB15366   1.592   1.754  10.682 -0.5731  1.3610 -1.9111
  141SAPE    C215367   1.770   1.756  10.556 -0.8835  0.3225  0.3252
  141SAPE    HS15368   1.880   1.762  10.567 -1.1387  0.8210  3.7793
  141SAPE   O2115369   1.715   1.857  10.470 -0.0602  0.2666  0.4076
  141SAPE   C2115370   1.809   1.938  10.421 -0.1281  0.3259  0.0390
  141SAPE   O2215371   1.918   1.960  10.474  0.2314  0.5986 -0.1561
  141SAPE   C2215372   1.754   2.025  10.304 -0.1526 -1.3554  0.6000
  141SAPE   H2R15373   1.696   1.972  10.226 -1.2394  2.9804 -1.8591
  141SAPE   H2S15374   1.691   2.100  10.355  0.1310 -1.3345  0.9286
  141SAPE    C315375   1.733   1.626  10.481  0.5202  0.7355  0.9213
  141SAPE    HX15376   1.624   1.612  10.466  0.3860  0.4375  2.1024
  141SAPE    HY15377   1.763   1.545  10.550  2.2097  0.7291  0.2331
  141SAPE   O3115378   1.806   1.616  10.354  0.0276  0.3772 -0.2183
  141SAPE   C3115379   1.772   1.504  10.280  0.0892  0.1192  0.8287
  141SAPE   O3215380   1.700   1.416  10.322 -0.1891 -0.4306 -0.0442
  141SAPE   C3215381   1.836   1.511  10.143 -0.1794  0.1890  0.0288
  141SAPE   H2X15382   1.755   1.525  10.068 -0.6283 -1.0994  0.2327
  141SAPE   H2Y15383   1.886   1.417  10.113 -1.8684 -0.8333  0.2371
  141SAPE   C2315384   1.866   2.084  10.214  1.0185 -0.4531  0.5938
  141SAPE   H3R15385   1.902   2.007  10.142  1.0070 -0.2336  0.3474
  141SAPE   H3S15386   1.960   2.101  10.270  1.7870  0.4692 -0.8947
  141SAPE   C2415387   1.821   2.205  10.131 -0.0011 -0.2614  0.0314
  141SAPE   H4R15388   1.898   2.267  10.081 -0.1451  2.2540  2.6476
  141SAPE   H4S15389   1.778   2.279  10.203  0.6687 -0.8728  1.0888
  141SAPE   C2515390   1.716   2.159  10.024 -0.3251  0.2684  0.7906
  141SAPE   H5R15391   1.613   2.182  10.056 -0.2301 -1.2095  2.3555
  141SAPE   C2615392   1.733   2.111   9.902 -0.3473  0.0973  0.5957
  141SAPE   H6R15393   1.638   2.109   9.847 -1.1656  4.8531  1.3460
  141SAPE   C2715394   1.860   2.073   9.835 -0.0219 -0.1584  0.4457
  141SAPE   H7R15395   1.846   1.982   9.773  2.5862 -0.9742  0.9418
  141SAPE   H7S15396   1.938   2.043   9.908  4.0338  0.8621 -3.0580
  141SAPE   C2815397   1.914   2.195   9.764  0.3339 -0.1200  0.5962
  141SAPE   H8R15398   1.945   2.269   9.840  0.7198  1.0053 -0.6294
  141SAPE   C2915399   1.936   2.220   9.630 -0.5155 -0.0385 -0.1997
  141SAPE   H9R15400   2.001   2.305   9.604  0.0748  0.1016  1.6024
  141SAPE  C21015401   1.909   2.107   9.531  0.2095 -0.3463 -0.1442
  141SAPE  H10R15402   1.869   2.152   9.438 -0.3537  0.3021  0.4004
  141SAPE  H10S15403   1.824   2.043   9.562 -1.1686  0.8247 -1.3110
  141SAPE  C21115404   2.029   2.020   9.495  0.1222 -0.3432  0.1837
  141SAPE  H11R15405   2.078   1.974   9.583 -2.1734 -4.2404 -0.3476
  141SAPE  C21215406   2.103   2.001   9.382  0.6696 -0.4030  0.0576
  141SAPE  H12R15407   2.184   1.927   9.380  0.4930 -0.6002  0.1871
  141SAPE  C21315408   2.066   2.059   9.247  0.0639 -0.6011 -0.4960
  141SAPE  H13R15409   1.966   2.105   9.257 -0.7865 -2.6852  1.4490
  141SAPE  H13S15410   2.055   1.970   9.181  0.2481  0.4491 -1.9823
  141SAPE  C21415411   2.177   2.143   9.185 -0.4594  0.3202 -0.1456
  141SAPE  H14R15412   2.211   2.216   9.260 -2.4614 -0.2813  1.4352
  141SAPE  C21515413   2.237   2.134   9.064 -1.2901  0.4675  0.2321
  141SAPE  H15R15414   2.315   2.208   9.042 -1.4445  0.3570 -0.7157
  141SAPE  C21615415   2.192   2.036   8.960 -0.3761  1.3713  0.6302
  141SAPE  H16R15416   2.089   1.999   8.979 -0.2119 -0.2874 -1.4328
  141SAPE  H16S15417   2.260   1.948   8.955 -1.6181  0.4611 -2.3770
  141SAPE  C21715418   2.191   2.085   8.814 -0.0683  0.7386 -0.5054
  141SAPE  H17R15419   2.288   2.137   8.806  0.8270 -0.6623  0.6381
  141SAPE  H17S15420   2.113   2.161   8.795  1.1549  2.0507 -0.3801
  141SAPE  C21815421   2.171   1.969   8.712 -0.8724 -0.0955 -0.0274
  141SAPE  H18R15422   2.063   1.946   8.718 -1.5284  2.8632  1.5317
  141SAPE  H18S15423   2.239   1.883   8.730 -1.0972  0.2371  2.8378
  141SAPE  C21915424   2.198   2.018   8.568 -0.2047 -0.0367  0.2910
  141SAPE  H19R15425   2.279   2.094   8.564 -1.1301  0.9283 -1.2644
  141SAPE  H19S15426   2.107   2.074   8.537  0.2191  0.8070  0.5402
  141SAPE  C22015427   2.248   1.905   8.485  0.3941  0.5405  0.1662
  141SAPE  H20R15428   2.322   1.841   8.537 -0.1361 -0.3459 -0.1522
  141SAPE  H20S15429   2.292   1.951   8.395  1.8250 -0.5210  0.2875
  141SAPE  H20T15430   2.168   1.832   8.458  0.0854  0.8853  0.1350
  141SAPE   C3315431   1.946   1.617  10.144 -0.3467 -0.2926  0.2537
  141SAPE   H3X15432   2.001   1.616  10.241 -2.1993 -0.0160  1.3715
  141SAPE   H3Y15433   1.897   1.715  10.128 -1.6141 -1.0320 -0.5579
  141SAPE   C3415434   2.043   1.600  10.029 -0.2717 -0.3882 -0.4249
  141SAPE   H4X15435   2.078   1.494  10.038  1.4510  0.2196  0.4510
  141SAPE   H4Y15436   2.124   1.675  10.041  0.2278 -1.0766  0.6452
  141SAPE   C3515437   1.989   1.632   9.888 -0.7669  0.0080 -0.4274
  141SAPE   H5X15438   1.959   1.737   9.869  0.6707  0.5542  0.1982
  141SAPE   H5Y15439   1.911   1.557   9.862  0.8789 -1.1545 -2.3107
  141SAPE   C3615440   2.105   1.597   9.787  0.2835 -0.3215  0.0465
  141SAPE   H6X15441   2.168   1.508   9.809  2.2687  0.4138 -2.1664
  141SAPE   H6Y15442   2.176   1.681   9.802  1.9398 -1.9217  1.7865
  141SAPE   C3715443   2.060   1.605   9.640  0.5963  0.4168 -0.2518
  141SAPE   H7X15444   2.151   1.644   9.588  0.7375  1.7190  0.9095
  141SAPE   H7Y15445   1.985   1.685   9.623  0.3738  0.0076 -1.2768
  141SAPE   C3815446   2.011   1.470   9.586 -0.2632 -0.3014 -0.2985
  141SAPE   H8X15447   1.916   1.450   9.641 -0.4277 -0.1408 -0.5182
  141SAPE   H8Y15448   2.083   1.390   9.614 -1.4413 -1.3950 -0.2748
  141SAPE   C3915449   1.975   1.467   9.437 -1.2909 -0.9281  0.1329
  141SAPE   H9X15450   1.913   1.557   9.416  1.8045  0.8136 -2.4506
  141SAPE   H9Y15451   1.914   1.377   9.419 -1.7791 -0.5168 -0.2879
  141SAPE  C31015452   2.085   1.476   9.328  0.1818  0.0307 -0.0542
  141SAPE  H10X15453   2.133   1.376   9.320  1.4345  0.7196 -2.0314
  141SAPE  H10Y15454   2.164   1.547   9.361 -1.1616  0.5984  2.1344
  141SAPE  C31115455   2.041   1.529   9.190 -0.2069 -0.7046 -0.2913
  141SAPE  H11X15456   1.993   1.629   9.201  2.3946  0.4706  1.3913
  141SAPE  H11Y15457   1.970   1.456   9.147  0.5192 -2.0143  0.6655
  141SAPE  C31215458   2.154   1.541   9.093 -0.6063 -0.2742  0.3019
  141SAPE  H12X15459   2.190   1.438   9.069  1.6952  0.2896  1.0544
  141SAPE  H12Y15460   2.234   1.596   9.148  0.2042  0.9028 -1.9062
  141SAPE  C31315461   2.125   1.620   8.966 -0.0354 -0.6312 -0.1644
  141SAPE  H13X15462   2.227   1.623   8.922  0.5352  1.3751  1.1258
  141SAPE  H13Y15463   2.093   1.725   8.983  0.3322 -0.5804  0.2336
  141SAPE  C31415464   2.031   1.557   8.866  0.2138  0.5416  0.0579
  141SAPE  H14X15465   1.935   1.541   8.919  0.8934  1.9852  1.8025
  141SAPE  H14Y15466   2.073   1.462   8.828  1.3990  1.1602 -0.2140
  141SAPE  C31515467   1.991   1.645   8.743  0.1895 -0.6234  0.4938
  141SAPE  H15X15468   2.077   1.649   8.672  0.1550 -0.0271  0.4777
  141SAPE  H15Y15469   1.966   1.747   8.779 -0.4561 -1.7256  3.4244
  141SAPE  C31615470   1.864   1.595   8.682  0.4828 -0.1483 -0.3904
  141SAPE  H16X15471   1.857   1.485   8.683 -1.3497 -0.0910  1.9793
  141SAPE  H16Y15472   1.869   1.621   8.574 -1.0883 -2.6892 -1.1359
  141SAPE  C31715473   1.738   1.660   8.733 -0.6607  0.3330  0.5442
  141SAPE  H17X15474   1.750   1.771   8.726 -1.9419  0.3885 -1.5791
  141SAPE  H17Y15475   1.705   1.627   8.833  0.4327 -0.6217  0.6032
  141SAPE  C31815476   1.610   1.629   8.647 -0.6905 -0.9552  0.8929
  141SAPE  H18X15477   1.596   1.522   8.624  0.9557 -0.7054 -1.7235
  141SAPE  H18Y15478   1.628   1.675   8.548 -0.5399 -2.9962 -0.0687
  141SAPE  H18Z15479   1.519   1.680   8.686 -1.2528  2.7028 -4.2350
  142SAPE     N15480   2.697   6.450  10.999 -0.0723 -0.4415 -0.2285
  142SAPE   HN115481   2.597   6.477  11.012  0.2097 -0.3413  2.0862
  142SAPE   HN215482   2.758   6.505  11.062 -1.0254 -1.0220  1.2502
  142SAPE   HN315483   2.715   6.447  10.897  1.0464 -1.8130 -0.0201
  142SAPE   C1215484   2.711   6.311  11.045 -0.8006 -0.2971  0.8689
  142SAPE  H12A15485   2.714   6.315  11.156  0.4207 -0.6211  0.8607
  142SAPE  H12B15486   2.802   6.278  10.990 -0.4389  2.5927 -0.4250
  142SAPE   C1115487   2.589   6.230  10.986  0.0109 -0.7109  0.3664
  142SAPE  H11A15488   2.627   6.127  10.968  0.2621 -0.3349 -1.4595
  142SAPE  H11B15489   2.571   6.260  10.880 -1.2041  0.2109  0.8035
  142SAPE     P15490   2.349   6.340  11.037  0.1415  0.0807  0.0094
  142SAPE   O1315491   2.249   6.316  11.146 -0.6922 -0.0296  0.2211
  142SAPE   O1415492   2.420   6.469  11.030 -0.2847  0.6240 -0.0133
  142SAPE   O1215493   2.468   6.230  11.062 -0.0667 -0.3537  0.4008
  142SAPE   O1115494   2.307   6.298  10.898  0.3248 -0.1277 -0.2195
  142SAPE    C115495   2.215   6.401  10.837 -0.9218  0.2285 -0.1841
  142SAPE    HA15496   2.121   6.407  10.897 -0.9733  1.5816 -0.3635
  142SAPE    HB15497   2.262   6.501  10.832 -0.1733 -0.1677 -2.5557
  142SAPE    C215498   2.168   6.340  10.698 -0.0512 -0.3375 -0.0569
  142SAPE    HS15499   2.096   6.258  10.716  0.3785 -1.1338 -1.7818
  142SAPE   O2115500   2.281   6.279  10.629 -0.4433 -0.1794 -0.1120
  142SAPE   C2115501   2.378   6.361  10.577  0.1304  0.3189 -0.4179
  142SAPE   O2215502   2.396   6.474  10.618 -0.3243  0.5513  0.5346
  142SAPE   C2215503   2.469   6.282  10.487  0.5191 -0.3954  0.6444
  142SAPE   H2R15504   2.548   6.243  10.555  0.3465  0.2646  1.2297
  142SAPE   H2S15505   2.402   6.207  10.439 -2.1015  3.2206 -1.8955
  142SAPE    C315506   2.084   6.442  10.608  0.6471  0.5215 -0.5771
  142SAPE    HX15507   2.129   6.543  10.616  1.3873  0.2712 -1.3913
  142SAPE    HY15508   1.983   6.454  10.651  0.4645 -1.4500 -0.3337
  142SAPE   O3115509   2.086   6.398  10.468  0.9564 -0.6000  0.4046
  142SAPE   C3115510   2.014   6.473  10.389  0.6357  0.2084 -0.8217
  142SAPE   O3215511   1.941   6.565  10.425  0.0178  0.4761 -0.8098
  142SAPE   C3215512   2.033   6.415  10.255 -0.0634 -0.2074 -0.2482
  142SAPE   H2X15513   2.058   6.307  10.259  1.8826  0.2305  1.4408
  142SAPE   H2Y15514   2.131   6.449  10.216 -0.2629 -0.7009 -1.1935
  142SAPE   C2315515   2.543   6.358  10.365  0.3340  0.3873 -0.6061
  142SAPE   H3R15516   2.609   6.278  10.325  0.5372 -0.2936  0.9777
  142SAPE   H3S15517   2.610   6.434  10.413  1.7585 -1.0908 -0.1665
  142SAPE   C2415518   2.453   6.416  10.256  0.4293  0.0524  0.2743
  142SAPE   H4R15519   2.389   6.503  10.279  0.2408  0.9060 -3.0055
  142SAPE   H4S15520   2.387   6.339  10.211  1.2070  0.3179 -1.3863
  142SAPE   C2515521   2.535   6.474  10.147  0.2891 -0.3262 -0.4324
  142SAPE   H5R15522   2.582   6.567  10.182  1.0097 -1.6649  2.4818
  142SAPE   C2615523   2.559   6.416  10.029  0.2025 -0.1850 -0.3874
  142SAPE   H6R15524   2.604   6.486   9.958 -1.8219  1.8656  0.2303
  142SAPE   C2715525   2.514   6.281   9.967  0.7184  0.3203 -1.1778
  142SAPE   H7R15526   2.537   6.199  10.038 -0.5969  0.0287 -1.0476
  142SAPE   H7S15527   2.565   6.272   9.869 -0.1338 -3.9859 -1.4449
  142SAPE   C2815528   2.369   6.269   9.938 -0.6957 -0.4104  0.2578
  142SAPE   H8R15529   2.307   6.240  10.024 -0.9458 -0.5051  0.0438
  142SAPE   C2915530   2.306   6.305   9.825 -0.3760 -0.1939 -0.1076
  142SAPE   H9R15531   2.196   6.302   9.832 -0.3418  1.3009  2.4459
  142SAPE  C21015532   2.366   6.370   9.708  0.5402  0.0186 -0.1171
  142SAPE  H10R15533   2.406   6.300   9.632 -0.2123 -0.9255  0.3391
  142SAPE  H10S15534   2.450   6.436   9.739  1.2588 -1.1740  0.5518
  142SAPE  C21115535   2.273   6.466   9.637  0.3574  0.1376 -0.2610
  142SAPE  H11R15536   2.227   6.535   9.709 -0.9778 -1.4971  0.5515
  142SAPE  C21215537   2.239   6.475   9.506 -0.5209  0.0702  0.3471
  142SAPE  H12R15538   2.172   6.556   9.473 -3.0119 -1.5519  1.0688
  142SAPE  C21315539   2.289   6.380   9.403  0.3336 -0.3384 -0.0856
  142SAPE  H13R15540   2.340   6.288   9.440 -1.5329 -1.6065 -0.5094
  142SAPE  H13S15541   2.348   6.446   9.336  0.7883 -0.7196 -0.0657
  142SAPE  C21415542   2.175   6.331   9.319  1.1556 -0.0355 -0.1905
  142SAPE  H14R15543   2.081   6.334   9.376  1.3529  2.3693  0.1215
  142SAPE  C21515544   2.173   6.308   9.186 -0.3221  0.4626 -0.4396
  142SAPE  H15R15545   2.083   6.278   9.131 -0.3220  0.0048 -0.1981
  142SAPE  C21615546   2.296   6.309   9.099  0.0478 -0.0273  0.1235
  142SAPE  H16R15547   2.377   6.365   9.149 -1.1663  0.4524  1.6480
  142SAPE  H16S15548   2.280   6.346   8.996 -2.0946 -0.2102  0.3363
  142SAPE  C21715549   2.341   6.164   9.073  0.9707  0.2587  0.3765
  142SAPE  H17R15550   2.358   6.100   9.162  1.6702  0.3734  0.3251
  142SAPE  H17S15551   2.437   6.178   9.019 -0.2675  2.1865 -1.4963
  142SAPE  C21815552   2.243   6.085   8.981 -0.4535 -0.0564  0.3990
  142SAPE  H18R15553   2.248   6.129   8.880  0.8243 -0.8686  0.0923
  142SAPE  H18S15554   2.143   6.081   9.030  0.2031 -0.2612  1.7623
  142SAPE  C21915555   2.302   5.942   8.962 -0.4807 -0.1599  0.6250
  142SAPE  H19R15556   2.229   5.889   8.897 -0.1640  0.7165 -0.4706
  142SAPE  H19S15557   2.308   5.886   9.058 -0.8331  1.1048  1.4070
  142SAPE  C22015558   2.440   5.928   8.893  0.6988  0.2693 -0.5833
  142SAPE  H20R15559   2.452   5.822   8.860  0.6624  0.8584 -2.6178
  142SAPE  H20S15560   2.512   5.953   8.973 -2.0397 -0.1716  2.1874
  142SAPE  H20T15561   2.455   5.996   8.807 -0.0195  3.7038  1.8284
  142SAPE   C3315562   1.922   6.461  10.153 -0.4260  0.5234  0.3683
  142SAPE   H3X15563   1.904   6.571  10.156 -0.3357  0.5744 -0.6220
  142SAPE   H3Y15564   1.829   6.404  10.172  1.6737 -2.1253  3.8720
  142SAPE   C3415565   1.974   6.424  10.007  0.3019  0.1065  0.0822
  142SAPE   H4X15566   2.023   6.324  10.008 -0.9316 -0.5390  2.2000
  142SAPE   H4Y15567   2.051   6.499   9.979  2.7570 -2.0041  0.7089
  142SAPE   C3515568   1.855   6.439   9.912 -0.6485  0.2610 -0.1183
  142SAPE   H5X15569   1.792   6.527   9.939 -1.5068 -0.2652 -0.3623
  142SAPE   H5Y15570   1.793   6.347   9.908  0.2374 -0.3465 -0.1031
  142SAPE   C3615571   1.903   6.454   9.764  0.4218 -0.3743  0.3899
  142SAPE   H6X15572   1.960   6.360   9.746  1.2470 -0.0238  1.1425
  142SAPE   H6Y15573   1.982   6.532   9.759  1.1619 -1.0381  1.3589
  142SAPE   C3715574   1.781   6.468   9.668  0.0792  0.3751 -0.4034
  142SAPE   H7X15575   1.744   6.573   9.676  2.1700  1.1419 -0.2082
  142SAPE   H7Y15576   1.693   6.406   9.695 -0.3435  0.6765 -1.0586
  142SAPE   C3815577   1.811   6.422   9.525 -0.0815 -0.3221 -0.1220
  142SAPE   H8X15578   1.856   6.322   9.534  0.5205  0.1355  3.2344
  142SAPE   H8Y15579   1.892   6.489   9.490 -0.8642  0.8413  0.2300
  142SAPE   C3915580   1.695   6.422   9.425  0.0913  0.0280  0.1171
  142SAPE   H9X15581   1.645   6.521   9.418  0.2948  0.0554 -1.4351
  142SAPE   H9Y15582   1.613   6.355   9.460 -0.5659 -0.0669 -1.5006
  142SAPE  C31015583   1.736   6.374   9.283 -0.1914 -0.1698 -0.0514
  142SAPE  H10X15584   1.777   6.271   9.291  1.3471  0.2416 -1.9039
  142SAPE  H10Y15585   1.817   6.444   9.254 -1.8432  1.4205 -0.9737
  142SAPE  C31115586   1.623   6.389   9.180 -0.3553 -0.1799  0.6683
  142SAPE  H11X15587   1.590   6.494   9.166  2.3160  0.5445 -0.7898
  142SAPE  H11Y15588   1.530   6.333   9.205 -1.1081  0.6022 -0.2649
  142SAPE  C31215589   1.668   6.332   9.035  0.4210  0.0843  0.1617
  142SAPE  H12X15590   1.581   6.338   8.967 -1.5265 -1.3606  2.3559
  142SAPE  H12Y15591   1.690   6.224   9.049 -2.3848 -0.4861  0.6648
  142SAPE  C31315592   1.792   6.402   8.977 -0.4648 -0.1088 -0.8330
  142SAPE  H13X15593   1.868   6.386   9.057 -2.7222  2.3854  2.0418
  142SAPE  H13Y15594   1.767   6.510   8.970 -3.3527 -0.7491 -1.6354
  142SAPE  C31415595   1.845   6.337   8.850  0.2017  0.4023  0.2830
  142SAPE  H14X15596   1.773   6.358   8.767  0.7609  0.0576 -0.2999
  142SAPE  H14Y15597   1.845   6.227   8.860  1.5248  0.2650 -0.8809
  142SAPE  C31515598   1.981   6.382   8.806 -0.6640 -0.4000 -0.3722
  142SAPE  H15X15599   1.997   6.338   8.706  0.4612  0.2661 -0.5010
  142SAPE  H15Y15600   2.067   6.341   8.863  2.3612  2.2321 -2.6451
  142SAPE  C31615601   2.005   6.533   8.785  0.0176 -0.1619  0.0487
  142SAPE  H16X15602   2.001   6.585   8.882 -1.7478 -1.3202  0.6476
  142SAPE  H16Y15603   1.929   6.581   8.719  0.9976 -0.4476 -1.3455
  142SAPE  C31715604   2.148   6.551   8.724 -0.1917 -0.6556 -0.2179
  142SAPE  H17X15605   2.152   6.499   8.627 -0.8813  1.9680 -1.7451
  142SAPE  H17Y15606   2.227   6.506   8.789  2.2730  0.9473 -1.9370
  142SAPE  C31815607   2.186   6.698   8.700  0.1048  0.3717  0.2631
  142SAPE  H18X15608   2.168   6.756   8.793  4.9688  1.7295  0.6025
  142SAPE  H18Y15609   2.117   6.723   8.616  0.2856 -2.4404 -0.8422
  142SAPE  H18Z15610   2.293   6.706   8.671 -0.0604  0.4094 -0.3597
  143SAPE     N15611   2.791   1.875  10.892 -0.0996  0.7181  0.3254
  143SAPE   HN115612   2.835   1.952  10.945 -0.7546  0.4714  1.2464
  143SAPE   HN215613   2.777   1.900  10.792 -0.3919 -0.4418  0.0580
  143SAPE   HN315614   2.695   1.871  10.931  0.5881  0.8437  2.1140
  143SAPE   C1215615   2.874   1.754  10.921  0.1323  0.7134 -0.3286
  143SAPE  H12A15616   2.867   1.720  11.027  0.6060  0.4756 -0.3719
  143SAPE  H12B15617   2.981   1.785  10.913  0.3606 -0.5032 -2.7923
  143SAPE   C1115618   2.816   1.639  10.828 -0.4829  0.1319 -0.3100
  143SAPE  H11A15619   2.806   1.689  10.730 -0.0938  1.8601  0.4854
  143SAPE  H11B15620   2.718   1.619  10.877  1.3229 -0.4534  3.4716
  143SAPE     P15621   3.030   1.515  10.762  0.5001 -0.6832  0.4117
  143SAPE   O1315622   3.108   1.637  10.791 -0.6633  0.2334 -0.1845
  143SAPE   O1415623   3.097   1.389  10.794  0.3454 -0.9716 -0.0679
  143SAPE   O1215624   2.892   1.520  10.840 -0.4059  0.2409  0.5699
  143SAPE   O1115625   2.979   1.511  10.614  0.0744  0.0236 -0.0607
  143SAPE    C115626   2.920   1.399  10.552  0.4522  0.0991  0.2176
  143SAPE    HA15627   2.924   1.303  10.609  0.2521 -0.0581 -0.0330
  143SAPE    HB15628   2.821   1.437  10.520  1.7258  2.3140 -1.3296
  143SAPE    C215629   3.014   1.352  10.435  0.1580  0.4013 -0.5392
  143SAPE    HS15630   3.112   1.339  10.485 -0.7778 -2.3704  0.7883
  143SAPE   O2115631   3.016   1.450  10.331  0.1836 -0.3284  0.7884
  143SAPE   C2115632   3.137   1.462  10.269  1.0630  0.0463  0.2348
  143SAPE   O2215633   3.231   1.396  10.305 -0.4919  0.3989  0.0682
  143SAPE   C2215634   3.130   1.586  10.174  0.0602  0.3626  0.3087
  143SAPE   H2R15635   3.025   1.609  10.149 -0.7722 -2.0158  1.3244
  143SAPE   H2S15636   3.177   1.670  10.230  1.0896  0.0741 -0.1027
  143SAPE    C315637   2.964   1.214  10.381  0.7722 -0.5378  0.3705
  143SAPE    HX15638   2.873   1.237  10.320  0.5373 -1.5737  0.3062
  143SAPE    HY15639   2.930   1.139  10.455 -0.5961 -0.5210 -0.1983
  143SAPE   O3115640   3.056   1.153  10.289  0.1999  0.2054  0.4075
  143SAPE   C3115641   3.148   1.085  10.352 -0.2919 -0.9033  0.0883
  143SAPE   O3215642   3.165   1.078  10.471 -0.2502 -0.0722 -0.2193
  143SAPE   C3215643   3.242   1.024  10.244  0.0071 -0.2143 -0.0624
  143SAPE   H2X15644   3.211   0.919  10.226 -0.9462 -0.3336  1.9460
  143SAPE   H2Y15645   3.350   1.028  10.271  0.2362  1.0426 -1.0738
  143SAPE   C2315646   3.203   1.559  10.041 -0.2240 -0.4555 -0.5199
  143SAPE   H3R15647   3.190   1.647   9.974  2.3676 -0.1006 -0.6684
  143SAPE   H3S15648   3.158   1.478   9.980 -2.1981  0.6301 -0.6028
  143SAPE   C2415649   3.347   1.523  10.046 -0.3460  0.1649  0.7349
  143SAPE   H4R15650   3.388   1.534   9.943 -2.4483  0.5614 -0.1091
  143SAPE   H4S15651   3.375   1.416  10.061 -3.4078 -0.6762  1.1600
  143SAPE   C2515652   3.428   1.603  10.143 -0.4767  0.2120  0.0007
  143SAPE   H5R15653   3.385   1.623  10.242 -1.1734 -1.1265 -0.0132
  143SAPE   C2615654   3.546   1.666  10.105  0.4183 -0.1570 -0.3438
  143SAPE   H6R15655   3.592   1.728  10.183  1.1003  0.2673 -1.0742
  143SAPE   C2715656   3.612   1.654   9.970 -0.0891  0.4186  0.3742
  143SAPE   H7R15657   3.681   1.739   9.951 -0.1856  0.1866 -1.1108
  143SAPE   H7S15658   3.542   1.659   9.884 -0.4406  0.6794  0.6700
  143SAPE   C2815659   3.689   1.525   9.968  0.3429 -1.0039 -0.5918
  143SAPE   H8R15660   3.706   1.477  10.065  0.3118  0.1737  0.0099
  143SAPE   C2915661   3.751   1.475   9.860 -0.0264  0.5317 -0.7064
  143SAPE   H9R15662   3.811   1.387   9.887 -1.8308  0.1839  2.8007
  143SAPE  C21015663   3.762   1.525   9.720 -0.1288  0.5006 -0.1387
  143SAPE  H10R15664   3.666   1.567   9.681 -0.7216 -0.2838  0.4458
  143SAPE  H10S15665   3.774   1.434   9.658 -1.4404 -1.2456  2.0269
  143SAPE  C21115666   3.878   1.618   9.699  0.5023  0.9117  0.1221
  143SAPE  H11R15667   3.914   1.682   9.782 -1.3952  1.3668  0.6352
  143SAPE  C21215668   3.936   1.624   9.576  0.5071  0.0587  0.6464
  143SAPE  H12R15669   4.025   1.688   9.562  0.7285 -0.6559 -1.7839
  143SAPE  C21315670   3.904   1.545   9.447 -0.4540 -0.1681  0.5826
  143SAPE  H13R15671   3.886   1.437   9.465 -4.3609  0.1297 -0.7517
  143SAPE  H13S15672   3.996   1.540   9.385 -0.3639 -0.2084  0.7159
  143SAPE  C21415673   3.798   1.619   9.369  0.4231 -0.1799  0.1701
  143SAPE  H14R15674   3.823   1.720   9.333 -0.4579 -0.1163 -0.3047
  143SAPE  C21515675   3.680   1.576   9.330  0.0313  0.5131  0.5546
  143SAPE  H15R15676   3.619   1.649   9.275  2.5899  0.5244 -2.5853
  143SAPE  C21615677   3.608   1.444   9.358  0.0109  0.4372  0.0857
  143SAPE  H16R15678   3.523   1.468   9.426  0.2595 -0.0228  0.5624
  143SAPE  H16S15679   3.669   1.374   9.419 -0.9681 -0.4249  0.1039
  143SAPE  C21715680   3.553   1.363   9.244  0.2126  0.1183  0.5868
  143SAPE  H17R15681   3.478   1.420   9.185 -0.5688 -1.2266  0.2301
  143SAPE  H17S15682   3.503   1.276   9.292  1.8689 -0.8890  0.5699
  143SAPE  C21815683   3.655   1.324   9.129 -0.5866  0.6492  0.2638
  143SAPE  H18R15684   3.743   1.272   9.173 -0.1004  0.3724 -0.9958
  143SAPE  H18S15685   3.701   1.415   9.085  2.5051 -0.7903  0.2714
  143SAPE  C21915686   3.584   1.253   9.012  0.2349 -0.4578 -0.2361
  143SAPE  H19R15687   3.493   1.296   8.966 -0.1717 -2.3474 -1.3224
  143SAPE  H19S15688   3.559   1.152   9.049  0.7325 -0.6432 -0.3952
  143SAPE  C22015689   3.679   1.227   8.900 -0.4259  0.1953  0.6756
  143SAPE  H20R15690   3.715   1.316   8.843 -0.0755 -0.5279 -0.2645
  143SAPE  H20S15691   3.639   1.146   8.835  0.3033 -0.5543  1.1491
  143SAPE  H20T15692   3.779   1.184   8.925 -0.6538 -0.8394 -0.0830
  143SAPE   C3315693   3.248   1.099  10.106  0.5905 -0.1121 -0.5480
  143SAPE   H3X15694   3.284   1.204  10.115  0.1164  0.1672 -1.6907
  143SAPE   H3Y15695   3.147   1.105  10.060 -0.8946 -1.6871  2.2417
  143SAPE   C3415696   3.327   1.016  10.009  0.1220  0.0310 -0.2777
  143SAPE   H4X15697   3.279   0.922   9.974 -0.5479  0.9014 -1.8014
  143SAPE   H4Y15698   3.427   0.984  10.046  0.2924 -1.9994 -2.2775
  143SAPE   C3515699   3.351   1.088   9.871 -0.4206 -0.2196 -0.5585
  143SAPE   H5X15700   3.412   1.177   9.899  0.2010 -1.6367  3.1992
  143SAPE   H5Y15701   3.255   1.126   9.829 -0.2031  2.2729  0.9667
  143SAPE   C3615702   3.441   1.014   9.773  0.8090  1.0133  0.1618
  143SAPE   H6X15703   3.391   0.918   9.748  4.2485 -0.5171 -1.6614
  143SAPE   H6Y15704   3.535   0.993   9.828  1.4012  0.2279 -1.1033
  143SAPE   C3715705   3.476   1.103   9.652 -0.0392  0.0287 -0.0398
  143SAPE   H7X15706   3.528   1.198   9.678  1.5737 -1.1606  1.3176
  143SAPE   H7Y15707   3.379   1.130   9.605 -1.4983 -1.7028  1.8196
  143SAPE   C3815708   3.555   1.034   9.536 -0.1762 -0.3733  0.3577
  143SAPE   H8X15709   3.659   1.011   9.567 -0.5490 -2.5009  0.1745
  143SAPE   H8Y15710   3.561   1.101   9.448  0.7119  0.1208  0.7884
  143SAPE   C3915711   3.496   0.900   9.479  0.5551  0.1429 -0.2237
  143SAPE   H9X15712   3.387   0.917   9.463  0.7389  2.0576  0.2324
  143SAPE   H9Y15713   3.501   0.824   9.560  2.3071 -1.0055 -1.3599
  143SAPE  C31015714   3.567   0.838   9.357  0.0753  0.1182 -1.3997
  143SAPE  H10X15715   3.498   0.765   9.311  0.9763  0.0889 -2.7868
  143SAPE  H10Y15716   3.665   0.799   9.392  0.1117  0.1627 -1.4527
  143SAPE  C31115717   3.609   0.941   9.243  0.2003  0.7913  0.2197
  143SAPE  H11X15718   3.654   1.040   9.265  0.1360  0.9145 -0.1789
  143SAPE  H11Y15719   3.514   0.971   9.194  0.3531 -0.9595 -1.2698
  143SAPE  C31215720   3.691   0.870   9.129 -0.0268 -0.4158 -0.2309
  143SAPE  H12X15721   3.757   0.795   9.178 -1.7699 -0.8424  1.5925
  143SAPE  H12Y15722   3.739   0.940   9.058 -1.7724  0.6361 -0.4340
  143SAPE  C31315723   3.600   0.767   9.052 -0.0526 -1.3138 -0.2339
  143SAPE  H13X15724   3.517   0.827   9.009 -0.0523 -1.0319  0.1560
  143SAPE  H13Y15725   3.570   0.682   9.117 -1.1630 -0.5089  0.3414
  143SAPE  C31415726   3.679   0.712   8.938 -0.2205 -0.1238  0.0391
  143SAPE  H14X15727   3.749   0.642   8.988 -0.6192  1.3330  2.8609
  143SAPE  H14Y15728   3.737   0.779   8.870 -1.4562  0.2197 -0.6957
  143SAPE  C31515729   3.593   0.627   8.835 -0.1369  0.0481 -0.5453
  143SAPE  H15X15730   3.525   0.691   8.775 -0.8966 -0.2109  0.0241
  143SAPE  H15Y15731   3.534   0.561   8.902 -0.0410  1.0817  0.5922
  143SAPE  C31615732   3.670   0.553   8.719  0.0524  0.1789  0.9843
  143SAPE  H16X15733   3.738   0.480   8.768 -1.1009 -1.0467  0.8173
  143SAPE  H16Y15734   3.734   0.625   8.664  0.2459 -1.2094 -0.6853
  143SAPE  C31715735   3.583   0.486   8.606  0.7959  0.1112 -0.6649
  143SAPE  H17X15736   3.496   0.551   8.584  2.3244  2.4501 -0.1992
  143SAPE  H17Y15737   3.537   0.396   8.651  2.2213 -1.5106 -2.2805
  143SAPE  C31815738   3.668   0.435   8.490  0.3740  0.3605 -0.3313
  143SAPE  H18X15739   3.693   0.532   8.441 -1.1943  1.3551  0.7154
  143SAPE  H18Y15740   3.607   0.381   8.414  0.0085  1.1265 -0.5970
  143SAPE  H18Z15741   3.746   0.365   8.526 -0.6435 -0.5017  0.2439
  144SAPE     N15742   6.787   4.405  10.562  0.2607  0.0010  0.4609
  144SAPE   HN115743   6.833   4.371  10.648  1.0072  4.9032  2.3442
  144SAPE   HN215744   6.845   4.482  10.523 -0.1749 -0.4827 -1.2330
  144SAPE   HN315745   6.694   4.450  10.577  0.7807  1.3071 -0.0875
  144SAPE   C1215746   6.761   4.298  10.461 -0.1217  0.0762  0.3948
  144SAPE  H12A15747   6.857   4.268  10.415  0.2352 -0.3908  1.4099
  144SAPE  H12B15748   6.694   4.337  10.381  0.7440 -0.1797 -0.4680
  144SAPE   C1115749   6.688   4.179  10.521  0.1578 -0.4741 -0.1675
  144SAPE  H11A15750   6.740   4.145  10.613 -1.1212 -2.0053  0.0245
  144SAPE  H11B15751   6.693   4.086  10.461 -1.0206 -0.5145 -0.2197
  144SAPE     P15752   6.456   4.110  10.634 -0.2709 -0.1321  0.4100
  144SAPE   O1315753   6.518   3.980  10.649  0.2159 -0.0823  0.3280
  144SAPE   O1415754   6.402   4.176  10.754 -0.4295  0.7387  0.3194
  144SAPE   O1215755   6.549   4.203  10.552 -0.2721 -0.5385 -0.0053
  144SAPE   O1115756   6.339   4.075  10.533 -0.3122  0.3896  0.4354
  144SAPE    C115757   6.348   4.070  10.393 -0.3646 -0.5161 -0.6947
  144SAPE    HA15758   6.251   4.104  10.349 -0.1738  1.5659  0.3712
  144SAPE    HB15759   6.426   4.141  10.358 -0.7770 -0.4726 -1.5778
  144SAPE    C215760   6.371   3.929  10.340  0.1640  0.4663 -0.0714
  144SAPE    HS15761   6.439   3.880  10.413  0.9903  1.4633 -0.1452
  144SAPE   O2115762   6.425   3.938  10.209  0.2232  0.7250 -0.5045
  144SAPE   C2115763   6.486   3.827  10.161 -0.4271 -0.1006 -0.1344
  144SAPE   O2215764   6.520   3.727  10.215  1.1999 -0.3299  0.2653
  144SAPE   C2215765   6.510   3.838  10.018  0.4142 -0.6771  0.2878
  144SAPE   H2R15766   6.503   3.738   9.971  0.8099 -1.1618  1.2572
  144SAPE   H2S15767   6.422   3.890   9.973  1.2934  2.0319  1.5043
  144SAPE    C315768   6.234   3.849  10.348 -0.8533  0.1097  0.3674
  144SAPE    HX15769   6.160   3.914  10.297 -0.2810 -0.9336 -1.9265
  144SAPE    HY15770   6.212   3.848  10.457  0.5056 -0.5631  0.6575
  144SAPE   O3115771   6.226   3.711  10.286 -0.2618 -0.4875 -0.1475
  144SAPE   C3115772   6.261   3.615  10.356  0.5319  0.0776 -0.2354
  144SAPE   O3215773   6.300   3.622  10.473 -0.1724 -0.1405  0.1703
  144SAPE   C3215774   6.264   3.498  10.261  0.1993  0.1057 -0.5600
  144SAPE   H2X15775   6.371   3.470  10.255  0.6868  0.8163  2.7005
  144SAPE   H2Y15776   6.227   3.524  10.160  0.1278  0.8487 -0.3481
  144SAPE   C2315777   6.642   3.899   9.981  0.2367  0.1929  0.5102
  144SAPE   H3R15778   6.726   3.829  10.005 -0.6700 -1.2953 -0.4697
  144SAPE   H3S15779   6.662   3.994  10.034  0.6355 -0.4452  1.5373
  144SAPE   C2415780   6.658   3.932   9.828  0.6418  0.0243  0.3348
  144SAPE   H4R15781   6.752   3.988   9.808 -0.5376  2.7405  1.7817
  144SAPE   H4S15782   6.581   4.010   9.808  0.4717 -0.5647 -1.5162
  144SAPE   C2515783   6.644   3.814   9.736 -0.1751  0.8596  0.2431
  144SAPE   H5R15784   6.625   3.721   9.791  0.7953  1.1497  1.1047
  144SAPE   C2615785   6.642   3.807   9.599  1.1311 -0.3661 -0.7811
  144SAPE   H6R15786   6.620   3.715   9.544  1.3750 -1.5551  1.0242
  144SAPE   C2715787   6.656   3.933   9.512 -0.6576  0.5195  0.2519
  144SAPE   H7R15788   6.707   3.914   9.416 -2.9479  2.8441 -1.5850
  144SAPE   H7S15789   6.707   4.018   9.562  1.2661 -0.8364  0.6801
  144SAPE   C2815790   6.521   3.977   9.466  0.5883  0.6698  0.5657
  144SAPE   H8R15791   6.440   3.973   9.540  0.6224 -1.7925  0.5320
  144SAPE   C2915792   6.484   4.024   9.348 -0.0485 -0.6809  0.3773
  144SAPE   H9R15793   6.380   4.054   9.330 -0.4212 -1.5656  0.9602
  144SAPE  C21015794   6.572   4.042   9.226 -0.7809  0.3232 -0.3285
  144SAPE  H10R15795   6.668   4.081   9.266 -0.3385 -0.2418 -0.8168
  144SAPE  H10S15796   6.523   4.114   9.156 -3.6854  0.8261  2.0080
  144SAPE  C21115797   6.597   3.910   9.154 -0.3010 -0.4463  0.1001
  144SAPE  H11R15798   6.574   3.821   9.215  0.1361 -0.2020  0.6339
  144SAPE  C21215799   6.642   3.906   9.026  0.6036  0.2693 -0.1913
  144SAPE  H12R15800   6.652   3.810   8.973  0.6992  0.4114 -0.4331
  144SAPE  C21315801   6.662   4.033   8.941 -0.4430  0.8497 -0.6323
  144SAPE  H13R15802   6.733   4.012   8.859 -1.5079 -0.1604 -1.3368
  144SAPE  H13S15803   6.715   4.107   9.004 -1.2889 -0.4220  1.7649
  144SAPE  C21415804   6.538   4.091   8.885  0.3272  0.3768 -0.1108
  144SAPE  H14R15805   6.452   4.068   8.949  0.0896  1.1831 -0.1338
  144SAPE  C21515806   6.529   4.163   8.772 -0.2707 -0.2555 -0.4924
  144SAPE  H15R15807   6.429   4.198   8.740 -0.1242 -0.8934 -1.7289
  144SAPE  C21615808   6.643   4.194   8.676  0.0500 -0.7152 -0.2103
  144SAPE  H16R15809   6.743   4.161   8.710  0.5152  0.3142 -0.5444
  144SAPE  H16S15810   6.647   4.303   8.657 -0.5121 -0.9935 -2.1864
  144SAPE  C21715811   6.615   4.116   8.545  0.2444  0.7798  0.9403
  144SAPE  H17R15812   6.611   4.007   8.563  0.2570  0.4984 -0.6134
  144SAPE  H17S15813   6.704   4.113   8.478 -0.5878 -0.8891 -0.1284
  144SAPE  C21815814   6.479   4.155   8.478 -0.4801  0.4257 -0.7048
  144SAPE  H18R15815   6.402   4.125   8.552  1.2058  2.5679  2.1327
  144SAPE  H18S15816   6.462   4.108   8.379 -1.1806 -0.8135 -0.0143
  144SAPE  C21915817   6.462   4.313   8.464 -0.3231 -0.2471  0.7804
  144SAPE  H19R15818   6.424   4.361   8.557 -0.7275  1.7599 -0.3607
  144SAPE  H19S15819   6.385   4.330   8.385 -0.2337  0.1129  0.7684
  144SAPE  C22015820   6.585   4.382   8.397  0.1747  0.0917 -0.8566
  144SAPE  H20R15821   6.656   4.392   8.482 -0.8099  3.7675 -0.3002
  144SAPE  H20S15822   6.548   4.483   8.370 -2.0222  0.6764  3.4940
  144SAPE  H20T15823   6.628   4.336   8.306 -1.0842 -0.8718 -0.9859
  144SAPE   C3315824   6.178   3.378  10.292  1.0094 -0.4321  0.5475
  144SAPE   H3X15825   6.072   3.406  10.311  1.9782  1.5506  3.9640
  144SAPE   H3Y15826   6.216   3.332  10.386  1.0575 -0.2204  0.6331
  144SAPE   C3415827   6.169   3.273  10.182 -0.4665 -0.1552  0.5925
  144SAPE   H4X15828   6.106   3.312  10.100 -0.0543 -0.1726  0.2673
  144SAPE   H4Y15829   6.115   3.187  10.228  0.5273 -0.5375  1.0860
  144SAPE   C3515830   6.299   3.223  10.126  0.5943  0.0912 -0.3685
  144SAPE   H5X15831   6.365   3.189  10.209 -0.3190 -1.3593 -0.2007
  144SAPE   H5Y15832   6.345   3.306  10.070 -0.7000  1.2907  0.2662
  144SAPE   C3615833   6.296   3.115  10.016 -0.3594 -0.4937  0.0976
  144SAPE   H6X15834   6.227   3.152   9.937  1.1683 -0.7589 -1.4139
  144SAPE   H6Y15835   6.274   3.010  10.046  1.9933 -1.0912 -0.0586
  144SAPE   C3715836   6.436   3.099   9.954 -0.4597  0.6126  0.4842
  144SAPE   H7X15837   6.508   3.108  10.039  1.6853 -0.8360 -1.0604
  144SAPE   H7Y15838   6.464   3.175   9.878 -0.8566 -0.3204 -0.6070
  144SAPE   C3815839   6.453   2.963   9.889  0.1145 -0.4386 -0.3916
  144SAPE   H8X15840   6.442   2.883   9.966  0.7883 -1.3076 -1.1662
  144SAPE   H8Y15841   6.551   2.938   9.842  0.5550 -0.0919  0.3230
  144SAPE   C3915842   6.353   2.950   9.767 -0.3246  0.1583  0.1077
  144SAPE   H9X15843   6.279   3.033   9.758  0.1789  1.0146  2.9359
  144SAPE   H9Y15844   6.293   2.857   9.772 -1.1379  0.7266  1.2087
  144SAPE  C31015845   6.435   2.951   9.636 -0.5974  0.0855 -0.4591
  144SAPE  H10X15846   6.483   2.853   9.613 -1.9488 -0.5200 -0.7735
  144SAPE  H10Y15847   6.515   3.028   9.636  0.3368 -0.8033 -2.5600
  144SAPE  C31115848   6.353   2.976   9.509 -0.2217  0.7542 -0.1087
  144SAPE  H11X15849   6.420   3.022   9.433  0.8071  0.5571  0.6415
  144SAPE  H11Y15850   6.271   3.043   9.542 -0.1416  0.0433  1.6275
  144SAPE  C31215851   6.327   2.836   9.439  0.3481 -0.0557  0.3835
  144SAPE  H12X15852   6.262   2.775   9.506  1.6530  0.6278  2.3787
  144SAPE  H12Y15853   6.416   2.771   9.427  0.7442  0.1476  1.9755
  144SAPE  C31315854   6.250   2.848   9.306  0.4328 -0.3400 -0.1900
  144SAPE  H13X15855   6.164   2.917   9.324 -0.6176 -1.4826 -0.6374
  144SAPE  H13Y15856   6.214   2.744   9.287 -0.7652 -0.0726  0.4965
  144SAPE  C31415857   6.323   2.894   9.187 -0.5861  0.4404  0.3882
  144SAPE  H14X15858   6.430   2.863   9.184 -0.6406  0.3776 -1.6089
  144SAPE  H14Y15859   6.320   3.004   9.179  2.4594  0.5328 -0.6302
  144SAPE  C31515860   6.253   2.833   9.065 -0.6528  0.1394 -0.3122
  144SAPE  H15X15861   6.266   2.900   8.977  2.6409  1.2301  0.8620
  144SAPE  H15Y15862   6.145   2.830   9.092 -0.0834 -1.8906  2.1247
  144SAPE  C31615863   6.297   2.696   9.014 -0.3709  0.3527 -0.0017
  144SAPE  H16X15864   6.317   2.631   9.101  0.4512 -3.0500 -2.5105
  144SAPE  H16Y15865   6.391   2.706   8.956 -0.2021  0.8684  0.3620
  144SAPE  C31715866   6.189   2.635   8.928 -0.2654  0.4267 -0.3389
  144SAPE  H17X15867   6.193   2.705   8.842  0.7770  2.1117  1.0201
  144SAPE  H17Y15868   6.086   2.642   8.971 -0.8704 -0.3139 -1.5891
  144SAPE  C31815869   6.215   2.499   8.874 -0.3596  0.3944  0.3079
  144SAPE  H18X15870   6.317   2.487   8.834 -0.3196  0.0110  0.5190
  144SAPE  H18Y15871   6.140   2.466   8.798 -1.4963 -0.1322  1.6075
  144SAPE  H18Z15872   6.212   2.433   8.963  1.1963 -1.4747 -0.9645
  145SAPE     N15873   2.959   6.060  11.278  0.3806 -0.1661  0.0099
  145SAPE   HN115874   2.875   6.071  11.339  0.6669 -0.3318  0.4323
  145SAPE   HN215875   2.993   6.154  11.248  1.8647 -0.3123  1.1683
  145SAPE   HN315876   2.929   6.022  11.186 -0.3500  2.9661 -1.1971
  145SAPE   C1215877   3.066   5.982  11.348 -0.2978 -0.0252 -0.3408
  145SAPE  H12A15878   3.128   6.050  11.410 -0.2049  0.5138 -1.0165
  145SAPE  H12B15879   3.132   5.946  11.266  0.7857  3.4226 -1.1228
  145SAPE   C1115880   2.997   5.864  11.429  0.9354 -0.7613  0.3911
  145SAPE  H11A15881   2.928   5.908  11.504  1.6962 -0.8737  1.1756
  145SAPE  H11B15882   3.085   5.825  11.485  3.8782  3.3370 -0.8251
  145SAPE     P15883   2.941   5.608  11.389 -0.2890  0.2256 -0.1338
  145SAPE   O1315884   2.998   5.597  11.528 -0.1017  0.4851 -0.2050
  145SAPE   O1415885   2.810   5.541  11.361  0.3933  0.0751  0.3089
  145SAPE   O1215886   2.922   5.767  11.358  0.1192  0.4337 -0.2894
  145SAPE   O1115887   3.049   5.554  11.293 -0.3566  0.3398 -0.4803
  145SAPE    C115888   3.064   5.612  11.164  0.2325  0.1259 -0.0568
  145SAPE    HA15889   3.036   5.542  11.083 -0.5935  0.4093 -0.0328
  145SAPE    HB15890   3.009   5.706  11.142 -0.5062 -0.1459  0.5968
  145SAPE    C215891   3.216   5.646  11.127  0.3988 -0.0656  0.1725
  145SAPE    HS15892   3.251   5.727  11.195  0.5520  0.2904 -0.3313
  145SAPE   O2115893   3.235   5.675  10.988 -1.1060  0.1444 -0.3482
  145SAPE   C2115894   3.181   5.791  10.943  0.4388  0.2894 -0.3862
  145SAPE   O2215895   3.129   5.874  11.013  0.0785 -0.5855  0.4077
  145SAPE   C2215896   3.196   5.808  10.786  1.0859  0.9110 -0.0138
  145SAPE   H2R15897   3.301   5.842  10.777  1.2765  0.7894  1.5967
  145SAPE   H2S15898   3.183   5.710  10.735  0.4041  1.3994 -0.8161
  145SAPE    C315899   3.313   5.524  11.156  0.3602 -0.5187  0.0902
  145SAPE    HX15900   3.286   5.492  11.259  0.2651  2.0349  0.9252
  145SAPE    HY15901   3.416   5.567  11.151  0.0617  0.5473  2.1376
  145SAPE   O3115902   3.282   5.410  11.075  0.6501  0.5911 -0.2174
  145SAPE   C3115903   3.361   5.392  10.972 -0.2199  0.3664 -0.3456
  145SAPE   O3215904   3.473   5.435  10.961 -0.0294 -0.0987  0.6487
  145SAPE   C3215905   3.300   5.278  10.886 -0.3230 -0.0129  0.2746
  145SAPE   H2X15906   3.193   5.276  10.918 -0.4523  5.3398  1.1308
  145SAPE   H2Y15907   3.350   5.185  10.920  2.9882  1.9866  1.3575
  145SAPE   C2315908   3.102   5.910  10.729 -0.1435 -0.2675  0.2046
  145SAPE   H3R15909   3.099   6.002  10.793  1.0605  1.3245 -1.8792
  145SAPE   H3S15910   3.000   5.868  10.724 -0.6330  0.6828  1.4506
  145SAPE   C2415911   3.155   5.957  10.591  0.1636 -0.3436 -0.3128
  145SAPE   H4R15912   3.087   6.038  10.557  0.2381  0.4023  1.2573
  145SAPE   H4S15913   3.143   5.870  10.522 -0.2525 -0.3910 -0.1831
  145SAPE   C2515914   3.294   6.016  10.595 -0.6714 -0.0229  0.3586
  145SAPE   H5R15915   3.315   6.090  10.674  0.4271  0.3764 -0.2788
  145SAPE   C2615916   3.403   6.005  10.516  0.1792  0.0204 -0.2080
  145SAPE   H6R15917   3.498   6.051  10.545  0.2316  0.6732 -1.3502
  145SAPE   C2715918   3.408   5.911  10.395  0.4631  0.1304  0.0816
  145SAPE   H7R15919   3.306   5.875  10.373  0.4062  0.5899 -0.4386
  145SAPE   H7S15920   3.470   5.820  10.410  1.3934  0.6098 -0.7509
  145SAPE   C2815921   3.471   5.967  10.271  0.2229  0.9757 -0.6495
  145SAPE   H8R15922   3.463   6.077  10.280  1.9020  0.9862  1.6626
  145SAPE   C2915923   3.526   5.905  10.163 -0.3428 -0.1082  0.5835
  145SAPE   H9R15924   3.584   5.967  10.092  0.8973  0.3155  1.9046
  145SAPE  C21015925   3.541   5.752  10.147  0.1090  0.4675  0.6016
  145SAPE  H10R15926   3.466   5.711  10.077  0.0192 -2.9514  2.4766
  145SAPE  H10S15927   3.523   5.683  10.233  1.1214  2.4470  2.5022
  145SAPE  C21115928   3.681   5.718  10.096 -0.3758  0.6572 -0.2784
  145SAPE  H11R15929   3.753   5.691  10.174  0.6138  0.9145 -1.0804
  145SAPE  C21215930   3.729   5.726   9.967  0.8043  0.5186  0.7950
  145SAPE  H12R15931   3.837   5.716   9.951  0.5005 -0.5195 -0.8448
  145SAPE  C21315932   3.650   5.754   9.844  0.4884 -0.3910  0.8445
  145SAPE  H13R15933   3.624   5.861   9.851 -1.6167 -0.9041  1.6446
  145SAPE  H13S15934   3.557   5.692   9.843 -0.6087  1.2099  0.5415
  145SAPE  C21415935   3.727   5.726   9.724 -0.1183  0.1935  0.8786
  145SAPE  H14R15936   3.820   5.670   9.738  1.8043  3.0617  0.4129
  145SAPE  C21515937   3.703   5.774   9.596  0.5573 -0.4749  0.3017
  145SAPE  H15R15938   3.786   5.762   9.525  1.3199  1.6222  0.7580
  145SAPE  C21615939   3.593   5.850   9.539  0.8961  0.2636 -0.0279
  145SAPE  H16R15940   3.543   5.905   9.621  0.4188  2.8669 -1.9161
  145SAPE  H16S15941   3.529   5.781   9.479 -0.4172  2.1493 -0.9110
  145SAPE  C21715942   3.633   5.967   9.447  0.2374  0.1456 -0.0896
  145SAPE  H17R15943   3.699   6.034   9.507 -0.5279  0.0649  0.8673
  145SAPE  H17S15944   3.543   6.028   9.423 -0.6148 -1.6058 -1.6128
  145SAPE  C21815945   3.704   5.952   9.306  0.1701  0.7239  0.0237
  145SAPE  H18R15946   3.807   5.911   9.306 -0.8415 -2.0356 -0.1499
  145SAPE  H18S15947   3.708   6.047   9.249  0.3795 -1.9689 -5.1202
  145SAPE  C21915948   3.619   5.855   9.212 -0.6722  0.0110  0.3256
  145SAPE  H19R15949   3.565   5.777   9.270  0.7493 -0.4915  1.0142
  145SAPE  H19S15950   3.692   5.801   9.147  1.7241 -0.2267  3.0029
  145SAPE  C22015951   3.526   5.935   9.123  0.5690 -0.3348  0.2011
  145SAPE  H20R15952   3.468   5.871   9.052  0.6714 -4.2390  3.2666
  145SAPE  H20S15953   3.578   6.016   9.068  0.0883 -0.5628 -0.6247
  145SAPE  H20T15954   3.447   5.990   9.179  1.1391  1.8218 -1.0016
  145SAPE   C3315955   3.308   5.291  10.734  1.0780 -0.0059  0.8650
  145SAPE   H3X15956   3.264   5.203  10.683  0.9218  0.4723  0.1484
  145SAPE   H3Y15957   3.414   5.287  10.701  1.1929  0.8687  1.1086
  145SAPE   C3415958   3.236   5.416  10.689  0.5868 -0.3056 -0.0133
  145SAPE   H4X15959   3.265   5.495  10.761  1.9532 -0.4988 -0.3288
  145SAPE   H4Y15960   3.127   5.394  10.690  0.6721 -0.9317 -1.5233
  145SAPE   C3515961   3.290   5.488  10.562  0.1825  0.4242  0.7118
  145SAPE   H5X15962   3.396   5.516  10.579  0.3761 -1.4845  2.9462
  145SAPE   H5Y15963   3.224   5.575  10.539 -1.5397 -0.9430  0.2772
  145SAPE   C3615964   3.280   5.392  10.442  0.0193  0.7709 -0.0732
  145SAPE   H6X15965   3.178   5.350  10.460  0.2680  0.4203  0.5384
  145SAPE   H6Y15966   3.335   5.300  10.471 -0.2009  0.8549  0.6257
  145SAPE   C3715967   3.296   5.456  10.308  0.6302  0.1111 -0.2621
  145SAPE   H7X15968   3.375   5.534  10.314 -1.5152  2.3780  0.3223
  145SAPE   H7Y15969   3.201   5.514  10.301  1.1369  1.2422  1.5849
  145SAPE   C3815970   3.299   5.354  10.194  0.5290  0.0977 -0.6309
  145SAPE   H8X15971   3.203   5.298  10.192  0.2402  0.6042 -1.8106
  145SAPE   H8Y15972   3.366   5.268  10.216 -2.0217 -2.0364 -0.7303
  145SAPE   C3915973   3.317   5.430  10.064  0.2236 -0.3978 -0.3645
  145SAPE   H9X15974   3.404   5.497  10.086  0.3477 -1.0500  1.2934
  145SAPE   H9Y15975   3.227   5.494  10.058  1.7891  2.0914  0.8726
  145SAPE  C31015976   3.347   5.344   9.949  0.7764  0.0099 -0.6616
  145SAPE  H10X15977   3.249   5.300   9.918  0.1481  1.5788 -1.0250
  145SAPE  H10Y15978   3.416   5.261   9.975 -0.9822 -2.1065 -2.3393
  145SAPE  C31115979   3.405   5.424   9.823  0.5307 -0.2160 -0.3775
  145SAPE  H11X15980   3.508   5.456   9.851 -0.4970 -0.2507  4.3439
  145SAPE  H11Y15981   3.354   5.520   9.801  1.6377 -0.2859 -3.8342
  145SAPE  C31215982   3.408   5.351   9.690  0.1328 -0.4614 -0.5501
  145SAPE  H12X15983   3.314   5.294   9.674 -0.2004 -0.1320  0.2019
  145SAPE  H12Y15984   3.489   5.275   9.696  0.5011  0.0530  2.2287
  145SAPE  C31315985   3.438   5.447   9.578 -0.1572  0.7137 -0.3096
  145SAPE  H13X15986   3.517   5.508   9.626 -0.1745  1.2628 -0.9547
  145SAPE  H13Y15987   3.354   5.519   9.563  0.3443  1.3116 -0.2804
  145SAPE  C31415988   3.489   5.384   9.449 -0.2276  0.6887 -0.4168
  145SAPE  H14X15989   3.423   5.299   9.421 -0.8709  0.9317  0.3090
  145SAPE  H14Y15990   3.588   5.338   9.471 -0.8654 -0.7417 -0.4595
  145SAPE  C31515991   3.527   5.486   9.340 -0.7185  0.5148  0.6793
  145SAPE  H15X15992   3.599   5.563   9.373  1.3408 -0.2990 -1.6346
  145SAPE  H15Y15993   3.433   5.539   9.313 -1.7039 -1.6714 -0.4398
  145SAPE  C31615994   3.579   5.408   9.219  0.1089  0.4402  0.7363
  145SAPE  H16X15995   3.500   5.365   9.154 -0.9668  1.1903  1.5076
  145SAPE  H16Y15996   3.634   5.320   9.259 -0.6326  1.1416  3.4906
  145SAPE  C31715997   3.679   5.486   9.140 -0.1415  0.2618  0.0594
  145SAPE  H17X15998   3.771   5.500   9.200 -1.4235  3.8077  1.4465
  145SAPE  H17Y15999   3.632   5.584   9.118  2.9905  1.8363 -0.1180
  145SAPE  C31816000   3.714   5.416   9.004 -0.7267  0.3529  0.1506
  145SAPE  H18X16001   3.752   5.314   9.024  3.3553  2.1698  3.0325
  145SAPE  H18Y16002   3.794   5.469   8.947 -0.6213 -0.5116 -0.5285
  145SAPE  H18Z16003   3.625   5.412   8.937 -1.7889  2.1306  1.3833
  146SAPE     N16004   1.226   6.309  10.663  0.3368 -0.1869  0.4647
  146SAPE   HN116005   1.125   6.323  10.683  0.1658 -0.1923 -0.3625
  146SAPE   HN216006   1.281   6.325  10.750  1.1963 -1.7025  0.2315
  146SAPE   HN316007   1.244   6.385  10.594  0.5493 -1.4172 -0.8832
  146SAPE   C1216008   1.267   6.188  10.581 -0.6574  0.3988 -0.1121
  146SAPE  H12A16009   1.190   6.181  10.502 -0.5891  1.4537 -0.2906
  146SAPE  H12B16010   1.260   6.097  10.644  1.4494  0.0524 -0.3131
  146SAPE   C1116011   1.406   6.202  10.534  0.7348 -0.0354 -0.0440
  146SAPE  H11A16012   1.389   6.283  10.460 -0.3733  1.2940  1.5745
  146SAPE  H11B16013   1.435   6.107  10.485 -1.1995 -0.3270 -0.7228
  146SAPE     P16014   1.577   6.142  10.730 -0.5255 -0.3357 -0.1339
  146SAPE   O1316015   1.657   6.213  10.831  0.2407 -0.3057  0.1847
  146SAPE   O1416016   1.483   6.036  10.774  0.3293  0.0121 -0.0953
  146SAPE   O1216017   1.497   6.246  10.638  0.0817 -0.1073 -0.4362
  146SAPE   O1116018   1.680   6.070  10.636  0.4281  0.1625  0.3324
  146SAPE    C116019   1.797   6.144  10.595  0.0937 -0.4287  0.4459
  146SAPE    HA16020   1.776   6.251  10.574  0.0131 -0.9103 -2.3737
  146SAPE    HB16021   1.863   6.153  10.684  0.6576 -0.0599  0.0003
  146SAPE    C216022   1.882   6.086  10.477  0.5247 -0.6585  0.8341
  146SAPE    HS16023   1.948   6.163  10.431  0.9860 -1.6899 -0.2632
  146SAPE   O2116024   1.793   6.060  10.371  0.7018 -0.1677 -0.4490
  146SAPE   C2116025   1.724   6.155  10.313  0.5159 -0.4648 -0.5044
  146SAPE   O2216026   1.743   6.274  10.329  1.2538 -0.2230  0.6978
  146SAPE   C2216027   1.613   6.093  10.216 -0.1744  0.3094 -0.1782
  146SAPE   H2R16028   1.664   6.012  10.160  1.7807  0.2534  1.5713
  146SAPE   H2S16029   1.537   6.048  10.285 -0.9680 -0.4138 -1.4824
  146SAPE    C316030   1.961   5.958  10.520  0.2391 -0.2084  0.6172
  146SAPE    HX16031   1.891   5.889  10.573 -0.1152  2.2199  3.6498
  146SAPE    HY16032   2.038   5.984  10.596  1.9602  0.4748 -1.2782
  146SAPE   O3116033   2.021   5.900  10.404  0.1868  0.2400 -0.1320
  146SAPE   C3116034   1.956   5.790  10.359 -0.0097  0.1169 -0.6141
  146SAPE   O3216035   1.856   5.738  10.406 -0.5104 -0.2696  0.0454
  146SAPE   C3216036   2.026   5.745  10.235  0.3503 -0.3261 -0.4880
  146SAPE   H2X16037   2.025   5.634  10.243  1.4351 -0.3124  0.1451
  146SAPE   H2Y16038   2.135   5.764  10.248 -0.0363  1.0826  0.9099
  146SAPE   C2316039   1.545   6.200  10.137  0.4125  0.3297 -0.3634
  146SAPE   H3R16040   1.618   6.250  10.070  1.1033 -1.8258 -1.3243
  146SAPE   H3S16041   1.505   6.278  10.205  4.8145 -0.4934  3.7730
  146SAPE   C2416042   1.431   6.134  10.058  0.7317 -0.1248 -0.2787
  146SAPE   H4R16043   1.351   6.131  10.135  1.3158 -0.3558  0.3282
  146SAPE   H4S16044   1.453   6.027  10.043 -0.5296 -0.4898  0.3166
  146SAPE   C2516045   1.383   6.203   9.930  0.8286 -0.1449 -1.0256
  146SAPE   H5R16046   1.303   6.276   9.950  1.7039  0.9129 -1.2684
  146SAPE   C2616047   1.442   6.194   9.811 -0.4877  0.1696  0.6435
  146SAPE   H6R16048   1.394   6.243   9.725 -2.6362 -0.3634  1.4899
  146SAPE   C2716049   1.561   6.103   9.795  0.0922 -0.3228  0.6125
  146SAPE   H7R16050   1.538   5.995   9.807  0.0186 -0.7345 -2.5099
  146SAPE   H7S16051   1.650   6.128   9.858  0.5397 -0.1764 -0.0624
  146SAPE   C2816052   1.616   6.118   9.658 -0.0891 -0.6496 -0.1076
  146SAPE   H8R16053   1.714   6.168   9.663  0.3941 -1.5159 -0.5997
  146SAPE   C2916054   1.574   6.065   9.541 -0.3332  0.1627 -0.5021
  146SAPE   H9R16055   1.633   6.092   9.453  0.5654 -0.2461 -0.0312
  146SAPE  C21016056   1.453   5.975   9.524  0.0033 -0.5675 -0.1503
  146SAPE  H10R16057   1.357   6.029   9.514 -0.0513 -0.2323  1.7423
  146SAPE  H10S16058   1.442   5.909   9.613  0.7415  1.4120  1.5134
  146SAPE  C21116059   1.468   5.892   9.400 -0.5451  0.9562 -0.2936
  146SAPE  H11R16060   1.508   5.790   9.408  1.9119  1.8498 -0.2531
  146SAPE  C21216061   1.444   5.929   9.274  0.9083 -0.3771 -0.5844
  146SAPE  H12R16062   1.452   5.859   9.189 -0.3502  0.2110 -1.2028
  146SAPE  C21316063   1.391   6.070   9.254 -0.6530 -0.5607  0.4774
  146SAPE  H13R16064   1.441   6.111   9.164 -0.9866 -0.2748  0.4215
  146SAPE  H13S16065   1.419   6.144   9.332  2.4607 -2.2272  1.0984
  146SAPE  C21416066   1.242   6.081   9.240 -0.3841 -0.5609  0.4317
  146SAPE  H14R16067   1.193   6.104   9.335  0.7094  1.3524  0.5896
  146SAPE  C21516068   1.175   6.069   9.125 -0.4367  0.4055 -0.5025
  146SAPE  H15R16069   1.065   6.071   9.132 -0.4595 -0.3811 -0.4640
  146SAPE  C21616070   1.237   6.039   8.987 -0.0491  0.0679 -0.0120
  146SAPE  H16R16071   1.195   5.947   8.942  0.9846 -0.0409 -0.8025
  146SAPE  H16S16072   1.345   6.013   8.988 -0.8122 -4.8318 -4.0590
  146SAPE  C21716073   1.217   6.155   8.890 -0.2009 -0.5576  0.1159
  146SAPE  H17R16074   1.285   6.140   8.803  0.4250  1.4720  0.1975
  146SAPE  H17S16075   1.248   6.255   8.929 -0.0042 -0.0551 -1.2587
  146SAPE  C21816076   1.070   6.151   8.826 -0.5606  0.6960  0.2086
  146SAPE  H18R16077   0.988   6.184   8.893 -1.2666  0.4884 -0.5451
  146SAPE  H18S16078   1.045   6.051   8.784  0.4711 -0.0749  1.3470
  146SAPE  C21916079   1.061   6.248   8.710 -0.6542 -0.4283  0.0073
  146SAPE  H19R16080   1.137   6.234   8.629 -0.2026 -1.1617  0.5469
  146SAPE  H19S16081   1.063   6.355   8.740  0.2696  0.3785 -2.6284
  146SAPE  C22016082   0.919   6.236   8.646 -0.8735  0.2494 -0.4884
  146SAPE  H20R16083   0.887   6.132   8.624  0.0732  0.3749 -2.7649
  146SAPE  H20S16084   0.916   6.277   8.543  1.2091  0.8403 -0.3685
  146SAPE  H20T16085   0.845   6.289   8.710 -0.0407  0.7667  0.0694
  146SAPE   C3316086   1.941   5.788  10.108 -0.2909  0.8446 -0.4250
  146SAPE   H3X16087   1.830   5.788  10.116 -0.2708  0.6488 -0.1334
  146SAPE   H3Y16088   1.968   5.717  10.027 -3.3734 -0.4410 -0.4593
  146SAPE   C3416089   1.989   5.925  10.049 -0.2876  0.0297 -0.8484
  146SAPE   H4X16090   2.098   5.936  10.067 -0.1458 -1.5810 -0.6086
  146SAPE   H4Y16091   1.949   6.008  10.111  2.1482  0.4827  0.2265
  146SAPE   C3516092   1.964   5.942   9.898  0.2039  0.3427  0.2730
  146SAPE   H5X16093   1.855   5.935   9.878  0.5271 -0.8541 -1.3323
  146SAPE   H5Y16094   2.012   5.855   9.848 -1.8931  0.1646 -1.6018
  146SAPE   C3616095   2.037   6.062   9.831  0.3409 -0.1271 -0.6561
  146SAPE   H6X16096   2.147   6.053   9.843  0.4122  1.2261 -0.2248
  146SAPE   H6Y16097   1.992   6.155   9.871 -1.3590 -0.3573 -1.9236
  146SAPE   C3716098   2.003   6.075   9.683 -0.4813 -0.4310  1.0230
  146SAPE   H7X16099   2.047   6.166   9.638 -1.1133 -1.1578 -1.1988
  146SAPE   H7Y16100   1.897   6.062   9.652  0.2002 -1.0853 -1.2279
  146SAPE   C3816101   2.078   5.965   9.607 -0.1411 -0.8106 -0.6449
  146SAPE   H8X16102   2.038   5.863   9.630 -1.0292 -0.3137  0.0562
  146SAPE   H8Y16103   2.179   5.966   9.653  0.2683 -0.4810 -1.5251
  146SAPE   C3916104   2.088   5.976   9.453  0.3230 -0.3072 -0.0183
  146SAPE   H9X16105   2.150   5.898   9.403 -0.0215 -1.9731  2.0195
  146SAPE   H9Y16106   2.126   6.080   9.443  0.3156 -0.2588  0.4086
  146SAPE  C31016107   1.953   5.969   9.389 -0.5524 -0.2875  0.1172
  146SAPE  H10X16108   1.891   6.039   9.449  0.1315  0.6534 -0.2424
  146SAPE  H10Y16109   1.908   5.868   9.383 -1.0328  0.0129 -1.8790
  146SAPE  C31116110   1.940   6.003   9.241 -1.2024  0.6265  0.2290
  146SAPE  H11X16111   2.028   5.952   9.197  0.4539  2.5236  1.1538
  146SAPE  H11Y16112   1.972   6.107   9.218  4.1921 -0.8744 -0.3155
  146SAPE  C31216113   1.807   5.973   9.177 -0.3964  0.3778 -1.1600
  146SAPE  H12X16114   1.740   6.059   9.197 -0.4198 -0.1571  1.5412
  146SAPE  H12Y16115   1.760   5.886   9.228 -0.5266  0.2100 -1.5613
  146SAPE  C31316116   1.826   5.958   9.028  0.5126  0.1727 -0.5921
  146SAPE  H13X16117   1.885   5.868   8.999 -2.2288 -2.0826  0.3962
  146SAPE  H13Y16118   1.875   6.045   8.982  0.7848  0.3110 -0.0485
  146SAPE  C31416119   1.689   5.928   8.966  0.1931  0.5988  0.0177
  146SAPE  H14X16120   1.683   5.952   8.858 -0.4034 -1.6616 -0.5023
  146SAPE  H14Y16121   1.614   5.986   9.025 -0.3385 -1.5271  1.5643
  146SAPE  C31516122   1.652   5.780   8.979  0.5822  0.8578 -0.2698
  146SAPE  H15X16123   1.634   5.758   9.086 -2.0653 -2.1661 -1.1862
  146SAPE  H15Y16124   1.741   5.726   8.938 -0.5744 -0.7617 -0.7675
  146SAPE  C31616125   1.525   5.731   8.893  0.7609  0.7391  0.4371
  146SAPE  H16X16126   1.436   5.777   8.941 -0.4237 -1.9820  1.0457
  146SAPE  H16Y16127   1.533   5.624   8.924 -0.5278  0.7771  0.9515
  146SAPE  C31716128   1.519   5.735   8.744 -0.3064 -0.2439 -0.3597
  146SAPE  H17X16129   1.554   5.832   8.703  0.9530  0.5140  2.3078
  146SAPE  H17Y16130   1.415   5.710   8.715 -0.8771  0.5073  0.9540
  146SAPE  C31816131   1.609   5.624   8.677 -0.4529 -0.5885  0.2602
  146SAPE  H18X16132   1.564   5.525   8.699  1.0170 -1.4923 -0.5991
  146SAPE  H18Y16133   1.715   5.631   8.710 -0.4905 -0.0170  0.2730
  146SAPE  H18Z16134   1.606   5.634   8.566 -0.6553  1.3354  0.4109
  147SAPE     N16135   4.390   2.774   6.523 -0.1886  0.0321 -0.0222
  147SAPE   HN116136   4.390   2.711   6.440 -0.6320 -0.5927  0.4431
  147SAPE   HN216137   4.415   2.714   6.605  1.3478 -0.3455 -0.7294
  147SAPE   HN316138   4.295   2.812   6.542 -0.4495 -0.6560  0.0690
  147SAPE   C1216139   4.482   2.891   6.487  0.0817  0.6901  0.6849
  147SAPE  H12A16140   4.481   2.961   6.572  1.7881  1.6417 -0.0114
  147SAPE  H12B16141   4.452   2.921   6.384 -0.5218 -3.6588 -0.5987
  147SAPE   C1116142   4.627   2.846   6.488 -0.3315  0.3579  0.5195
  147SAPE  H11A16143   4.654   2.812   6.590  0.0189 -1.3289 -0.1006
  147SAPE  H11B16144   4.692   2.934   6.466  1.0781 -0.1212  2.5638
  147SAPE     P16145   4.773   2.709   6.312  0.0300  0.1025 -0.0621
  147SAPE   O1316146   4.824   2.569   6.304  0.0185 -0.2479 -0.0555
  147SAPE   O1416147   4.756   2.775   6.185 -0.1099 -0.6368 -0.2032
  147SAPE   O1216148   4.638   2.731   6.402 -0.5120 -0.0380  0.8730
  147SAPE   O1116149   4.876   2.797   6.394 -0.2904  0.1820  0.4354
  147SAPE    C116150   5.005   2.739   6.405 -0.3749  0.3132  0.6517
  147SAPE    HA16151   4.999   2.650   6.472  1.6334  0.5311  1.1875
  147SAPE    HB16152   5.044   2.717   6.303  1.6493  1.5216  1.1070
  147SAPE    C216153   5.113   2.837   6.455  0.4080  0.6018 -0.4944
  147SAPE    HS16154   5.212   2.790   6.439 -0.1258  0.2844 -3.2594
  147SAPE   O2116155   5.096   2.847   6.600  0.4442  0.4334 -0.1297
  147SAPE   C2116156   5.127   2.739   6.667 -0.3700  0.3773 -0.2033
  147SAPE   O2216157   5.158   2.632   6.623  0.3667  0.6353 -0.7497
  147SAPE   C2216158   5.132   2.773   6.817 -0.1021  0.4671 -0.0239
  147SAPE   H2R16159   5.215   2.846   6.823  1.8005 -1.2628 -3.0236
  147SAPE   H2S16160   5.034   2.822   6.840 -0.0806 -0.0419  1.2213
  147SAPE    C316161   5.113   2.977   6.398 -0.6335  0.0756  0.2411
  147SAPE    HX16162   5.012   3.009   6.429 -0.7350 -1.6618  1.8804
  147SAPE    HY16163   5.125   2.969   6.288  1.1514  1.2842  0.3044
  147SAPE   O3116164   5.209   3.070   6.460  0.1785 -0.2674 -0.0891
  147SAPE   C3116165   5.338   3.051   6.435  0.0646 -0.2919  0.0842
  147SAPE   O3216166   5.380   2.977   6.348 -0.4286 -0.2204  0.2650
  147SAPE   C3216167   5.425   3.135   6.531  0.2119 -0.1238 -0.9530
  147SAPE   H2X16168   5.375   3.233   6.544 -1.1844 -1.1815  2.5646
  147SAPE   H2Y16169   5.523   3.135   6.477  0.7254  0.5448 -0.0545
  147SAPE   C2316170   5.151   2.651   6.919  0.1295 -0.9202 -0.3404
  147SAPE   H3R16171   5.240   2.602   6.875  0.4054 -0.0460 -0.7857
  147SAPE   H3S16172   5.057   2.592   6.922  0.0129 -0.7634 -0.8314
  147SAPE   C2416173   5.201   2.702   7.058  0.0595  0.4415  0.8192
  147SAPE   H4R16174   5.288   2.769   7.043  0.7645  0.0693  2.8684
  147SAPE   H4S16175   5.233   2.612   7.115  2.2978  1.5081  1.3322
  147SAPE   C2516176   5.108   2.784   7.144  0.8977 -0.0055  1.0387
  147SAPE   H5R16177   5.061   2.871   7.096 -1.0362 -0.2263  2.4416
  147SAPE   C2616178   5.082   2.766   7.277  0.0488  0.4138  0.0903
  147SAPE   H6R16179   5.006   2.824   7.331 -0.7171 -0.3618 -0.1275
  147SAPE   C2716180   5.114   2.647   7.360  0.4489 -0.2533 -0.2073
  147SAPE   H7R16181   5.147   2.676   7.462  2.9099 -0.0733 -0.9938
  147SAPE   H7S16182   5.198   2.587   7.318  1.7585  1.3778 -0.0072
  147SAPE   C2816183   4.998   2.546   7.376  0.0722 -0.0399  0.2375
  147SAPE   H8R16184   4.969   2.502   7.280  0.6591  1.3140 -0.5951
  147SAPE   C2916185   4.928   2.520   7.487  0.3439  0.2414 -0.2831
  147SAPE   H9R16186   4.859   2.436   7.474  0.3520  0.3309 -0.9342
  147SAPE  C21016187   4.940   2.574   7.628 -0.0372 -0.3605  0.0915
  147SAPE  H10R16188   5.045   2.559   7.661 -0.4572 -1.8442  0.8111
  147SAPE  H10S16189   4.864   2.522   7.690  0.5468 -1.3724 -0.0252
  147SAPE  C21116190   4.910   2.722   7.637  0.6396 -0.0629 -0.4564
  147SAPE  H11R16191   4.991   2.795   7.630 -0.1520  0.9895  0.8581
  147SAPE  C21216192   4.785   2.773   7.637  0.3570  0.1292  0.1499
  147SAPE  H12R16193   4.774   2.882   7.641  1.8324  0.3939 -1.5177
  147SAPE  C21316194   4.654   2.697   7.630 -1.0155 -0.3940  0.1569
  147SAPE  H13R16195   4.659   2.594   7.673 -0.7002 -1.0156 -1.3316
  147SAPE  H13S16196   4.621   2.686   7.525 -0.3729 -0.4610 -0.0405
  147SAPE  C21416197   4.537   2.771   7.696 -0.5167 -0.8260 -0.6698
  147SAPE  H14R16198   4.476   2.833   7.628 -1.1145 -0.2516  0.3720
  147SAPE  C21516199   4.507   2.770   7.825 -0.1473  0.0807 -0.2437
  147SAPE  H15R16200   4.422   2.824   7.868 -0.0403 -0.2852  0.4496
  147SAPE  C21616201   4.588   2.688   7.926  0.3091 -0.5751  0.9065
  147SAPE  H16R16202   4.650   2.606   7.883 -0.8083  0.0067 -2.0925
  147SAPE  H16S16203   4.504   2.634   7.974  0.2249 -1.0906  0.1971
  147SAPE  C21716204   4.663   2.777   8.021  0.2530  0.3460  0.1006
  147SAPE  H17R16205   4.593   2.851   8.065 -1.6515 -2.0776  1.3989
  147SAPE  H17S16206   4.746   2.834   7.974 -0.2126  0.0582 -1.0824
  147SAPE  C21816207   4.735   2.685   8.126  0.5769 -1.0045  0.8652
  147SAPE  H18R16208   4.786   2.594   8.086  0.8570 -0.2161 -0.6115
  147SAPE  H18S16209   4.651   2.649   8.190  1.5041 -0.7824  2.2587
  147SAPE  C21916210   4.835   2.768   8.203  0.1590  0.5522  0.1187
  147SAPE  H19R16211   4.773   2.852   8.242  0.2369  0.2044  0.9963
  147SAPE  H19S16212   4.920   2.815   8.147  0.7813  0.5911  1.0746
  147SAPE  C22016213   4.906   2.694   8.316 -0.7647  0.4221  0.2414
  147SAPE  H20R16214   4.835   2.623   8.364  1.7392 -2.9741 -0.7417
  147SAPE  H20S16215   4.958   2.757   8.392 -1.3943 -0.1238  1.1476
  147SAPE  H20T16216   4.976   2.626   8.264  1.4569  1.2898  1.9277
  147SAPE   C3316217   5.441   3.079   6.676  0.0975  0.0570 -0.1124
  147SAPE   H3X16218   5.548   3.048   6.681 -0.0282 -0.4133 -0.2247
  147SAPE   H3Y16219   5.369   2.996   6.692 -2.5082  1.6904 -2.5243
  147SAPE   C3416220   5.431   3.176   6.795  0.0010  1.1362  0.4875
  147SAPE   H4X16221   5.339   3.238   6.803 -1.7107 -0.9551 -1.4851
  147SAPE   H4Y16222   5.516   3.246   6.786  1.4440 -0.3604  1.7859
  147SAPE   C3516223   5.452   3.098   6.930  0.7257 -0.2344  1.1904
  147SAPE   H5X16224   5.549   3.044   6.926 -0.0385 -1.5708 -1.5676
  147SAPE   H5Y16225   5.372   3.021   6.938  0.8041 -0.3770  0.6245
  147SAPE   C3616226   5.461   3.187   7.050  0.1809 -0.0859  0.1493
  147SAPE   H6X16227   5.366   3.244   7.057  1.3180  1.8081  0.7488
  147SAPE   H6Y16228   5.545   3.257   7.031  1.4223 -1.1807  1.3096
  147SAPE   C3716229   5.465   3.112   7.180 -0.1725  0.0818 -0.2713
  147SAPE   H7X16230   5.569   3.079   7.197 -0.0727  1.2722  1.8167
  147SAPE   H7Y16231   5.393   3.028   7.171 -1.4931  1.0072  1.0500
  147SAPE   C3816232   5.431   3.199   7.300  0.1284 -0.4252 -0.3383
  147SAPE   H8X16233   5.325   3.231   7.309 -0.1344 -0.9242 -1.4901
  147SAPE   H8Y16234   5.476   3.298   7.278  0.7261 -1.0184 -1.9923
  147SAPE   C3916235   5.490   3.150   7.431 -0.1723 -0.5739 -1.3497
  147SAPE   H9X16236   5.591   3.106   7.419  1.3514  1.8893  1.2661
  147SAPE   H9Y16237   5.423   3.073   7.474  0.8177 -0.0932  1.2097
  147SAPE  C31016238   5.498   3.264   7.535  0.0947 -0.2270  0.0857
  147SAPE  H10X16239   5.401   3.318   7.549  0.1468 -0.0019 -0.3974
  147SAPE  H10Y16240   5.572   3.342   7.506  0.7260 -0.3389  1.3192
  147SAPE  C31116241   5.557   3.211   7.662 -0.0004 -0.2790  0.2262
  147SAPE  H11X16242   5.646   3.153   7.629 -0.0593  0.9125 -2.3346
  147SAPE  H11Y16243   5.482   3.146   7.712  0.6518 -2.6144 -1.6073
  147SAPE  C31216244   5.615   3.323   7.748 -0.2784  0.3040 -0.2847
  147SAPE  H12X16245   5.527   3.379   7.786 -0.1797 -0.9467  1.9266
  147SAPE  H12Y16246   5.685   3.382   7.686 -0.5571  2.1636  1.1059
  147SAPE  C31316247   5.678   3.274   7.880  0.9746  0.5303  0.0513
  147SAPE  H13X16248   5.715   3.360   7.941 -0.9657  1.1980  0.3729
  147SAPE  H13Y16249   5.763   3.203   7.879  0.4751 -0.0792  0.2659
  147SAPE  C31416250   5.579   3.194   7.974  0.5687 -0.7918  0.9351
  147SAPE  H14X16251   5.535   3.118   7.906  3.3192 -3.0260  1.4531
  147SAPE  H14Y16252   5.499   3.259   8.015 -0.1467 -0.2101 -1.2738
  147SAPE  C31516253   5.655   3.108   8.083  0.4610  0.0980 -0.6349
  147SAPE  H15X16254   5.688   3.181   8.159  0.3925  0.0693 -0.5771
  147SAPE  H15Y16255   5.729   3.038   8.038  0.0041 -0.8583  0.0714
  147SAPE  C31616256   5.558   3.013   8.149  0.3160  0.1734 -0.0651
  147SAPE  H16X16257   5.464   3.006   8.090 -0.8925 -0.2330  1.8191
  147SAPE  H16Y16258   5.529   3.049   8.250  3.4825 -0.2447  1.1136
  147SAPE  C31716259   5.609   2.874   8.165 -0.1692 -0.0179  0.2819
  147SAPE  H17X16260   5.631   2.830   8.065 -1.0661  0.7731 -0.2802
  147SAPE  H17Y16261   5.533   2.813   8.218  0.0004 -1.8031 -1.4026
  147SAPE  C31816262   5.743   2.853   8.242  0.7181 -0.0823  0.6065
  147SAPE  H18X16263   5.774   2.746   8.235  2.8132  0.5351 -0.1417
  147SAPE  H18Y16264   5.729   2.879   8.349  2.2237 -0.0636  0.8096
  147SAPE  H18Z16265   5.820   2.920   8.200  1.1953  1.3085  3.4822
  148SAPE     N16266   2.951   1.552   6.422  0.7768  0.1020  0.3132
  148SAPE   HN116267   2.972   1.531   6.522 -1.0387 -2.2551  0.2940
  148SAPE   HN216268   2.941   1.655   6.413 -1.0254 -0.1534 -1.1002
  148SAPE   HN316269   2.853   1.519   6.413  0.0634  1.5141  2.2873
  148SAPE   C1216270   3.057   1.507   6.321 -0.2471  0.1543  0.3667
  148SAPE  H12A16271   3.018   1.533   6.221  1.1552  0.0233 -0.2302
  148SAPE  H12B16272   3.080   1.398   6.331  3.4345  0.6223 -1.3802
  148SAPE   C1116273   3.178   1.591   6.334 -0.1405 -0.1392 -0.1512
  148SAPE  H11A16274   3.153   1.700   6.336 -3.4304 -0.7948  0.8592
  148SAPE  H11B16275   3.228   1.573   6.236 -2.0444  0.2482 -1.2623
  148SAPE     P16276   3.403   1.561   6.479  0.2900  0.5732  0.3990
  148SAPE   O1316277   3.468   1.482   6.376 -0.4651 -0.5402  0.2811
  148SAPE   O1416278   3.437   1.703   6.507 -0.1193 -0.3409  0.1887
  148SAPE   O1216279   3.254   1.558   6.452  0.8626 -0.6179 -0.6247
  148SAPE   O1116280   3.406   1.471   6.611  0.3462 -0.0573  0.2962
  148SAPE    C116281   3.302   1.463   6.706  0.1661  0.1350 -0.6196
  148SAPE    HA16282   3.353   1.458   6.805  0.7746  1.6971 -0.8183
  148SAPE    HB16283   3.239   1.555   6.702 -0.6198 -0.3010  1.1104
  148SAPE    C216284   3.215   1.334   6.685 -1.2725 -0.3158  0.2112
  148SAPE    HS16285   3.172   1.350   6.583 -0.4300  2.8316  0.2635
  148SAPE   O2116286   3.115   1.333   6.777  0.6831  0.4132 -0.6749
  148SAPE   C2116287   3.009   1.406   6.761 -0.8102  0.5093 -0.4711
  148SAPE   O2216288   2.999   1.501   6.684 -0.1461 -0.1326 -0.8734
  148SAPE   C2216289   2.889   1.340   6.832  0.8204  1.2602 -0.1778
  148SAPE   H2R16290   2.873   1.235   6.799 -1.5657  1.6905 -0.5902
  148SAPE   H2S16291   2.928   1.314   6.932  1.8174  1.4598 -0.4975
  148SAPE    C316292   3.298   1.204   6.699  0.2646 -0.0250 -0.7943
  148SAPE    HX16293   3.352   1.217   6.602 -1.4673 -1.6609 -2.0498
  148SAPE    HY16294   3.238   1.111   6.687 -0.5477  0.7478 -3.8194
  148SAPE   O3116295   3.393   1.200   6.806 -1.0918 -0.5169 -0.3255
  148SAPE   C3116296   3.351   1.147   6.921 -1.0059 -0.5319 -0.4673
  148SAPE   O3216297   3.251   1.085   6.938 -0.0409  0.1425 -0.2373
  148SAPE   C3216298   3.444   1.201   7.032  0.3496  0.0930  0.1805
  148SAPE   H2X16299   3.468   1.308   7.015  1.2045 -0.0572  0.3929
  148SAPE   H2Y16300   3.535   1.137   7.027  0.1674 -0.1415 -0.2151
  148SAPE   C2316301   2.753   1.416   6.831 -0.2727 -0.0431 -0.4910
  148SAPE   H3R16302   2.721   1.430   6.725 -1.0778  1.5172 -0.0885
  148SAPE   H3S16303   2.765   1.513   6.884 -0.3043 -0.9254  1.2196
  148SAPE   C2416304   2.628   1.341   6.884 -0.1071 -0.2197 -0.9649
  148SAPE   H4R16305   2.657   1.298   6.982 -0.3358 -0.3297 -0.9449
  148SAPE   H4S16306   2.624   1.254   6.816  3.8864  1.0464 -3.1553
  148SAPE   C2516307   2.502   1.421   6.889  0.7252  0.2047  0.1032
  148SAPE   H5R16308   2.444   1.410   6.796 -0.0390 -1.8643  0.7498
  148SAPE   C2616309   2.454   1.497   6.990  0.6336 -0.1749 -0.0213
  148SAPE   H6R16310   2.357   1.548   6.981 -0.3115 -1.2384  2.9955
  148SAPE   C2716311   2.520   1.516   7.124 -0.4504  0.4063 -0.9503
  148SAPE   H7R16312   2.477   1.602   7.181 -0.1310  0.2354 -0.4458
  148SAPE   H7S16313   2.624   1.552   7.111 -1.0289  2.6696  0.0774
  148SAPE   C2816314   2.508   1.394   7.210 -0.0616 -0.1104 -0.1251
  148SAPE   H8R16315   2.472   1.303   7.160 -0.7795  0.0831  0.0200
  148SAPE   C2916316   2.540   1.401   7.339 -0.1490  0.8162  0.8888
  148SAPE   H9R16317   2.526   1.306   7.393  1.0887 -1.0193 -1.7964
  148SAPE  C21016318   2.591   1.515   7.417 -0.3438  0.8079 -0.1075
  148SAPE  H10R16319   2.640   1.585   7.346 -0.5848  0.5405 -0.5380
  148SAPE  H10S16320   2.678   1.483   7.480 -0.2172 -0.6770 -0.9874
  148SAPE  C21116321   2.484   1.577   7.503 -0.0585  0.1039  0.3092
  148SAPE  H11R16322   2.461   1.677   7.465 -0.3102 -0.2847 -0.5695
  148SAPE  C21216323   2.427   1.524   7.613 -0.1911 -0.3204 -0.4988
  148SAPE  H12R16324   2.355   1.587   7.667 -1.3688 -0.3018 -2.0308
  148SAPE  C21316325   2.455   1.386   7.665  0.6428 -0.4174  0.0683
  148SAPE  H13R16326   2.453   1.388   7.776  1.6391 -1.0163  0.1102
  148SAPE  H13S16327   2.560   1.356   7.644  1.2438  1.8940 -0.5295
  148SAPE  C21416328   2.359   1.281   7.617 -0.0805 -0.6782  0.8406
  148SAPE  H14R16329   2.296   1.292   7.528  1.1202 -3.3117 -0.4440
  148SAPE  C21516330   2.344   1.165   7.683 -0.0904  0.1664 -0.4256
  148SAPE  H15R16331   2.280   1.083   7.648  3.1546 -2.8918  0.1672
  148SAPE  C21616332   2.425   1.124   7.808  0.4563  0.6513 -0.0851
  148SAPE  H16R16333   2.382   1.040   7.867  2.0143 -0.3961 -0.3842
  148SAPE  H16S16334   2.442   1.210   7.877  1.3087 -0.4180  1.0726
  148SAPE  C21716335   2.563   1.067   7.778 -0.6411  0.4518 -0.1415
  148SAPE  H17R16336   2.608   1.151   7.721  0.8483 -0.1990  0.0180
  148SAPE  H17S16337   2.549   0.979   7.713 -1.7400 -0.4739  1.2875
  148SAPE  C21816338   2.652   1.027   7.899 -0.1140  0.1960 -0.0023
  148SAPE  H18R16339   2.626   0.923   7.928 -0.4415  0.7881  1.9478
  148SAPE  H18S16340   2.628   1.090   7.987  0.4338 -1.7282  1.5969
  148SAPE  C21916341   2.804   1.033   7.877 -0.5619  0.3904 -1.1427
  148SAPE  H19R16342   2.820   0.966   7.789 -1.1684  0.4129 -1.2799
  148SAPE  H19S16343   2.849   0.987   7.967 -2.3921 -2.1691 -1.4163
  148SAPE  C22016344   2.862   1.172   7.859  0.2351 -0.3546  0.7451
  148SAPE  H20R16345   2.812   1.246   7.925 -2.6222 -0.2590 -1.3444
  148SAPE  H20S16346   2.854   1.206   7.754  1.3058 -1.6522  0.2118
  148SAPE  H20T16347   2.971   1.171   7.880  0.5730  0.1743 -0.8736
  148SAPE   C3316348   3.380   1.172   7.173  0.5184  0.0860 -0.1032
  148SAPE   H3X16349   3.352   1.065   7.173  2.4319 -0.4528 -0.6018
  148SAPE   H3Y16350   3.284   1.228   7.183  0.3710 -0.3175  0.8154
  148SAPE   C3416351   3.494   1.172   7.276  0.3690  0.8587 -0.1571
  148SAPE   H4X16352   3.517   1.277   7.302  0.8580  0.4093  1.3373
  148SAPE   H4Y16353   3.587   1.127   7.235 -0.3010 -0.3576 -0.3991
  148SAPE   C3516354   3.454   1.109   7.411  0.6185  0.2180 -0.4659
  148SAPE   H5X16355   3.384   1.172   7.470  0.7291 -1.5210  1.6360
  148SAPE   H5Y16356   3.548   1.102   7.469 -0.1396 -1.2821  0.6346
  148SAPE   C3616357   3.404   0.958   7.402  0.3294 -0.3913  0.2580
  148SAPE   H6X16358   3.483   0.909   7.342  0.7236 -0.0226  0.4640
  148SAPE   H6Y16359   3.308   0.954   7.346 -0.2450  4.3353  0.4798
  148SAPE   C3716360   3.391   0.875   7.534 -0.0689  0.6812 -0.0373
  148SAPE   H7X16361   3.491   0.891   7.579 -0.6333 -0.2242  1.6281
  148SAPE   H7Y16362   3.382   0.765   7.522 -1.6770  0.4479  2.4626
  148SAPE   C3816363   3.276   0.920   7.626  0.0379 -0.4744 -0.2174
  148SAPE   H8X16364   3.178   0.896   7.578  0.7387 -1.8172 -1.0227
  148SAPE   H8Y16365   3.280   1.031   7.629  0.1567 -0.4711 -0.4542
  148SAPE   C3916366   3.291   0.860   7.766 -0.1987  0.3997 -0.3039
  148SAPE   H9X16367   3.397   0.876   7.794 -0.0342  0.3747 -0.8982
  148SAPE   H9Y16368   3.270   0.752   7.750 -1.3741  0.8240 -1.8968
  148SAPE  C31016369   3.204   0.917   7.879  0.3516 -0.3889 -0.4482
  148SAPE  H10X16370   3.096   0.891   7.868 -0.2220  2.2713 -1.9754
  148SAPE  H10Y16371   3.208   1.028   7.868  0.3539 -0.3958 -0.5148
  148SAPE  C31116372   3.259   0.870   8.016  0.6769 -0.1407 -0.2231
  148SAPE  H11X16373   3.370   0.872   8.014  0.6629  0.8271 -0.6331
  148SAPE  H11Y16374   3.225   0.766   8.040  1.3343 -0.2783  0.1351
  148SAPE  C31216375   3.231   0.958   8.142 -0.8899 -0.2286 -0.1945
  148SAPE  H12X16376   3.301   1.043   8.158 -2.0384  1.0376 -1.5737
  148SAPE  H12Y16377   3.242   0.889   8.228  1.6015 -0.9897 -1.0488
  148SAPE  C31316378   3.086   1.002   8.153  0.7284 -0.3781 -1.0497
  148SAPE  H13X16379   3.028   0.917   8.111  1.3953 -1.5598  0.3193
  148SAPE  H13Y16380   3.089   1.101   8.103  3.2658 -0.2203 -0.7296
  148SAPE  C31416381   3.028   1.018   8.293 -0.3883  0.1048 -0.3014
  148SAPE  H14X16382   3.100   1.065   8.364 -0.7938  0.0923  0.1240
  148SAPE  H14Y16383   3.002   0.920   8.339 -0.3901  1.0379  1.8045
  148SAPE  C31516384   2.897   1.105   8.295  0.2058  0.3905 -0.6216
  148SAPE  H15X16385   2.836   1.060   8.213 -0.5825 -0.4901  0.4125
  148SAPE  H15Y16386   2.912   1.215   8.294 -2.0466  0.7405 -0.7547
  148SAPE  C31616387   2.809   1.074   8.427  0.3823  0.1112 -0.3624
  148SAPE  H16X16388   2.880   1.090   8.511 -0.4526  1.6292  0.0910
  148SAPE  H16Y16389   2.778   0.968   8.415 -4.1841  1.3292 -1.2914
  148SAPE  C31716390   2.687   1.157   8.434  0.6719 -0.1913 -0.6672
  148SAPE  H17X16391   2.620   1.152   8.345  0.0053  0.4384 -0.2104
  148SAPE  H17Y16392   2.726   1.261   8.436  1.2161 -0.4050  0.7950
  148SAPE  C31816393   2.594   1.122   8.556  0.1891 -0.2779  0.9073
  148SAPE  H18X16394   2.650   1.140   8.650  0.3028  1.8498  0.4811
  148SAPE  H18Y16395   2.557   1.017   8.555  1.0110 -0.6046  2.1247
  148SAPE  H18Z16396   2.511   1.195   8.564  0.6084  0.1780  1.1249
  149SAPE     N16397   3.133   2.424   6.499  0.6755 -0.6350  0.1713
  149SAPE   HN116398   3.194   2.408   6.582 -0.5203  1.6536  1.6146
  149SAPE   HN216399   3.163   2.513   6.452  2.7649 -1.9317 -1.1036
  149SAPE   HN316400   3.032   2.429   6.525 -0.1400  0.9631 -2.7540
  149SAPE   C1216401   3.130   2.315   6.399  0.4246 -0.5628  0.9523
  149SAPE  H12A16402   3.119   2.220   6.456  1.0008 -0.1273  1.7945
  149SAPE  H12B16403   3.222   2.315   6.338 -0.8957 -1.8230 -1.1769
  149SAPE   C1116404   3.008   2.330   6.294 -0.8213 -0.0963 -0.2470
  149SAPE  H11A16405   3.046   2.264   6.213 -1.0498 -2.0757  1.1814
  149SAPE  H11B16406   3.016   2.433   6.253 -0.3662 -0.6007 -1.5007
  149SAPE     P16407   2.860   2.133   6.355  0.3721  0.3197 -0.2239
  149SAPE   O1316408   2.720   2.093   6.336 -0.0993  0.2006 -0.1838
  149SAPE   O1416409   2.967   2.062   6.281  0.5604  0.3484  0.7487
  149SAPE   O1216410   2.885   2.289   6.347  0.5399 -0.6431  0.4109
  149SAPE   O1116411   2.894   2.108   6.504 -0.6639 -0.4389  0.0273
  149SAPE    C116412   2.805   2.168   6.603 -0.9071 -0.1444  0.1375
  149SAPE    HA16413   2.794   2.276   6.577  0.9077 -0.4190 -2.0523
  149SAPE    HB16414   2.705   2.119   6.602  0.0003 -2.1275 -2.2882
  149SAPE    C216415   2.869   2.148   6.743  0.1313 -0.3702 -0.8712
  149SAPE    HS16416   2.969   2.197   6.742  0.2723 -0.2658  2.9342
  149SAPE   O2116417   2.876   2.007   6.760 -0.1786  0.0254 -0.6473
  149SAPE   C2116418   2.943   1.962   6.864 -0.4484  0.0595  0.9868
  149SAPE   O2216419   3.024   2.017   6.928 -0.4570  0.0942 -0.8559
  149SAPE   C2216420   2.892   1.821   6.894 -0.2010  0.1048  0.2180
  149SAPE   H2R16421   2.872   1.769   6.797  2.3429 -1.1384  0.2811
  149SAPE   H2S16422   2.979   1.761   6.927 -0.5873 -0.3828  0.3567
  149SAPE    C316423   2.777   2.222   6.846  0.2561 -0.2313 -0.8397
  149SAPE    HX16424   2.679   2.170   6.843 -0.9079  1.7678 -0.0910
  149SAPE    HY16425   2.761   2.328   6.815  0.9288 -0.2318 -1.2038
  149SAPE   O3116426   2.824   2.213   6.982 -0.1145  0.0539  0.5398
  149SAPE   C3116427   2.942   2.280   7.010  0.3415  0.0970 -0.9505
  149SAPE   O3216428   3.012   2.331   6.923 -0.2681 -0.1195 -0.5108
  149SAPE   C3216429   2.975   2.261   7.158  0.2436  0.1437 -1.1171
  149SAPE   H2X16430   2.990   2.151   7.168  3.8219  0.6706  0.8673
  149SAPE   H2Y16431   2.889   2.304   7.213  0.1567 -0.2063 -0.9775
  149SAPE   C2316432   2.782   1.802   7.000 -0.9150 -0.0123 -0.0569
  149SAPE   H3R16433   2.749   1.696   6.994  0.9844 -0.6107 -1.0563
  149SAPE   H3S16434   2.697   1.869   6.976 -2.6695 -2.1625 -0.0580
  149SAPE   C2416435   2.842   1.817   7.136 -0.4270 -0.3985 -0.3138
  149SAPE   H4R16436   2.902   1.910   7.134 -0.9016 -0.0967 -1.2391
  149SAPE   H4S16437   2.922   1.745   7.163 -0.9397 -0.3388  1.5155
  149SAPE   C2516438   2.739   1.818   7.247  0.1107  0.4451 -0.5299
  149SAPE   H5R16439   2.647   1.761   7.227  0.7093 -1.2070  1.0831
  149SAPE   C2616440   2.754   1.890   7.362  0.3486  1.0388 -0.8073
  149SAPE   H6R16441   2.668   1.877   7.430 -1.3280 -0.4399 -3.0788
  149SAPE   C2716442   2.866   1.985   7.408 -0.0721 -0.0429 -0.1273
  149SAPE   H7R16443   2.839   2.059   7.486  0.6247  0.0451  0.0383
  149SAPE   H7S16444   2.906   2.029   7.315 -0.4888  1.6186  0.4502
  149SAPE   C2816445   3.000   1.921   7.462 -0.0415  0.6956 -0.1721
  149SAPE   H8R16446   3.089   1.931   7.398  1.2294 -1.8941  1.0248
  149SAPE   C2916447   3.013   1.850   7.582  0.2718 -0.5373 -0.0006
  149SAPE   H9R16448   3.117   1.843   7.619 -0.1972  1.4965  1.8923
  149SAPE  C21016449   2.906   1.820   7.681  0.0398  0.5451  0.2876
  149SAPE  H10R16450   2.946   1.737   7.743  1.2976  1.2244  0.4355
  149SAPE  H10S16451   2.806   1.797   7.638 -0.1835  0.7957  0.6717
  149SAPE  C21116452   2.882   1.936   7.768  0.5615  0.5140  0.1604
  149SAPE  H11R16453   2.835   2.021   7.716 -0.8266  0.0760  0.6573
  149SAPE  C21216454   2.906   1.950   7.902  0.1095 -0.3120 -0.1174
  149SAPE  H12R16455   2.886   2.042   7.959  0.4480 -1.5912  2.1743
  149SAPE  C21316456   2.969   1.832   7.988  1.3477 -0.0185 -0.4123
  149SAPE  H13R16457   3.068   1.873   8.017  0.1875  1.3551  1.9444
  149SAPE  H13S16458   2.979   1.731   7.943 -0.3819 -0.1066 -0.6872
  149SAPE  C21416459   2.878   1.825   8.103  0.1736  0.2085 -0.0695
  149SAPE  H14R16460   2.772   1.804   8.083 -0.3296  2.2429  0.2069
  149SAPE  C21516461   2.917   1.856   8.232  0.3306 -0.0644  0.1256
  149SAPE  H15R16462   2.839   1.849   8.309 -0.6519  2.5779 -0.5275
  149SAPE  C21616463   3.048   1.889   8.292 -0.0509  0.3230 -0.2306
  149SAPE  H16R16464   3.066   1.997   8.272  0.9649  0.2214  0.0566
  149SAPE  H16S16465   3.121   1.838   8.225 -0.9539 -1.1144 -0.1558
  149SAPE  C21716466   3.060   1.849   8.434  0.4168  0.5905 -0.2933
  149SAPE  H17R16467   3.167   1.854   8.464 -0.2711 -1.5373  3.0303
  149SAPE  H17S16468   3.041   1.741   8.446 -1.0501  0.6277 -1.8881
  149SAPE  C21816469   2.982   1.940   8.532  0.6594 -0.0467 -0.2147
  149SAPE  H18R16470   2.881   1.895   8.533  1.3113 -1.5367  0.6958
  149SAPE  H18S16471   2.974   2.044   8.494 -1.4450  0.4448  1.3674
  149SAPE  C21916472   3.052   1.947   8.669  0.7167  0.8839  0.1625
  149SAPE  H19R16473   2.997   2.016   8.737 -0.2391 -0.7430  1.0918
  149SAPE  H19S16474   3.154   1.988   8.655  0.9611  0.1256 -0.3180
  149SAPE  C22016475   3.056   1.810   8.745  0.1931 -0.0056  0.3983
  149SAPE  H20R16476   3.105   1.729   8.686 -2.1154 -0.8040 -0.5512
  149SAPE  H20S16477   2.957   1.773   8.779 -0.5891  1.6819  0.0556
  149SAPE  H20T16478   3.122   1.819   8.834  1.3784  0.8049 -0.5239
  149SAPE   C3316479   3.106   2.326   7.202 -0.4784 -0.6456 -0.6370
  149SAPE   H3X16480   3.077   2.433   7.213 -0.5641 -0.6677 -0.6532
  149SAPE   H3Y16481   3.176   2.318   7.116 -0.2627 -0.7431 -0.4558
  149SAPE   C3416482   3.165   2.292   7.345  0.4184 -0.0004  0.0677
  149SAPE   H4X16483   3.248   2.358   7.376 -0.1779  0.5885  0.4386
  149SAPE   H4Y16484   3.195   2.185   7.340 -0.0956 -0.1268 -0.5108
  149SAPE   C3516485   3.060   2.312   7.453 -0.0771  0.0662  0.4907
  149SAPE   H5X16486   2.966   2.257   7.428  0.4729 -0.8645  0.4162
  149SAPE   H5Y16487   3.031   2.419   7.457 -1.4900 -0.3074  0.9853
  149SAPE   C3616488   3.125   2.247   7.578 -0.0278  0.0159  0.1562
  149SAPE   H6X16489   3.222   2.294   7.604  0.0759 -1.3086  2.5483
  149SAPE   H6Y16490   3.132   2.136   7.578  0.9390  0.0150  2.2877
  149SAPE   C3716491   3.023   2.262   7.697  0.6869 -0.4197  0.3859
  149SAPE   H7X16492   3.021   2.171   7.761 -0.3109 -1.4522 -1.0178
  149SAPE   H7Y16493   2.927   2.251   7.641  0.4263  0.1879  0.7097
  149SAPE   C3816494   3.029   2.394   7.768  0.5624 -0.0776 -0.1938
  149SAPE   H8X16495   3.055   2.481   7.704 -0.7463 -0.4484 -1.2625
  149SAPE   H8Y16496   3.118   2.386   7.834  1.7872  0.0303 -1.7770
  149SAPE   C3916497   2.907   2.425   7.842 -0.0751  0.8741 -0.0371
  149SAPE   H9X16498   2.869   2.337   7.900 -0.3315  1.3485  0.5330
  149SAPE   H9Y16499   2.829   2.463   7.772  0.8234 -1.0741 -2.2298
  149SAPE  C31016500   2.926   2.535   7.943 -0.5439 -0.3664 -0.4689
  149SAPE  H10X16501   2.828   2.570   7.981  0.1837  3.2780 -1.5820
  149SAPE  H10Y16502   2.973   2.627   7.902 -0.0429 -0.4136 -0.0120
  149SAPE  C31116503   3.024   2.498   8.052  0.3413 -0.0797  0.1213
  149SAPE  H11X16504   3.129   2.493   8.016 -0.2259 -0.5310 -1.5686
  149SAPE  H11Y16505   2.986   2.399   8.085 -0.2786  0.2555  0.4160
  149SAPE  C31216506   3.020   2.592   8.176 -0.1594 -0.1982  0.4456
  149SAPE  H12X16507   2.937   2.572   8.247 -0.5920  3.9334  1.3844
  149SAPE  H12Y16508   3.003   2.698   8.146  0.2373 -0.3138 -0.2241
  149SAPE  C31316509   3.139   2.569   8.274 -0.0403  0.0035  0.3044
  149SAPE  H13X16510   3.115   2.623   8.367 -0.2654 -1.2082  0.9723
  149SAPE  H13Y16511   3.229   2.618   8.230 -0.4650 -0.3898 -1.0605
  149SAPE  C31416512   3.167   2.422   8.292 -0.1265 -0.3903  0.7201
  149SAPE  H14X16513   3.190   2.380   8.191 -5.3223 -0.1065 -0.8931
  149SAPE  H14Y16514   3.077   2.370   8.329 -1.1470  1.1422  0.4839
  149SAPE  C31516515   3.261   2.381   8.400  0.0945 -0.4513 -0.2164
  149SAPE  H15X16516   3.217   2.395   8.501  1.1346 -0.8723  0.3110
  149SAPE  H15Y16517   3.352   2.442   8.385  0.0011 -0.5067 -1.0583
  149SAPE  C31616518   3.301   2.231   8.385  0.2063 -0.4426 -0.4194
  149SAPE  H16X16519   3.331   2.225   8.278 -0.6484 -0.4481 -0.6642
  149SAPE  H16Y16520   3.203   2.181   8.398 -0.9498  1.8882  0.3494
  149SAPE  C31716521   3.407   2.185   8.479  0.5457 -0.8941 -0.1330
  149SAPE  H17X16522   3.501   2.236   8.451  0.0654 -0.8806 -1.8672
  149SAPE  H17Y16523   3.432   2.077   8.474  0.7105 -0.8653  0.0555
  149SAPE  C31816524   3.378   2.225   8.623 -0.2322  0.0522  0.0120
  149SAPE  H18X16525   3.269   2.215   8.642 -0.2513  1.0019  0.4415
  149SAPE  H18Y16526   3.408   2.329   8.648 -0.3183 -0.0554  0.5779
  149SAPE  H18Z16527   3.427   2.153   8.692 -0.5695  0.5859  0.8279
  150SAPE     N16528   1.305   2.501   5.884 -0.3842  0.1037 -0.3185
  150SAPE   HN116529   1.300   2.542   5.789 -0.4553 -0.7363 -0.6912
  150SAPE   HN216530   1.267   2.563   5.959 -0.2290  0.3460 -0.4422
  150SAPE   HN316531   1.405   2.495   5.911  0.0194  2.6099 -1.0447
  150SAPE   C1216532   1.240   2.361   5.905  0.0840 -0.3171 -0.4371
  150SAPE  H12A16533   1.265   2.289   5.824  1.8944  2.2346 -2.2960
  150SAPE  H12B16534   1.130   2.375   5.903 -0.0418 -0.8590  1.1938
  150SAPE   C1116535   1.278   2.304   6.041 -0.2091 -0.4444  0.7253
  150SAPE  H11A16536   1.388   2.310   6.040 -0.2056  0.3451  2.4530
  150SAPE  H11B16537   1.249   2.197   6.051 -0.1221 -0.4242  1.1917
  150SAPE     P16538   1.094   2.364   6.231  0.1451  0.1486  0.2002
  150SAPE   O1316539   1.056   2.496   6.287  0.4880  0.0728 -0.1870
  150SAPE   O1416540   1.001   2.294   6.143 -0.0819 -0.1761  0.2001
  150SAPE   O1216541   1.227   2.382   6.147  0.3332 -0.0914  0.3631
  150SAPE   O1116542   1.136   2.267   6.343 -0.3788 -0.5958  0.5377
  150SAPE    C116543   1.275   2.255   6.391  0.3380 -0.1582  0.6852
  150SAPE    HA16544   1.319   2.160   6.352  0.5889 -1.0599  2.9870
  150SAPE    HB16545   1.331   2.343   6.355 -1.1145  1.0409  1.2510
  150SAPE    C216546   1.279   2.261   6.549 -0.4584  1.2536 -0.0192
  150SAPE    HS16547   1.384   2.266   6.583  0.1863  0.6673 -1.7848
  150SAPE   O2116548   1.211   2.150   6.615  0.7967 -0.0761  0.2840
  150SAPE   C2116549   1.280   2.036   6.621 -0.3776  0.5541  0.4869
  150SAPE   O2216550   1.398   2.019   6.586  0.4635  0.0920  0.0017
  150SAPE   C2216551   1.192   1.931   6.683  0.4875 -0.1793  0.5155
  150SAPE   H2R16552   1.096   1.937   6.628  2.1474  0.5574 -2.4945
  150SAPE   H2S16553   1.238   1.833   6.658 -0.2463 -0.7727  1.4168
  150SAPE    C316554   1.213   2.386   6.593  0.3578  0.2977  0.3996
  150SAPE    HX16555   1.102   2.379   6.586  0.4355 -0.7865  0.1269
  150SAPE    HY16556   1.249   2.468   6.527  1.8151 -0.6940 -0.0771
  150SAPE   O3116557   1.236   2.417   6.734 -0.3284 -0.3894  0.3601
  150SAPE   C3116558   1.213   2.538   6.766  0.4334 -0.5871  0.2785
  150SAPE   O3216559   1.150   2.615   6.686 -0.5752  0.1109 -0.2975
  150SAPE   C3216560   1.291   2.578   6.894 -0.2551  0.2013 -0.2386
  150SAPE   H2X16561   1.322   2.684   6.878 -2.6969  0.8276 -1.3505
  150SAPE   H2Y16562   1.377   2.508   6.901  1.4967  2.0278 -2.1393
  150SAPE   C2316563   1.193   1.956   6.833 -0.3850  0.5322  0.1913
  150SAPE   H3R16564   1.173   2.062   6.859  0.9706  0.8961 -0.1634
  150SAPE   H3S16565   1.285   1.913   6.879 -0.4409 -0.3445 -0.4913
  150SAPE   C2416566   1.079   1.882   6.907 -0.2722  0.4437  0.2479
  150SAPE   H4R16567   0.986   1.917   6.856 -0.8317 -1.6394 -0.2785
  150SAPE   H4S16568   1.076   1.925   7.009  1.4693  0.5431  0.2734
  150SAPE   C2516569   1.102   1.738   6.899  0.1414 -1.0542 -0.4134
  150SAPE   H5R16570   1.099   1.693   6.799 -1.2450  2.4861 -2.1278
  150SAPE   C2616571   1.135   1.657   7.002 -0.3996  0.4139 -0.1235
  150SAPE   H6R16572   1.143   1.549   6.985  1.3529  0.3436  0.9084
  150SAPE   C2716573   1.130   1.704   7.144  0.2509 -0.4510  0.0410
  150SAPE   H7R16574   1.121   1.620   7.217  1.0457  0.5260  1.3096
  150SAPE   H7S16575   1.037   1.763   7.157  1.4308  1.4408  0.3512
  150SAPE   C2816576   1.247   1.787   7.185  0.5100 -0.0875  0.7365
  150SAPE   H8R16577   1.341   1.746   7.146  1.0026  2.0329 -0.4783
  150SAPE   C2916578   1.248   1.906   7.246 -0.1376 -0.3965 -0.3700
  150SAPE   H9R16579   1.344   1.949   7.278  1.2656 -0.5589 -3.8854
  150SAPE  C21016580   1.125   1.975   7.298  0.1383  0.3517  0.8727
  150SAPE  H10R16581   1.031   1.932   7.257 -0.1098 -0.8356  2.5444
  150SAPE  H10S16582   1.131   2.074   7.249  0.2091 -0.1507 -0.1469
  150SAPE  C21116583   1.108   2.001   7.448 -0.8272  0.6936 -0.0843
  150SAPE  H11R16584   1.066   1.924   7.515 -0.4706 -0.5707 -1.2649
  150SAPE  C21216585   1.168   2.098   7.516 -0.0419  0.0341  0.1865
  150SAPE  H12R16586   1.158   2.102   7.625  0.2741  0.0618  0.2142
  150SAPE  C21316587   1.254   2.214   7.461 -0.5732 -0.6642  0.0578
  150SAPE  H13R16588   1.185   2.301   7.467  0.0591 -0.2418  2.1669
  150SAPE  H13S16589   1.263   2.210   7.350 -1.0498  1.8007 -0.1372
  150SAPE  C21416590   1.390   2.232   7.538 -0.8078 -0.2909  0.1440
  150SAPE  H14R16591   1.391   2.217   7.647  0.8510  0.0678  0.1957
  150SAPE  C21516592   1.509   2.264   7.487  0.3171 -0.0012 -0.2877
  150SAPE  H15R16593   1.597   2.266   7.554 -0.6296  0.0471  0.9855
  150SAPE  C21616594   1.525   2.303   7.347 -0.1477 -0.1000  0.3347
  150SAPE  H16R16595   1.604   2.381   7.348  0.0635 -0.1629 -2.5844
  150SAPE  H16S16596   1.431   2.346   7.308 -0.2559 -0.7140 -0.0993
  150SAPE  C21716597   1.577   2.179   7.263 -0.5079 -0.8539 -0.2718
  150SAPE  H17R16598   1.508   2.096   7.288  2.1743 -2.3558  2.9279
  150SAPE  H17S16599   1.674   2.143   7.303 -0.6146 -1.0346 -0.1770
  150SAPE  C21816600   1.574   2.198   7.114  0.7421  0.2157  0.1474
  150SAPE  H18R16601   1.638   2.121   7.065  1.1550  0.8946 -0.3885
  150SAPE  H18S16602   1.627   2.294   7.101  0.7091  0.1612 -0.4261
  150SAPE  C21916603   1.431   2.213   7.062 -0.5362  0.0299 -0.2612
  150SAPE  H19R16604   1.398   2.315   7.092  0.0999  0.0446  0.4187
  150SAPE  H19S16605   1.360   2.143   7.112  1.1069  0.0305  2.2590
  150SAPE  C22016606   1.435   2.201   6.915 -0.6793  0.7116  0.1452
  150SAPE  H20R16607   1.511   2.261   6.861  0.7409 -1.1291  0.0019
  150SAPE  H20S16608   1.331   2.207   6.876  0.0230  0.7363 -1.8444
  150SAPE  H20T16609   1.464   2.096   6.891  2.6939  1.0369  2.1736
  150SAPE   C3316610   1.208   2.576   7.029  0.0405  0.0392 -0.6244
  150SAPE   H3X16611   1.176   2.471   7.039  1.1743 -0.2482  0.2440
  150SAPE   H3Y16612   1.129   2.654   7.019 -0.5726 -0.6279 -1.0504
  150SAPE   C3416613   1.300   2.600   7.153  0.0928 -0.2610  0.2054
  150SAPE   H4X16614   1.346   2.702   7.153 -3.1264  1.3160  0.8388
  150SAPE   H4Y16615   1.375   2.519   7.163 -1.5926 -1.9507 -0.2793
  150SAPE   C3516616   1.229   2.599   7.290  0.2714 -0.2116  0.1924
  150SAPE   H5X16617   1.189   2.496   7.306  0.3573 -0.6698 -2.1736
  150SAPE   H5Y16618   1.143   2.669   7.279  1.4861  1.4906  1.1210
  150SAPE   C3616619   1.323   2.643   7.401 -0.3594  0.5689 -0.4005
  150SAPE   H6X16620   1.338   2.752   7.385 -0.1739  0.1127 -4.4157
  150SAPE   H6Y16621   1.416   2.584   7.396 -0.0519  0.9809  0.2955
  150SAPE   C3716622   1.268   2.623   7.544  0.0267 -0.2645  0.0744
  150SAPE   H7X16623   1.246   2.517   7.571  0.2018 -0.0122  1.2592
  150SAPE   H7Y16624   1.170   2.673   7.534  0.4186  0.1096 -2.9652
  150SAPE   C3816625   1.349   2.688   7.652 -0.2048  0.2523 -0.2938
  150SAPE   H8X16626   1.360   2.796   7.629 -1.3346  0.1959 -1.2045
  150SAPE   H8Y16627   1.447   2.640   7.672  0.3690  1.0959 -1.0388
  150SAPE   C3916628   1.276   2.669   7.788  0.2959 -0.7540  0.1300
  150SAPE   H9X16629   1.297   2.563   7.813 -1.5300 -1.2201 -0.1584
  150SAPE   H9Y16630   1.166   2.677   7.774  0.3386  0.1482  0.2440
  150SAPE  C31016631   1.311   2.766   7.901 -0.7403 -0.1552 -0.3234
  150SAPE  H10X16632   1.270   2.865   7.872 -3.1199 -0.8347  0.5068
  150SAPE  H10Y16633   1.421   2.782   7.909 -1.1068  1.8299  1.9378
  150SAPE  C31116634   1.240   2.726   8.029  0.0046 -0.4197 -0.1127
  150SAPE  H11X16635   1.309   2.769   8.105  0.4093 -1.6113  0.2208
  150SAPE  H11Y16636   1.248   2.617   8.048 -0.1427 -0.1161  1.9789
  150SAPE  C31216637   1.099   2.769   8.055  0.9364 -0.3051  0.3087
  150SAPE  H12X16638   1.046   2.711   7.977  3.8308  0.1922 -2.2468
  150SAPE  H12Y16639   1.083   2.878   8.041  0.7342 -0.2178  1.1873
  150SAPE  C31316640   1.045   2.726   8.193 -1.3659 -0.4664  0.1263
  150SAPE  H13X16641   0.942   2.768   8.191 -1.6026 -1.0760 -1.4683
  150SAPE  H13Y16642   1.102   2.788   8.266 -2.4757  0.4149  0.2839
  150SAPE  C31416643   1.044   2.580   8.212  0.2715  0.4188  0.1686
  150SAPE  H14X16644   1.146   2.541   8.234 -0.4315 -1.2492  0.6510
  150SAPE  H14Y16645   1.015   2.542   8.112 -1.0045  0.0860  0.6493
  150SAPE  C31516646   0.948   2.536   8.326 -0.3714  0.1033 -0.5398
  150SAPE  H15X16647   0.844   2.575   8.315 -0.2480  0.4218 -0.5808
  150SAPE  H15Y16648   0.991   2.597   8.409  1.5697  2.5535 -3.1613
  150SAPE  C31616649   0.944   2.386   8.346 -0.4952 -0.8474  0.0799
  150SAPE  H16X16650   1.036   2.361   8.403  0.0603 -0.2998 -0.5677
  150SAPE  H16Y16651   0.938   2.333   8.249 -1.9323  0.8262 -0.8053
  150SAPE  C31716652   0.821   2.344   8.426 -0.4571 -0.0847 -0.4332
  150SAPE  H17X16653   0.729   2.341   8.364 -1.2129 -0.8656  0.6976
  150SAPE  H17Y16654   0.805   2.429   8.496  0.7913 -0.5486  0.4414
  150SAPE  C31816655   0.846   2.222   8.505 -0.5280  0.7980 -0.2211
  150SAPE  H18X16656   0.854   2.134   8.437  0.7375 -0.0393  0.9489
  150SAPE  H18Y16657   0.759   2.201   8.572  1.3938 -2.6883  1.5152
  150SAPE  H18Z16658   0.939   2.231   8.565 -0.4221  0.8054 -0.3872
  151SAPE     N16659   5.205   1.084   6.152  0.7614 -0.1009  0.2018
  151SAPE   HN116660   5.230   1.143   6.233 -1.0313  0.5232  0.3548
  151SAPE   HN216661   5.182   1.159   6.084  2.2909 -0.8483 -1.2071
  151SAPE   HN316662   5.115   1.040   6.179  0.2855 -1.5586 -3.1536
  151SAPE   C1216663   5.291   0.976   6.105 -0.2621  0.3233 -0.0219
  151SAPE  H12A16664   5.373   0.958   6.178  0.4493 -1.5183 -1.2120
  151SAPE  H12B16665   5.332   1.012   6.009 -0.3419 -0.0475 -0.1956
  151SAPE   C1116666   5.225   0.838   6.109 -0.9377 -0.5064 -0.2627
  151SAPE  H11A16667   5.290   0.763   6.061  0.4862  1.1839 -1.1064
  151SAPE  H11B16668   5.132   0.844   6.048 -0.6728 -0.4212 -0.6614
  151SAPE     P16669   5.220   0.668   6.313  0.8304 -0.0574 -0.5089
  151SAPE   O1316670   5.101   0.578   6.295  0.1071 -0.8490  0.2505
  151SAPE   O1416671   5.355   0.603   6.287  0.0188 -0.2511 -0.0573
  151SAPE   O1216672   5.198   0.807   6.247 -0.8988 -0.9341  0.3000
  151SAPE   O1116673   5.220   0.712   6.459 -0.2024  0.0007 -0.4681
  151SAPE    C116674   5.267   0.838   6.504  0.0274  0.1928 -0.4948
  151SAPE    HA16675   5.373   0.828   6.536  0.3671 -0.1467 -1.6955
  151SAPE    HB16676   5.268   0.925   6.435  1.2257  1.0640  0.5558
  151SAPE    C216677   5.197   0.884   6.642  0.0278  1.0566  0.2310
  151SAPE    HS16678   5.252   0.976   6.672  2.2423 -0.1091 -0.0596
  151SAPE   O2116679   5.207   0.782   6.744  0.0642 -0.3357  0.3909
  151SAPE   C2116680   5.329   0.764   6.787  0.0443 -0.4541  1.0722
  151SAPE   O2216681   5.432   0.829   6.754  0.1355  0.5416  0.7417
  151SAPE   C2216682   5.326   0.662   6.902 -0.5697 -0.6005  0.5403
  151SAPE   H2R16683   5.233   0.601   6.897 -0.4113 -0.7078 -2.4063
  151SAPE   H2S16684   5.414   0.596   6.889 -1.6737 -1.9173 -0.5802
  151SAPE    C316685   5.053   0.920   6.606 -0.0140 -0.5280  0.0169
  151SAPE    HX16686   5.013   0.870   6.515  2.0377 -0.1037 -1.1830
  151SAPE    HY16687   5.064   1.022   6.565 -0.7705 -0.6702 -0.5713
  151SAPE   O3116688   4.955   0.925   6.720 -0.1948 -0.1767  0.3004
  151SAPE   C3116689   4.912   0.810   6.746 -0.1016  0.4291 -0.0708
  151SAPE   O3216690   4.921   0.715   6.670 -1.0135 -0.1197  0.4284
  151SAPE   C3216691   4.849   0.801   6.884 -0.4200  0.2002  0.2988
  151SAPE   H2X16692   4.745   0.767   6.864 -0.3300  0.3450 -0.4398
  151SAPE   H2Y16693   4.839   0.900   6.933  0.5658 -0.2463  1.4713
  151SAPE   C2316694   5.329   0.734   7.036 -0.8209  0.2465  0.1491
  151SAPE   H3R16695   5.233   0.787   7.054 -1.2101 -0.5916  0.6110
  151SAPE   H3S16696   5.400   0.819   7.031 -2.6538  1.8575  0.7559
  151SAPE   C2416697   5.350   0.636   7.156  0.3403  0.2523  0.4535
  151SAPE   H4R16698   5.354   0.691   7.252 -0.3931  0.7890  0.1854
  151SAPE   H4S16699   5.449   0.590   7.133  0.8701  2.0515 -1.1385
  151SAPE   C2516700   5.236   0.532   7.160 -0.9153 -0.5462  0.8051
  151SAPE   H5R16701   5.208   0.488   7.063 -2.4927  1.2900  0.3647
  151SAPE   C2616702   5.167   0.497   7.269  0.6743  0.3246  0.0780
  151SAPE   H6R16703   5.095   0.414   7.261 -1.0417  1.7743 -0.0094
  151SAPE   C2716704   5.198   0.541   7.404 -0.7360 -0.0928 -0.1187
  151SAPE   H7R16705   5.304   0.517   7.429 -0.9937  0.0830  1.2096
  151SAPE   H7S16706   5.146   0.473   7.475 -0.4573  1.4755  1.6748
  151SAPE   C2816707   5.155   0.680   7.437 -0.0477  0.6575 -0.4918
  151SAPE   H8R16708   5.151   0.757   7.358  1.0421  1.3173  0.0745
  151SAPE   C2916709   5.143   0.731   7.561  0.0420 -0.4932 -0.0561
  151SAPE   H9R16710   5.101   0.832   7.561 -0.4120 -0.6644 -1.0732
  151SAPE  C21016711   5.163   0.657   7.687 -0.3142  0.2923 -0.2733
  151SAPE  H10R16712   5.266   0.671   7.726 -0.4541  4.5827 -0.9463
  151SAPE  H10S16713   5.141   0.551   7.663 -1.5748  0.1534  1.3475
  151SAPE  C21116714   5.065   0.680   7.799  0.0647  0.5245  0.3499
  151SAPE  H11R16715   4.992   0.757   7.770  2.4701  3.5870  1.8070
  151SAPE  C21216716   5.054   0.607   7.914  0.2506  0.0216  0.7543
  151SAPE  H12R16717   4.975   0.640   7.982  0.5114  2.7631 -0.1544
  151SAPE  C21316718   5.139   0.491   7.953  0.6887 -0.4212  0.1699
  151SAPE  H13R16719   5.200   0.533   8.035  0.4474  1.0195 -0.3637
  151SAPE  H13S16720   5.200   0.453   7.868  1.8504  2.2777 -0.3148
  151SAPE  C21416721   5.046   0.379   8.002 -0.7092 -0.3819  0.2050
  151SAPE  H14R16722   4.956   0.361   7.941  0.1086 -2.3680 -0.4946
  151SAPE  C21516723   5.038   0.319   8.125  0.0229  0.9238 -0.0291
  151SAPE  H15R16724   4.955   0.249   8.145  0.5725  0.3237  0.2154
  151SAPE  C21616725   5.133   0.342   8.242  0.5401 -0.0080 -0.3046
  151SAPE  H16R16726   5.230   0.379   8.203  1.1080  1.2534  2.1155
  151SAPE  H16S16727   5.161   0.242   8.282 -2.0060 -1.6816 -2.3485
  151SAPE  C21716728   5.086   0.447   8.348  0.3184  0.2096  0.1164
  151SAPE  H17R16729   5.053   0.534   8.288  0.5575 -0.6214 -1.2512
  151SAPE  H17S16730   5.167   0.489   8.411  2.0202 -0.2937 -1.6398
  151SAPE  C21816731   4.962   0.402   8.430  0.2551 -0.2308  0.9575
  151SAPE  H18R16732   4.888   0.364   8.356  0.4802  1.0591  0.0471
  151SAPE  H18S16733   4.908   0.488   8.475 -0.2352  0.7502 -1.3516
  151SAPE  C21916734   4.990   0.290   8.525 -0.5050 -0.1575  0.3968
  151SAPE  H19R16735   5.056   0.328   8.606 -1.0772 -1.8621  1.7136
  151SAPE  H19S16736   5.043   0.210   8.470 -1.3602  0.1996 -1.0012
  151SAPE  C22016737   4.878   0.225   8.600  0.9031 -0.7694 -0.3377
  151SAPE  H20R16738   4.914   0.142   8.665  1.5848 -0.4167 -0.2510
  151SAPE  H20S16739   4.831   0.294   8.673  2.1808 -2.3187  2.0953
  151SAPE  H20T16740   4.797   0.190   8.533 -0.2446  0.6153  0.2745
  151SAPE   C3316741   4.919   0.705   6.980  0.4659  0.0712 -0.0298
  151SAPE   H3X16742   5.022   0.741   7.005  2.1056 -1.9121 -3.2894
  151SAPE   H3Y16743   4.932   0.613   6.919  3.4710  0.2061  0.2427
  151SAPE   C3416744   4.853   0.662   7.115  0.2880  0.2692  0.0651
  151SAPE   H4X16745   4.907   0.570   7.145  0.4472 -0.1958 -1.5417
  151SAPE   H4Y16746   4.747   0.640   7.094 -0.2202  2.3726  0.1532
  151SAPE   C3516747   4.855   0.776   7.214  0.3503  0.0347  0.4153
  151SAPE   H5X16748   4.807   0.867   7.171  0.3350  0.8245  2.0498
  151SAPE   H5Y16749   4.958   0.816   7.223 -0.2581  1.2497  2.6745
  151SAPE   C3616750   4.800   0.740   7.350  0.0335 -0.1126  0.2649
  151SAPE   H6X16751   4.852   0.655   7.399 -0.0121 -0.1885  0.1820
  151SAPE   H6Y16752   4.703   0.694   7.320  0.4548 -1.5961  1.0856
  151SAPE   C3716753   4.786   0.857   7.442 -0.1878  0.3377  0.0621
  151SAPE   H7X16754   4.718   0.932   7.396 -0.1671  0.3917  0.1208
  151SAPE   H7Y16755   4.882   0.903   7.473 -0.0841 -0.1970  0.5535
  151SAPE   C3816756   4.743   0.809   7.577 -0.0013 -0.5928 -0.2314
  151SAPE   H8X16757   4.818   0.735   7.612 -0.2990 -0.1228  1.4742
  151SAPE   H8Y16758   4.646   0.754   7.580  0.0801 -0.7068  0.6025
  151SAPE   C3916759   4.718   0.926   7.677  0.2887 -0.8221 -0.2507
  151SAPE   H9X16760   4.620   0.897   7.721  0.2428  1.7738  1.5929
  151SAPE   H9Y16761   4.708   1.021   7.620 -0.4029 -1.3121 -0.9820
  151SAPE  C31016762   4.824   0.939   7.783 -0.0443  0.1017 -0.2593
  151SAPE  H10X16763   4.923   0.953   7.734 -0.1695  2.1820 -0.0378
  151SAPE  H10Y16764   4.816   0.843   7.837 -0.2106  0.8275  1.0486
  151SAPE  C31116765   4.800   1.051   7.881 -0.6094 -0.2396 -0.2477
  151SAPE  H11X16766   4.717   1.016   7.946 -1.6457  0.9863 -0.8587
  151SAPE  H11Y16767   4.772   1.142   7.824  1.9872  0.3263 -0.7443
  151SAPE  C31216768   4.918   1.094   7.974 -0.5948 -0.3049 -0.6633
  151SAPE  H12X16769   5.012   1.127   7.925  0.7426 -0.7028  1.5154
  151SAPE  H12Y16770   4.934   1.007   8.042 -0.8393 -2.4227 -3.1475
  151SAPE  C31316771   4.890   1.224   8.056 -0.3920  0.0895 -0.3939
  151SAPE  H13X16772   4.880   1.307   7.983  0.1299  1.9855  1.5686
  151SAPE  H13Y16773   4.982   1.255   8.110 -0.8033 -0.4320  0.6456
  151SAPE  C31416774   4.767   1.214   8.156 -0.2540  0.2024  0.3310
  151SAPE  H14X16775   4.775   1.139   8.237 -0.9311 -2.0014 -1.5306
  151SAPE  H14Y16776   4.679   1.176   8.100  0.5138  0.5268 -1.1595
  151SAPE  C31516777   4.718   1.355   8.192 -0.1626  0.3088  0.5390
  151SAPE  H15X16778   4.689   1.398   8.094  1.4247  1.1843  0.4195
  151SAPE  H15Y16779   4.798   1.422   8.230  0.3241 -0.0292  0.1192
  151SAPE  C31616780   4.607   1.356   8.292  0.5179 -0.2433  0.1884
  151SAPE  H16X16781   4.513   1.314   8.251 -0.2229  1.2087  0.3090
  151SAPE  H16Y16782   4.586   1.465   8.306 -0.5661 -0.5056  0.7389
  151SAPE  C31716783   4.629   1.294   8.436 -0.4226 -0.5447 -0.0552
  151SAPE  H17X16784   4.643   1.185   8.424  0.0198 -0.4350 -0.5545
  151SAPE  H17Y16785   4.533   1.308   8.492 -0.1818  2.2187 -0.1524
  151SAPE  C31816786   4.749   1.362   8.517  0.1388  0.3133 -0.1656
  151SAPE  H18X16787   4.781   1.295   8.599 -0.2835  2.4712  1.8718
  151SAPE  H18Y16788   4.708   1.455   8.562 -2.0016 -0.8116  0.3186
  151SAPE  H18Z16789   4.828   1.394   8.444  1.2695 -0.2791  0.7761
  152SAPE     N16790   3.417   2.847   6.131  0.2971  0.3578  0.5581
  152SAPE   HN116791   3.448   2.768   6.190  0.3535  0.2762  0.4194
  152SAPE   HN216792   3.355   2.813   6.054  0.1704 -0.7274  1.1190
  152SAPE   HN316793   3.504   2.877   6.083  0.2602  1.2338  1.0177
  152SAPE   C1216794   3.366   2.970   6.206  0.0918  0.1259  0.0361
  152SAPE  H12A16795   3.334   3.046   6.131  2.3761 -0.0880 -1.2385
  152SAPE  H12B16796   3.459   3.007   6.254  0.8563 -0.9573 -0.6032
  152SAPE   C1116797   3.262   2.926   6.312 -0.1440  0.6270 -0.2561
  152SAPE  H11A16798   3.226   3.022   6.355  0.2556  0.7582 -0.2134
  152SAPE  H11B16799   3.305   2.866   6.395 -0.2124 -3.0067 -2.6182
  152SAPE     P16800   3.076   2.739   6.306 -0.4102  0.2111 -0.3459
  152SAPE   O1316801   2.959   2.708   6.220 -0.2704 -0.5739 -0.0062
  152SAPE   O1416802   3.169   2.625   6.332  0.0067 -0.5788 -0.0789
  152SAPE   O1216803   3.156   2.863   6.243 -0.2369  0.5632 -0.6397
  152SAPE   O1116804   3.033   2.803   6.444 -0.3869 -0.2171  0.5644
  152SAPE    C116805   2.912   2.885   6.439 -0.2875  0.5437  0.1630
  152SAPE    HA16806   2.838   2.872   6.357  0.1790  2.2172 -0.5783
  152SAPE    HB16807   2.854   2.864   6.531 -1.1736 -1.5970 -0.8210
  152SAPE    C216808   2.952   3.030   6.436  0.7978  0.2947  0.0717
  152SAPE    HS16809   3.003   3.052   6.340  1.1072  0.1785  0.2080
  152SAPE   O2116810   3.034   3.056   6.547 -0.1290  0.3618  0.5038
  152SAPE   C2116811   3.105   3.166   6.535 -0.4957  0.7302 -1.4108
  152SAPE   O2216812   3.110   3.233   6.438 -0.2969  0.0740 -0.1912
  152SAPE   C2216813   3.186   3.193   6.663  0.2915  1.0365  0.4288
  152SAPE   H2R16814   3.139   3.154   6.757 -1.1833 -0.5610 -0.9064
  152SAPE   H2S16815   3.277   3.135   6.637  0.2500  1.3920 -0.5130
  152SAPE    C316816   2.828   3.134   6.438 -0.0439 -0.5401 -0.2189
  152SAPE    HX16817   2.775   3.114   6.342 -0.4696 -0.6522  0.0349
  152SAPE    HY16818   2.870   3.237   6.440 -1.2081 -0.0248 -1.0474
  152SAPE   O3116819   2.739   3.103   6.544  0.0446 -0.5889  0.2096
  152SAPE   C3116820   2.760   3.175   6.652  0.5329  0.3196 -0.1886
  152SAPE   O3216821   2.838   3.263   6.674 -0.3062  0.5157 -0.4402
  152SAPE   C3216822   2.649   3.136   6.755 -0.7669  0.1397 -0.2979
  152SAPE   H2X16823   2.622   3.029   6.747  1.9249 -0.8669  2.2167
  152SAPE   H2Y16824   2.562   3.203   6.739  0.1777  1.4280 -0.1970
  152SAPE   C2316825   3.254   3.330   6.683 -0.2551  0.0667 -0.1339
  152SAPE   H3R16826   3.305   3.364   6.590 -1.6994 -0.8084 -1.2969
  152SAPE   H3S16827   3.333   3.315   6.758  0.5840  2.8621 -0.3616
  152SAPE   C2416828   3.173   3.446   6.728  0.5222  0.6344  1.0614
  152SAPE   H4R16829   3.086   3.454   6.659 -0.5374  0.5180  2.3539
  152SAPE   H4S16830   3.232   3.539   6.714  3.4305 -1.3836 -1.5038
  152SAPE   C2516831   3.111   3.440   6.858 -0.0227 -0.1553  0.1263
  152SAPE   H5R16832   3.014   3.388   6.859 -1.2695  2.0510 -0.8508
  152SAPE   C2616833   3.141   3.504   6.970  0.2834  0.4951  0.2521
  152SAPE   H6R16834   3.085   3.471   7.058  1.0195 -3.1403 -0.4836
  152SAPE   C2716835   3.259   3.596   6.975  0.2731 -0.1112  0.5570
  152SAPE   H7R16836   3.246   3.685   6.910  1.9781 -0.3789 -0.2028
  152SAPE   H7S16837   3.355   3.544   6.959  0.2373 -0.6682  2.0336
  152SAPE   C2816838   3.257   3.666   7.108 -0.3734  0.7286 -0.3040
  152SAPE   H8R16839   3.166   3.724   7.130 -1.1174 -1.7460  4.4819
  152SAPE   C2916840   3.358   3.665   7.197 -0.3007 -0.4404 -0.3588
  152SAPE   H9R16841   3.344   3.706   7.298  0.8754 -3.1590  1.0172
  152SAPE  C21016842   3.494   3.599   7.185 -0.3332 -0.3997 -0.5797
  152SAPE  H10R16843   3.575   3.675   7.182  0.3975 -1.1935 -1.5315
  152SAPE  H10S16844   3.514   3.556   7.085 -0.1293 -0.6261 -0.4449
  152SAPE  C21116845   3.512   3.493   7.289 -0.1204  0.0564 -0.2328
  152SAPE  H11R16846   3.492   3.388   7.266  0.0140  0.1156 -0.6300
  152SAPE  C21216847   3.534   3.526   7.415  0.0609  0.5811  0.8496
  152SAPE  H12R16848   3.529   3.441   7.484 -2.7214 -1.0757 -1.1831
  152SAPE  C21316849   3.558   3.659   7.478 -0.2546 -0.1925  0.0947
  152SAPE  H13R16850   3.536   3.736   7.401  1.2654  1.2514  1.0419
  152SAPE  H13S16851   3.668   3.673   7.479 -0.4038  2.3544 -2.6456
  152SAPE  C21416852   3.500   3.690   7.612 -0.0835 -1.0079 -0.1584
  152SAPE  H14R16853   3.397   3.728   7.605 -0.5616 -2.4891 -1.5931
  152SAPE  C21516854   3.562   3.668   7.725  0.0269  0.2125  0.3299
  152SAPE  H15R16855   3.516   3.673   7.825 -0.9962  0.6196 -0.1480
  152SAPE  C21616856   3.704   3.614   7.748  0.1593 -0.2723  0.4606
  152SAPE  H16R16857   3.773   3.675   7.809  0.1596 -1.7790  2.0438
  152SAPE  H16S16858   3.754   3.599   7.650 -0.1894 -0.8362  0.3656
  152SAPE  C21716859   3.683   3.465   7.789  0.1961 -0.4433 -0.3903
  152SAPE  H17R16860   3.646   3.408   7.701  1.3255 -0.2335 -1.0202
  152SAPE  H17S16861   3.612   3.450   7.873  2.6447  0.0325  1.8960
  152SAPE  C21816862   3.820   3.413   7.831  0.8894  0.3425  0.3401
  152SAPE  H18R16863   3.866   3.470   7.915  0.7792 -1.4173  1.6578
  152SAPE  H18S16864   3.880   3.422   7.737 -0.9672 -0.1028 -0.9392
  152SAPE  C21916865   3.818   3.274   7.894  0.3209  0.0566 -0.3245
  152SAPE  H19R16866   3.802   3.206   7.807  1.1970  0.4495 -0.8096
  152SAPE  H19S16867   3.742   3.273   7.975 -0.4185  1.1080 -0.9823
  152SAPE  C22016868   3.958   3.250   7.948  0.4448 -0.4940  0.1759
  152SAPE  H20R16869   3.973   3.315   8.036 -0.4786  1.6882 -1.2012
  152SAPE  H20S16870   4.030   3.264   7.864 -0.8134  0.9706 -0.7123
  152SAPE  H20T16871   3.977   3.150   7.993  0.8735 -0.5676 -0.1554
  152SAPE   C3316872   2.691   3.148   6.903  0.6559  0.0528 -0.5769
  152SAPE   H3X16873   2.730   3.252   6.916 -1.5948  0.7653  0.9371
  152SAPE   H3Y16874   2.779   3.084   6.923  0.8072  0.3768 -0.1825
  152SAPE   C3416875   2.566   3.129   6.997 -0.0438  0.0707  0.5534
  152SAPE   H4X16876   2.516   3.036   6.962 -0.2619  0.7702 -1.1137
  152SAPE   H4Y16877   2.488   3.206   6.980 -2.4227 -2.3110 -0.0059
  152SAPE   C3516878   2.598   3.110   7.145  0.5203  0.5465 -0.0173
  152SAPE   H5X16879   2.686   3.173   7.171  0.1849  0.2513  1.9813
  152SAPE   H5Y16880   2.629   3.004   7.156 -2.1636 -0.2496  0.7034
  152SAPE   C3616881   2.479   3.137   7.232 -0.5692 -0.1549 -0.8419
  152SAPE   H6X16882   2.391   3.082   7.192  0.3331 -1.5428 -1.0187
  152SAPE   H6Y16883   2.465   3.247   7.232 -0.5433 -0.1472 -0.1318
  152SAPE   C3716884   2.509   3.093   7.376  0.3348  0.7388 -0.2401
  152SAPE   H7X16885   2.609   3.128   7.410  0.8685 -0.1139 -0.8803
  152SAPE   H7Y16886   2.503   2.982   7.372 -0.0455  0.7721 -0.6934
  152SAPE   C3816887   2.393   3.138   7.469  0.5101  0.0807 -0.3275
  152SAPE   H8X16888   2.297   3.095   7.435 -0.5296  1.7090  0.3739
  152SAPE   H8Y16889   2.390   3.247   7.447  1.0251  0.4421  1.2066
  152SAPE   C3916890   2.420   3.094   7.614  0.4264 -0.1000 -0.3229
  152SAPE   H9X16891   2.493   3.164   7.660 -0.9263  1.2647 -0.1808
  152SAPE   H9Y16892   2.471   2.995   7.612  1.4981  0.4277 -0.1888
  152SAPE  C31016893   2.294   3.092   7.693  0.7270  0.2697 -0.3443
  152SAPE  H10X16894   2.310   3.016   7.772 -1.1491  1.4730  1.2902
  152SAPE  H10Y16895   2.208   3.059   7.631  0.7294 -2.4686  0.9923
  152SAPE  C31116896   2.272   3.221   7.767  0.0940  0.6487 -0.0956
  152SAPE  H11X16897   2.265   3.305   7.694  1.5373  1.1265  0.2747
  152SAPE  H11Y16898   2.361   3.239   7.832 -0.1576 -1.6548  0.9742
  152SAPE  C31216899   2.142   3.216   7.859  0.0643 -0.0872  0.5580
  152SAPE  H12X16900   2.063   3.156   7.810  0.1235  0.6527 -0.4809
  152SAPE  H12Y16901   2.105   3.320   7.873  0.0179 -0.0041 -0.1292
  152SAPE  C31316902   2.171   3.154   7.994  0.4872  0.5030 -0.2924
  152SAPE  H13X16903   2.259   3.211   8.029 -1.2371  1.7366  2.3686
  152SAPE  H13Y16904   2.201   3.047   7.987 -1.6610 -0.6487  4.2025
  152SAPE  C31416905   2.049   3.156   8.088  0.2258  0.0408 -0.1360
  152SAPE  H14X16906   1.957   3.118   8.038  0.4948  1.3936 -1.7681
  152SAPE  H14Y16907   2.030   3.260   8.120  2.1368  1.2305 -2.4429
  152SAPE  C31516908   2.077   3.062   8.204  0.2530  0.1608  0.0584
  152SAPE  H15X16909   2.162   3.094   8.268 -1.1597  2.1552  1.0935
  152SAPE  H15Y16910   2.109   2.962   8.169  0.3284  0.2854 -0.2320
  152SAPE  C31616911   1.965   3.023   8.301 -0.4195 -0.2156 -0.0266
  152SAPE  H16X16912   1.992   2.946   8.376 -3.4406  0.3005  1.7728
  152SAPE  H16Y16913   1.893   2.973   8.232  1.0132  1.6496 -3.0763
  152SAPE  C31716914   1.895   3.147   8.359 -0.1578  0.1535 -0.0042
  152SAPE  H17X16915   1.836   3.191   8.276  2.7922  2.4230 -1.0626
  152SAPE  H17Y16916   1.973   3.218   8.395  0.7327 -1.6012  1.6810
  152SAPE  C31816917   1.815   3.108   8.479  0.4775 -0.6649  0.2596
  152SAPE  H18X16918   1.758   3.200   8.504  1.8591  0.5601 -0.8962
  152SAPE  H18Y16919   1.873   3.068   8.564 -0.3686 -0.3115  1.0154
  152SAPE  H18Z16920   1.743   3.028   8.451  0.7720 -0.4067 -1.3587
  153SAPE     N16921   6.309   4.886   6.208  0.0788  0.0206 -0.1883
  153SAPE   HN116922   6.396   4.943   6.214  0.3500 -0.4903  0.9358
  153SAPE   HN216923   6.276   4.859   6.302  2.6821  0.2685  0.8880
  153SAPE   HN316924   6.343   4.801   6.158  0.2115 -0.8559  1.3371
  153SAPE   C1216925   6.207   4.974   6.134 -0.6993  0.7916  0.5613
  153SAPE  H12A16926   6.113   4.915   6.131  0.5266 -1.3098  1.1414
  153SAPE  H12B16927   6.242   4.982   6.028 -1.6635  0.0196  0.1684
  153SAPE   C1116928   6.193   5.118   6.204  0.2286  0.5018  0.2142
  153SAPE  H11A16929   6.153   5.097   6.305 -1.1640  1.8241 -0.0257
  153SAPE  H11B16930   6.108   5.167   6.154 -0.6600 -1.8033 -0.6856
  153SAPE     P16931   6.343   5.333   6.167  0.1297  0.2134 -0.0357
  153SAPE   O1316932   6.482   5.373   6.184 -0.0140  0.1397  0.0471
  153SAPE   O1416933   6.292   5.361   6.029  0.1450  0.4038  0.3934
  153SAPE   O1216934   6.320   5.184   6.209  0.5173 -0.1908  0.1427
  153SAPE   O1116935   6.249   5.417   6.269  0.3801  0.3557 -0.3842
  153SAPE    C116936   6.221   5.352   6.404 -0.3913 -0.0962 -0.1401
  153SAPE    HA16937   6.128   5.291   6.409 -0.1017 -0.5131  0.1509
  153SAPE    HB16938   6.305   5.282   6.424 -2.2691 -2.5036 -0.1999
  153SAPE    C216939   6.221   5.452   6.523 -0.0158  0.6324  0.3546
  153SAPE    HS16940   6.162   5.539   6.489 -2.8195 -1.2155  0.1416
  153SAPE   O2116941   6.362   5.475   6.557 -0.0893  0.1917 -0.0823
  153SAPE   C2116942   6.420   5.575   6.486 -0.1396 -0.4563  0.2128
  153SAPE   O2216943   6.361   5.657   6.421  0.1362  0.3825 -0.4387
  153SAPE   C2216944   6.574   5.561   6.492  0.0732  0.2153 -0.0590
  153SAPE   H2R16945   6.598   5.544   6.600 -0.6370  0.9117  0.2169
  153SAPE   H2S16946   6.602   5.465   6.445  4.3342  1.5629 -0.7481
  153SAPE    C316947   6.149   5.394   6.650 -0.3313 -0.2492  0.0362
  153SAPE    HX16948   6.040   5.402   6.630 -0.5084 -1.2258  0.5664
  153SAPE    HY16949   6.175   5.461   6.734  2.3793  1.3976 -1.9412
  153SAPE   O3116950   6.189   5.266   6.689 -0.2502 -0.2591  0.0653
  153SAPE   C3116951   6.107   5.159   6.674 -0.2395 -0.1924  0.7309
  153SAPE   O3216952   5.993   5.162   6.636  0.0415 -0.2926  0.0174
  153SAPE   C3216953   6.179   5.033   6.735 -0.0454  0.0703  0.3578
  153SAPE   H2X16954   6.264   5.007   6.669 -1.9643 -0.8659 -1.9045
  153SAPE   H2Y16955   6.113   4.945   6.752  1.3268 -0.9545  0.5379
  153SAPE   C2316956   6.647   5.685   6.438  0.0400  0.4528  0.1714
  153SAPE   H3R16957   6.582   5.743   6.369 -0.5898 -0.4173  0.0194
  153SAPE   H3S16958   6.746   5.656   6.397  0.7719  1.9797  0.7468
  153SAPE   C2416959   6.690   5.779   6.559 -0.3231 -0.1769 -0.8932
  153SAPE   H4R16960   6.768   5.850   6.523 -0.8175 -0.4343 -2.5677
  153SAPE   H4S16961   6.737   5.709   6.631 -0.9962 -4.2366 -4.0052
  153SAPE   C2516962   6.569   5.850   6.620 -0.0756 -0.2454 -0.0237
  153SAPE   H5R16963   6.517   5.925   6.558 -0.3209  2.7834  3.5354
  153SAPE   C2616964   6.516   5.814   6.735  0.4748  0.8375  0.1635
  153SAPE   H6R16965   6.423   5.868   6.761 -1.5479 -1.6985 -1.3171
  153SAPE   C2716966   6.566   5.718   6.840 -0.3896 -0.1336 -0.3277
  153SAPE   H7R16967   6.646   5.772   6.894 -1.0326 -0.4142  0.9335
  153SAPE   H7S16968   6.616   5.628   6.797 -0.8663 -1.0730  1.0151
  153SAPE   C2816969   6.459   5.672   6.937  0.1538  0.1794  0.8489
  153SAPE   H8R16970   6.395   5.588   6.904  1.2384 -0.1167 -0.6272
  153SAPE   C2916971   6.438   5.725   7.065 -0.6594  0.1170  0.5519
  153SAPE   H9R16972   6.360   5.685   7.131 -0.8969  2.4792  1.8182
  153SAPE  C21016973   6.523   5.835   7.129 -0.8119  0.4580 -0.0517
  153SAPE  H10R16974   6.622   5.850   7.081 -1.1744  0.0543 -0.9656
  153SAPE  H10S16975   6.543   5.813   7.236  1.4930 -0.5521 -0.6382
  153SAPE  C21116976   6.455   5.967   7.122  0.2043  0.7183  1.0410
  153SAPE  H11R16977   6.462   6.015   7.023 -2.4732 -1.8482 -0.5565
  153SAPE  C21216978   6.371   6.023   7.209 -0.4970  0.1870  0.1666
  153SAPE  H12R16979   6.317   6.116   7.187  3.6126  2.2113 -2.5532
  153SAPE  C21316980   6.329   5.939   7.331 -0.5335 -0.6643 -0.7993
  153SAPE  H13R16981   6.357   5.832   7.322 -4.5796 -1.8208 -1.6723
  153SAPE  H13S16982   6.218   5.930   7.337 -0.4775 -0.2556  2.7002
  153SAPE  C21416983   6.374   5.997   7.464  0.1852  0.5279 -0.9094
  153SAPE  H14R16984   6.447   6.078   7.467  1.4964 -0.6264 -0.4780
  153SAPE  C21516985   6.353   5.933   7.581  0.9756 -0.6472  0.0158
  153SAPE  H15R16986   6.379   5.971   7.681  0.9220 -0.4792 -0.0334
  153SAPE  C21616987   6.270   5.804   7.601 -1.1848  0.1682 -0.0806
  153SAPE  H16R16988   6.199   5.805   7.515 -0.6498  0.7894 -0.5153
  153SAPE  H16S16989   6.209   5.806   7.694 -0.5971  0.9111  0.2936
  153SAPE  C21716990   6.349   5.677   7.586  0.0739  0.4893 -0.6665
  153SAPE  H17R16991   6.389   5.651   7.687 -0.3546  1.1190 -0.3266
  153SAPE  H17S16992   6.433   5.691   7.515  1.0085  1.8928  0.6582
  153SAPE  C21816993   6.265   5.554   7.546  0.5168  0.5209 -0.0108
  153SAPE  H18R16994   6.197   5.588   7.466 -1.8868 -3.4667  0.0590
  153SAPE  H18S16995   6.199   5.527   7.631 -1.0413  1.5960 -0.8350
  153SAPE  C21916996   6.333   5.432   7.486 -0.1336 -0.1875  0.2622
  153SAPE  H19R16997   6.266   5.345   7.505 -1.3902  0.6891  0.0151
  153SAPE  H19S16998   6.422   5.422   7.551  0.5982 -2.2351 -0.9421
  153SAPE  C22016999   6.377   5.449   7.341  0.0305  0.2011 -0.2761
  153SAPE  H20R17000   6.420   5.350   7.312  0.1062 -0.2584  1.2904
  153SAPE  H20S17001   6.452   5.531   7.334 -1.5507  1.7690  0.3766
  153SAPE  H20T17002   6.284   5.479   7.289  0.3623  1.2428 -0.2816
  153SAPE   C3317003   6.228   5.061   6.876  0.0400  0.0902 -0.8612
  153SAPE   H3X17004   6.314   5.131   6.869  1.1596 -1.2047 -0.5802
  153SAPE   H3Y17005   6.279   4.971   6.917 -2.0597 -1.5606 -1.6623
  153SAPE   C3417006   6.130   5.102   6.992  0.2933 -0.0102 -0.3548
  153SAPE   H4X17007   6.074   5.016   7.035  1.1900 -0.5856 -0.3093
  153SAPE   H4Y17008   6.064   5.181   6.950 -0.4856 -1.1888 -1.4232
  153SAPE   C3517009   6.195   5.162   7.122  0.4931 -0.4587 -0.6510
  153SAPE   H5X17010   6.129   5.209   7.198 -0.4472 -1.8666 -0.5476
  153SAPE   H5Y17011   6.250   5.243   7.070 -0.2014 -0.1967 -0.9919
  153SAPE   C3617012   6.292   5.070   7.195 -0.3759  0.1171  0.3126
  153SAPE   H6X17013   6.370   5.133   7.242  0.5001 -1.6073  1.2633
  153SAPE   H6Y17014   6.348   5.015   7.117  2.2334  1.8274  0.8728
  153SAPE   C3717015   6.223   4.967   7.283 -0.2952  0.2274 -0.0234
  153SAPE   H7X17016   6.302   4.908   7.333 -0.1110  0.5526  0.0747
  153SAPE   H7Y17017   6.154   4.905   7.222 -0.2235 -0.0922  0.2205
  153SAPE   C3817018   6.148   5.019   7.398 -0.1107  0.7235  1.1683
  153SAPE   H8X17019   6.075   4.941   7.427  1.2930 -1.4825 -0.8001
  153SAPE   H8Y17020   6.100   5.116   7.372 -0.0256  0.1978 -1.1696
  153SAPE   C3917021   6.238   5.049   7.521  0.2078 -0.3761  0.0796
  153SAPE   H9X17022   6.312   5.127   7.492  0.1529  0.1628  1.3254
  153SAPE   H9Y17023   6.280   4.951   7.550 -2.4573 -2.3393 -2.1543
  153SAPE  C31017024   6.152   5.096   7.643  0.4240  0.2341 -0.0592
  153SAPE  H10X17025   6.110   5.005   7.691 -0.4196  1.2720  1.2110
  153SAPE  H10Y17026   6.067   5.164   7.622 -0.1246 -0.4007  0.0825
  153SAPE  C31117027   6.227   5.155   7.775 -0.2958  0.0987  0.0570
  153SAPE  H11X17028   6.272   5.256   7.765  2.1804 -1.0603 -1.7537
  153SAPE  H11Y17029   6.308   5.080   7.791  1.0191  1.6078  0.7610
  153SAPE  C31217030   6.140   5.163   7.899 -0.2245  0.3923 -0.5924
  153SAPE  H12X17031   6.080   5.070   7.886  1.5707 -0.6680 -1.6821
  153SAPE  H12Y17032   6.059   5.238   7.889  0.5928  1.0858 -2.3595
  153SAPE  C31317033   6.208   5.156   8.033  0.1491  0.2348  0.6114
  153SAPE  H13X17034   6.277   5.070   8.028  1.0782  1.0014 -0.1252
  153SAPE  H13Y17035   6.124   5.139   8.104  1.4841 -1.7155  1.8215
  153SAPE  C31417036   6.285   5.278   8.083 -0.5657 -1.3389  0.3241
  153SAPE  H14X17037   6.218   5.365   8.071  1.2078  0.2263  1.2448
  153SAPE  H14Y17038   6.370   5.288   8.012 -0.5216 -0.0179  0.5339
  153SAPE  C31517039   6.325   5.270   8.230  0.2959 -0.5996 -0.3006
  153SAPE  H15X17040   6.235   5.268   8.295  0.2863 -0.0195 -0.2908
  153SAPE  H15Y17041   6.377   5.356   8.276 -1.7910 -0.1688  1.3978
  153SAPE  C31617042   6.397   5.137   8.257 -0.8560 -0.3406 -0.4844
  153SAPE  H16X17043   6.487   5.156   8.196 -0.1913  1.8001  1.0533
  153SAPE  H16Y17044   6.343   5.055   8.205  0.2674 -0.5164 -1.4031
  153SAPE  C31717045   6.416   5.105   8.409 -0.0333 -0.0845 -0.0376
  153SAPE  H17X17046   6.456   5.196   8.459 -3.4028  2.3770 -1.4291
  153SAPE  H17Y17047   6.492   5.024   8.408 -0.0263 -0.1653 -3.0589
  153SAPE  C31817048   6.302   5.048   8.485  0.3419  0.1372  0.2301
  153SAPE  H18X17049   6.227   5.129   8.503  0.8983  0.6846  0.1149
  153SAPE  H18Y17050   6.331   5.010   8.585 -0.9809 -1.9974 -0.1329
  153SAPE  H18Z17051   6.251   4.968   8.428 -1.3934  1.6862 -0.4944
  154SAPE     N17052   3.200   3.422   6.261 -0.3503  0.2240 -0.0837
  154SAPE   HN117053   3.116   3.366   6.238 -0.4174 -0.5691  1.8967
  154SAPE   HN217054   3.258   3.342   6.292 -0.9557  0.4988  1.8597
  154SAPE   HN317055   3.191   3.494   6.336 -1.0950  1.0091 -0.9012
  154SAPE   C1217056   3.245   3.510   6.146  0.8860 -0.0017 -0.1544
  154SAPE  H12A17057   3.160   3.575   6.116  1.2084 -0.1635 -1.4487
  154SAPE  H12B17058   3.275   3.436   6.069 -1.1128 -3.0596  1.7674
  154SAPE   C1117059   3.374   3.600   6.165  0.4579 -0.0493  0.5833
  154SAPE  H11A17060   3.344   3.652   6.259  1.2020  1.8526 -0.1968
  154SAPE  H11B17061   3.380   3.682   6.091  2.0063 -0.6478  0.0048
  154SAPE     P17062   3.582   3.506   6.283 -0.1406 -0.3251 -0.0540
  154SAPE   O1317063   3.630   3.368   6.304 -0.1466  0.0848  0.1470
  154SAPE   O1417064   3.688   3.607   6.253 -0.2376 -0.0773  0.0059
  154SAPE   O1217065   3.486   3.511   6.158 -0.2692 -0.1105 -0.4409
  154SAPE   O1117066   3.494   3.538   6.408 -0.2463 -0.3021 -0.0067
  154SAPE    C117067   3.515   3.650   6.497  0.7148 -0.8317 -0.4573
  154SAPE    HA17068   3.563   3.739   6.452 -1.6944  1.7094  1.6597
  154SAPE    HB17069   3.422   3.691   6.542  1.9940 -0.2269  1.8404
  154SAPE    C217070   3.609   3.613   6.614  1.0610 -0.6294  0.0027
  154SAPE    HS17071   3.585   3.691   6.689  1.0370 -1.1299  0.5239
  154SAPE   O2117072   3.741   3.605   6.568 -0.3568 -0.2339  0.4398
  154SAPE   C2117073   3.811   3.722   6.552  0.6639 -0.5240  0.3342
  154SAPE   O2217074   3.770   3.830   6.584  0.0397 -0.2813  0.3874
  154SAPE   C2217075   3.947   3.691   6.489 -0.0105  0.5861  0.8087
  154SAPE   H2R17076   3.928   3.637   6.394 -0.2255  0.0044  1.1764
  154SAPE   H2S17077   4.003   3.781   6.458  1.4898  0.7107  3.5017
  154SAPE    C317078   3.564   3.479   6.680  0.3825 -0.0771  0.9260
  154SAPE    HX17079   3.590   3.400   6.606 -1.1550 -0.5721  0.8758
  154SAPE    HY17080   3.456   3.480   6.707 -0.2964 -1.1668 -1.4332
  154SAPE   O3117081   3.631   3.451   6.805  0.7062 -0.0865  0.6619
  154SAPE   C3117082   3.745   3.382   6.808 -0.0464 -0.7339  0.2241
  154SAPE   O3217083   3.817   3.344   6.717  0.6020 -0.4134 -0.2087
  154SAPE   C3217084   3.778   3.357   6.956 -0.2399 -0.6896  0.4309
  154SAPE   H2X17085   3.687   3.325   7.012 -1.3330 -0.2275 -1.0088
  154SAPE   H2Y17086   3.824   3.445   7.005 -0.2993 -0.9371  0.9438
  154SAPE   C2317087   4.030   3.593   6.573  0.5726  0.9464 -0.2993
  154SAPE   H3R17088   4.065   3.510   6.508 -2.4154 -1.0060  0.3942
  154SAPE   H3S17089   3.977   3.550   6.661 -0.2564  0.1725 -1.1498
  154SAPE   C2417090   4.148   3.667   6.634 -0.2491 -0.4752 -0.1789
  154SAPE   H4R17091   4.206   3.707   6.548  1.9360 -2.7825  0.0795
  154SAPE   H4S17092   4.219   3.603   6.691  2.5831  0.6906 -2.2080
  154SAPE   C2517093   4.096   3.793   6.711 -0.9618  0.9784 -0.5801
  154SAPE   H5R17094   4.082   3.886   6.654 -0.6603  0.1279 -2.1299
  154SAPE   C2617095   4.059   3.799   6.840 -0.0862  0.4249 -0.0905
  154SAPE   H6R17096   4.030   3.900   6.871 -1.1467  0.6307 -1.6651
  154SAPE   C2717097   4.042   3.676   6.933  0.0881  0.2717  0.3006
  154SAPE   H7R17098   4.135   3.672   6.993  0.5226  0.4686 -0.3471
  154SAPE   H7S17099   4.024   3.582   6.876 -0.4175  0.9379 -0.6712
  154SAPE   C2817100   3.925   3.698   7.025 -0.4138  0.5226 -0.0815
  154SAPE   H8R17101   3.829   3.698   6.971  0.2273 -0.9885 -1.3002
  154SAPE   C2917102   3.926   3.705   7.157 -0.0873 -0.3288  0.2310
  154SAPE   H9R17103   3.828   3.717   7.205 -0.9911 -1.9963 -1.0841
  154SAPE  C21017104   4.029   3.698   7.262  0.6934 -0.0119  0.5672
  154SAPE  H10R17105   3.986   3.776   7.329 -2.1926  0.0433 -1.1750
  154SAPE  H10S17106   4.128   3.737   7.232  0.0663  1.9985  0.9479
  154SAPE  C21117107   4.043   3.565   7.331 -0.0520  1.1724  0.5624
  154SAPE  H11R17108   4.029   3.482   7.260  0.3209  1.2096  0.4398
  154SAPE  C21217109   4.073   3.539   7.455 -0.6277  0.3272 -0.1032
  154SAPE  H12R17110   4.081   3.432   7.480  4.0019  0.3555 -0.5179
  154SAPE  C21317111   4.098   3.627   7.575 -0.5893  1.0536  0.5297
  154SAPE  H13R17112   3.999   3.658   7.615 -2.3174  0.2777 -2.8292
  154SAPE  H13S17113   4.143   3.720   7.535  1.2300 -0.6198 -1.5517
  154SAPE  C21417114   4.192   3.564   7.681  0.5237  0.3486  0.6933
  154SAPE  H14R17115   4.276   3.509   7.635 -0.0516  0.1611 -0.1380
  154SAPE  C21517116   4.197   3.597   7.811  0.0388 -0.8486 -0.1542
  154SAPE  H15R17117   4.279   3.553   7.868 -0.3970 -0.0188  1.1482
  154SAPE  C21617118   4.112   3.705   7.881 -0.1259  0.0888  0.2572
  154SAPE  H16R17119   4.052   3.646   7.954  0.3516  0.0826  0.6547
  154SAPE  H16S17120   4.031   3.748   7.818 -0.2853  0.2911  0.5993
  154SAPE  C21717121   4.200   3.813   7.949 -0.3557  0.1917  0.4180
  154SAPE  H17R17122   4.269   3.853   7.872  1.0018 -0.2822  1.3567
  154SAPE  H17S17123   4.266   3.770   8.028  0.3897 -1.4023 -1.0082
  154SAPE  C21817124   4.132   3.927   8.024 -1.0948  0.1011 -0.0963
  154SAPE  H18R17125   4.203   4.007   8.053  0.4982 -1.2722 -0.0410
  154SAPE  H18S17126   4.091   3.888   8.119 -1.4368  0.8463  0.0628
  154SAPE  C21917127   4.020   3.991   7.940  0.2196 -0.2827 -0.3309
  154SAPE  H19R17128   3.955   4.064   7.991 -1.2698 -0.8243 -1.3985
  154SAPE  H19S17129   3.949   3.908   7.919 -1.2606  0.5409  1.1731
  154SAPE  C22017130   4.058   4.058   7.807 -0.6437  0.1982  0.2308
  154SAPE  H20R17131   3.978   4.117   7.757  0.2012  0.2177 -1.1477
  154SAPE  H20S17132   4.075   3.980   7.729  0.7046  0.9245 -0.2364
  154SAPE  H20T17133   4.147   4.122   7.823  0.3770 -0.9757 -0.5875
  154SAPE   C3317134   3.891   3.252   6.964  0.6073  0.0143 -0.1262
  154SAPE   H3X17135   3.973   3.266   6.890  0.4818 -1.4710 -0.5755
  154SAPE   H3Y17136   3.836   3.160   6.938  0.6688 -0.3724  1.0547
  154SAPE   C3417137   3.951   3.242   7.099 -1.2339 -0.3500  1.0673
  154SAPE   H4X17138   4.027   3.320   7.118 -1.7474 -0.4323  3.8762
  154SAPE   H4Y17139   4.001   3.146   7.123 -1.4677 -0.1174  2.5582
  154SAPE   C3517140   3.860   3.265   7.216  0.9234 -0.1885 -0.1251
  154SAPE   H5X17141   3.760   3.227   7.187  0.4806  0.9081 -0.0559
  154SAPE   H5Y17142   3.843   3.373   7.234 -2.4596 -0.8831  1.7052
  154SAPE   C3617143   3.894   3.181   7.342  0.5033 -0.3010  0.4926
  154SAPE   H6X17144   4.005   3.177   7.348  0.5790 -2.2581 -1.1219
  154SAPE   H6Y17145   3.883   3.077   7.305  0.9723 -0.9082  1.9788
  154SAPE   C3717146   3.807   3.211   7.461 -0.0508  0.8579 -0.7438
  154SAPE   H7X17147   3.782   3.317   7.485 -1.6418  0.2998  0.2391
  154SAPE   H7Y17148   3.851   3.166   7.552 -1.9963 -0.2455 -0.2838
  154SAPE   C3817149   3.671   3.142   7.437  0.8644  0.4073 -0.0229
  154SAPE   H8X17150   3.671   3.051   7.373 -0.3033  1.7731 -2.0735
  154SAPE   H8Y17151   3.589   3.207   7.402 -0.0404 -0.0209  1.2219
  154SAPE   C3917152   3.610   3.083   7.561  0.2543 -0.5698  0.0950
  154SAPE   H9X17153   3.565   3.170   7.614 -4.1172  0.9375 -5.1101
  154SAPE   H9Y17154   3.689   3.041   7.627  1.4507 -0.4336 -1.2030
  154SAPE  C31017155   3.497   2.975   7.547  0.3736 -0.2121  0.0446
  154SAPE  H10X17156   3.526   2.905   7.466  2.9744  0.1468  0.5903
  154SAPE  H10Y17157   3.402   3.030   7.532  0.7163  1.3490  2.9165
  154SAPE  C31117158   3.488   2.887   7.679  0.0815 -0.3712 -0.0427
  154SAPE  H11X17159   3.589   2.865   7.721 -1.4910 -2.6654  2.9524
  154SAPE  H11Y17160   3.420   2.803   7.654 -0.2388 -0.2195  0.3132
  154SAPE  C31217161   3.429   2.972   7.799 -0.2458  0.3881 -0.4517
  154SAPE  H12X17162   3.371   3.053   7.750  1.2409  2.0618  0.4684
  154SAPE  H12Y17163   3.511   3.024   7.853  0.8692 -0.7172 -1.0424
  154SAPE  C31317164   3.347   2.899   7.900 -0.3256 -0.5006 -0.5381
  154SAPE  H13X17165   3.409   2.856   7.982  0.7085  1.9096  0.0318
  154SAPE  H13Y17166   3.283   2.820   7.855 -1.4085  0.2158 -0.2713
  154SAPE  C31417167   3.258   2.997   7.967  0.5415 -0.6064 -0.6099
  154SAPE  H14X17168   3.208   3.063   7.893  0.4333  3.3778  2.6978
  154SAPE  H14Y17169   3.316   3.066   8.031  1.0105  0.6687 -2.3528
  154SAPE  C31517170   3.153   2.927   8.052  0.3280  0.1597  0.4892
  154SAPE  H15X17171   3.207   2.855   8.117  1.3010 -2.1946 -2.6986
  154SAPE  H15Y17172   3.089   2.863   7.988 -1.5578  2.7483 -0.3835
  154SAPE  C31617173   3.062   3.027   8.124  1.2853 -0.4667 -0.5116
  154SAPE  H16X17174   3.015   3.099   8.054 -0.0014 -0.0567  0.7376
  154SAPE  H16Y17175   3.112   3.087   8.203  0.8384 -0.3817 -0.2905
  154SAPE  C31717176   2.937   2.963   8.184  0.0188 -0.4354 -0.3361
  154SAPE  H17X17177   2.958   2.907   8.278 -3.3461  1.1709  1.5505
  154SAPE  H17Y17178   2.913   2.888   8.106 -0.3538 -0.6582 -0.0121
  154SAPE  C31817179   2.824   3.062   8.181  0.2830  0.1606  0.7388
  154SAPE  H18X17180   2.816   3.119   8.086  0.8884 -0.9700 -0.0126
  154SAPE  H18Y17181   2.830   3.137   8.262 -0.7834 -1.3191  2.2483
  154SAPE  H18Z17182   2.725   3.014   8.197  0.3926  0.5243  2.7319
  155SAPE     N17183   5.531   3.954   5.727  0.0853  0.0449 -0.5705
  155SAPE   HN117184   5.465   4.034   5.731  0.0712  0.1169 -1.7778
  155SAPE   HN217185   5.561   3.970   5.628  0.1230 -2.9542 -1.1445
  155SAPE   HN317186   5.474   3.867   5.730  0.8798 -0.5037 -0.8879
  155SAPE   C1217187   5.631   3.951   5.843  0.4060 -0.4756  0.2383
  155SAPE  H12A17188   5.671   4.055   5.845  2.6515 -1.2743 -0.3980
  155SAPE  H12B17189   5.710   3.876   5.822 -0.8943 -2.2052  1.2732
  155SAPE   C1117190   5.562   3.930   5.981 -0.3347 -0.0359  0.4544
  155SAPE  H11A17191   5.627   3.958   6.067  0.0076 -0.5424  0.3596
  155SAPE  H11B17192   5.529   3.824   5.991 -0.1600 -0.4881 -2.7852
  155SAPE     P17193   5.421   4.146   6.056 -0.3958  0.0347 -0.2003
  155SAPE   O1317194   5.509   4.241   5.986  0.5604 -0.2971  0.4790
  155SAPE   O1417195   5.281   4.179   6.059  0.4672 -0.2340 -0.3780
  155SAPE   O1217196   5.443   4.006   5.990 -0.1107  0.2355 -0.0122
  155SAPE   O1117197   5.482   4.126   6.201  0.1425 -0.1931  0.5883
  155SAPE    C117198   5.441   4.026   6.292 -0.0177  0.7351  0.3209
  155SAPE    HA17199   5.360   3.963   6.251 -0.6129  0.7714  1.4200
  155SAPE    HB17200   5.523   3.952   6.309  0.1178  0.3877 -1.6008
  155SAPE    C217201   5.384   4.075   6.425 -0.3343 -0.3480  0.0641
  155SAPE    HS17202   5.311   4.153   6.396 -1.0826 -1.0651 -0.0186
  155SAPE   O2117203   5.495   4.126   6.501 -0.4202  0.1698  0.0348
  155SAPE   C2117204   5.486   4.252   6.531  0.0425  0.2422 -0.2606
  155SAPE   O2217205   5.396   4.330   6.504 -0.2973 -1.1099 -0.5016
  155SAPE   C2217206   5.624   4.301   6.592  0.8215  0.1636 -0.8324
  155SAPE   H2R17207   5.682   4.212   6.624  2.3646  0.8421 -1.6235
  155SAPE   H2S17208   5.677   4.362   6.516  2.0358  1.3859  0.9076
  155SAPE    C317209   5.315   3.969   6.511 -0.1169  0.1335  0.0299
  155SAPE    HX17210   5.374   3.876   6.493 -0.2897  0.1730 -0.7598
  155SAPE    HY17211   5.214   3.941   6.476 -0.7490 -0.2808  2.0132
  155SAPE   O3117212   5.307   4.008   6.647 -0.0711 -0.0103 -0.1974
  155SAPE   C3117213   5.204   4.091   6.670  1.2530 -0.3164 -0.0102
  155SAPE   O3217214   5.118   4.128   6.585  0.3738 -0.2732 -0.4492
  155SAPE   C3217215   5.214   4.153   6.803  0.6958 -0.3689  0.3145
  155SAPE   H2X17216   5.310   4.208   6.809  0.3904  0.2727 -0.5298
  155SAPE   H2Y17217   5.225   4.081   6.887  1.2563  0.4477  0.9604
  155SAPE   C2317218   5.583   4.412   6.704 -0.4696  0.3312  0.3295
  155SAPE   H3R17219   5.524   4.354   6.778 -1.2604 -0.7524 -1.0932
  155SAPE   H3S17220   5.515   4.497   6.681  1.5095  2.5831  2.3127
  155SAPE   C2417221   5.711   4.485   6.758 -0.4799  0.2582  0.5824
  155SAPE   H4R17222   5.788   4.408   6.781  0.8601  1.6801  1.0041
  155SAPE   H4S17223   5.686   4.525   6.858 -0.3537 -0.3648  0.8674
  155SAPE   C2517224   5.781   4.596   6.675  0.0712  0.0383  0.4829
  155SAPE   H5R17225   5.781   4.582   6.565 -1.7648  2.2065  0.1316
  155SAPE   C2617226   5.833   4.712   6.728 -0.4801  0.3591 -0.2235
  155SAPE   H6R17227   5.867   4.777   6.646  1.2003 -0.4684 -0.2096
  155SAPE   C2717228   5.835   4.767   6.868  0.3094 -0.0173 -0.2087
  155SAPE   H7R17229   5.744   4.747   6.927 -0.6056  0.8021 -1.2939
  155SAPE   H7S17230   5.833   4.877   6.853 -0.0015 -0.3417 -3.1400
  155SAPE   C2817231   5.964   4.722   6.932  0.1965  0.0090  0.3919
  155SAPE   H8R17232   6.054   4.709   6.870 -0.2676 -0.7704 -0.1373
  155SAPE   C2917233   5.980   4.704   7.065 -0.0222  0.3464  0.4986
  155SAPE   H9R17234   6.080   4.677   7.101  0.5267  0.5599 -0.8004
  155SAPE  C21017235   5.872   4.728   7.167  0.3832 -0.5066 -0.3349
  155SAPE  H10R17236   5.808   4.812   7.134  1.9632  0.3614 -1.2538
  155SAPE  H10S17237   5.918   4.770   7.260  0.3599  1.0423 -0.9990
  155SAPE  C21117238   5.786   4.608   7.196  0.0706 -0.4894  0.6765
  155SAPE  H11R17239   5.769   4.547   7.106 -0.6567  1.1122 -0.3187
  155SAPE  C21217240   5.763   4.548   7.317 -0.4235 -0.1980 -0.5161
  155SAPE  H12R17241   5.714   4.450   7.318 -0.4811 -0.2242  2.6727
  155SAPE  C21317242   5.813   4.592   7.451 -0.0297 -0.0463  0.2974
  155SAPE  H13R17243   5.847   4.698   7.456  0.0409 -0.0568  0.0270
  155SAPE  H13S17244   5.904   4.532   7.477  1.2987  1.4757 -0.6262
  155SAPE  C21417245   5.706   4.576   7.551 -0.5287 -0.2267 -0.3282
  155SAPE  H14R17246   5.627   4.651   7.538  0.1271  0.7964  1.2240
  155SAPE  C21517247   5.706   4.485   7.649 -0.1857 -0.1184  0.0110
  155SAPE  H15R17248   5.621   4.478   7.718 -1.7574  2.4732 -1.5143
  155SAPE  C21617249   5.814   4.384   7.689  0.5467 -0.0626 -0.1281
  155SAPE  H16R17250   5.838   4.316   7.605  0.2982 -0.9057  0.4670
  155SAPE  H16S17251   5.777   4.308   7.761  0.7995 -0.1056 -0.0439
  155SAPE  C21717252   5.934   4.459   7.752  0.0198 -0.1816 -0.4142
  155SAPE  H17R17253   5.965   4.557   7.711 -2.0442  1.2119  1.1682
  155SAPE  H17S17254   6.010   4.385   7.717  1.0857  0.6621  0.0332
  155SAPE  C21817255   5.915   4.474   7.898  0.2533 -0.3278  0.1931
  155SAPE  H18R17256   5.900   4.368   7.927  0.1731 -0.1557  0.7985
  155SAPE  H18S17257   5.827   4.537   7.923  0.8070  1.1631 -1.4626
  155SAPE  C21917258   6.023   4.551   7.974 -1.2650  0.4208 -0.3915
  155SAPE  H19R17259   6.122   4.508   7.948 -0.5371  3.0169 -2.3493
  155SAPE  H19S17260   6.008   4.536   8.083  0.9778 -0.5575 -0.1654
  155SAPE  C22017261   6.025   4.698   7.941  0.7653 -0.3717  0.3299
  155SAPE  H20R17262   5.947   4.755   7.996  1.8889  0.8961  0.6535
  155SAPE  H20S17263   6.005   4.718   7.833  1.5968  3.0640  0.7008
  155SAPE  H20T17264   6.125   4.744   7.954 -0.2891  2.8717 -1.8805
  155SAPE   C3317265   5.103   4.262   6.835  0.2831  1.0244  0.2447
  155SAPE   H3X17266   5.009   4.212   6.868  1.4017  0.6913  3.2189
  155SAPE   H3Y17267   5.076   4.328   6.749  0.0793 -1.6258 -1.8423
  155SAPE   C3417268   5.159   4.350   6.951  0.5974  0.3394 -0.9378
  155SAPE   H4X17269   5.258   4.387   6.917  0.7679 -1.5112 -2.5899
  155SAPE   H4Y17270   5.168   4.286   7.041 -0.2805  2.6712  0.9284
  155SAPE   C3517271   5.078   4.466   6.985 -0.0480 -0.2583  0.1742
  155SAPE   H5X17272   4.971   4.437   6.980  0.6997 -3.2858  0.1334
  155SAPE   H5Y17273   5.096   4.547   6.912  0.3959  0.2098  0.7886
  155SAPE   C3617274   5.106   4.537   7.125 -0.3850  0.2805 -0.4179
  155SAPE   H6X17275   5.094   4.453   7.197  1.7089 -1.3442 -1.8443
  155SAPE   H6Y17276   5.036   4.621   7.146  0.8110  0.9152  1.2466
  155SAPE   C3717277   5.247   4.593   7.138  0.2086  0.2630  0.0198
  155SAPE   H7X17278   5.271   4.692   7.094  1.7205  0.7550  1.8207
  155SAPE   H7Y17279   5.308   4.521   7.079  1.5745  1.3161  0.0898
  155SAPE   C3817280   5.298   4.605   7.282 -0.1412  0.1547  0.3800
  155SAPE   H8X17281   5.395   4.657   7.271 -0.8403  1.1264 -2.0500
  155SAPE   H8Y17282   5.296   4.506   7.332  1.2038 -0.0259  0.1191
  155SAPE   C3917283   5.214   4.700   7.365 -0.1495  0.3566  0.3544
  155SAPE   H9X17284   5.113   4.665   7.396 -0.5258  1.3989  0.3428
  155SAPE   H9Y17285   5.203   4.796   7.311 -3.5838 -0.1833 -0.0973
  155SAPE  C31017286   5.281   4.731   7.505 -0.3436  0.6324  0.0028
  155SAPE  H10X17287   5.199   4.782   7.559 -1.1646 -2.4411  1.8884
  155SAPE  H10Y17288   5.364   4.798   7.473 -0.5963  0.2284 -1.5796
  155SAPE  C31117289   5.314   4.612   7.601  0.0912  0.6035 -0.0645
  155SAPE  H11X17290   5.401   4.557   7.559  1.4257  1.1818  1.8105
  155SAPE  H11Y17291   5.225   4.546   7.595  0.1812  0.4621  0.1426
  155SAPE  C31217292   5.344   4.649   7.750 -0.6609 -0.4711 -0.0617
  155SAPE  H12X17293   5.254   4.704   7.784 -0.2575 -1.5422  3.0882
  155SAPE  H12Y17294   5.429   4.720   7.750 -0.3282 -0.6702 -3.8097
  155SAPE  C31317295   5.360   4.530   7.841 -0.1431 -0.4410 -0.6142
  155SAPE  H13X17296   5.416   4.453   7.783  0.0607 -0.7248 -0.0520
  155SAPE  H13Y17297   5.262   4.480   7.855  1.2188 -3.5885 -1.3679
  155SAPE  C31417298   5.423   4.561   7.978 -0.4334  0.9117 -0.1322
  155SAPE  H14X17299   5.529   4.593   7.969  0.2467 -1.0370  0.3770
  155SAPE  H14Y17300   5.423   4.466   8.035  0.8231 -0.3342 -2.0638
  155SAPE  C31517301   5.350   4.669   8.053  0.0845 -0.2365  0.0257
  155SAPE  H15X17302   5.240   4.649   8.052  0.1666 -1.0598  2.3304
  155SAPE  H15Y17303   5.379   4.767   8.010 -1.4170  0.1746 -0.1051
  155SAPE  C31617304   5.389   4.668   8.200  0.3071 -0.4985 -0.7888
  155SAPE  H16X17305   5.498   4.689   8.192  0.3902 -0.8708 -0.6486
  155SAPE  H16Y17306   5.364   4.569   8.244  0.0951  0.2999  0.9731
  155SAPE  C31717307   5.307   4.768   8.282 -0.3476 -0.2174  1.1487
  155SAPE  H17X17308   5.204   4.728   8.293 -0.2688 -0.1158  2.3479
  155SAPE  H17Y17309   5.297   4.866   8.230  0.6936 -0.6711  0.0352
  155SAPE  C31817310   5.350   4.788   8.430  0.1031 -0.4923 -0.6769
  155SAPE  H18X17311   5.355   4.689   8.481 -0.0154  0.2471  0.8434
  155SAPE  H18Y17312   5.280   4.855   8.484  0.4164  0.3945 -1.3645
  155SAPE  H18Z17313   5.450   4.835   8.439  0.5266 -1.5095  0.1197
  156SAPE     N17314   2.300   5.463   6.204 -0.5717 -0.6368 -0.1677
  156SAPE   HN117315   2.292   5.560   6.166 -0.7336 -1.1260 -1.4290
  156SAPE   HN217316   2.340   5.403   6.129  0.6064  0.6519 -0.6128
  156SAPE   HN317317   2.202   5.435   6.224 -1.4257  2.0886 -0.0932
  156SAPE   C1217318   2.395   5.456   6.330 -0.3596  0.1129  0.6839
  156SAPE  H12A17319   2.349   5.521   6.408 -1.4673 -0.4104  0.4900
  156SAPE  H12B17320   2.486   5.510   6.298 -1.3648  1.0462 -0.7239
  156SAPE   C1117321   2.432   5.317   6.377 -0.1414  0.2857 -1.2743
  156SAPE  H11A17322   2.339   5.268   6.412 -1.6538  3.2902 -0.7818
  156SAPE  H11B17323   2.505   5.335   6.458  1.5533  1.4468 -2.9631
  156SAPE     P17324   2.442   5.132   6.184 -0.1285 -0.0935  0.3743
  156SAPE   O1317325   2.354   5.202   6.090  0.1265 -0.0073  0.0959
  156SAPE   O1417326   2.557   5.054   6.136 -0.4892  0.3365 -0.3010
  156SAPE   O1217327   2.506   5.238   6.282  1.1460  0.1757  0.2862
  156SAPE   O1117328   2.354   5.040   6.270  0.1479 -0.1316 -0.0429
  156SAPE    C117329   2.441   4.960   6.362  0.6079 -0.2542 -0.8667
  156SAPE    HA17330   2.531   4.909   6.324  1.5970  0.3407  0.5801
  156SAPE    HB17331   2.489   5.018   6.444 -3.0612 -1.2778  2.3346
  156SAPE    C217332   2.349   4.854   6.432  0.4128 -0.6144 -0.1070
  156SAPE    HS17333   2.298   4.812   6.343 -0.0394  1.6471 -0.9993
  156SAPE   O2117334   2.258   4.927   6.517 -0.3612  0.1697  0.1661
  156SAPE   C2117335   2.139   4.862   6.541 -0.2086 -0.1217 -0.0480
  156SAPE   O2217336   2.105   4.757   6.491  0.3906  0.0832 -0.4669
  156SAPE   C2217337   2.072   4.946   6.649 -0.0220  0.3779 -0.1406
  156SAPE   H2R17338   2.152   4.968   6.722  1.8728  2.5568 -2.6812
  156SAPE   H2S17339   2.044   5.045   6.608 -1.9698 -0.8485 -2.0256
  156SAPE    C317340   2.430   4.753   6.510  0.6973  0.3285  0.0846
  156SAPE    HX17341   2.499   4.694   6.446 -1.2587 -0.1874 -1.6576
  156SAPE    HY17342   2.363   4.683   6.564 -1.7876  2.4041 -0.1368
  156SAPE   O3117343   2.508   4.819   6.609 -0.0895  0.0494 -0.0678
  156SAPE   C3117344   2.466   4.834   6.735 -0.4134 -0.3165  0.3332
  156SAPE   O3217345   2.384   4.763   6.795 -0.1886 -0.6426  1.0723
  156SAPE   C3217346   2.535   4.960   6.792  0.5506  0.4650  0.1459
  156SAPE   H2X17347   2.614   4.994   6.721 -0.2252 -0.0674 -0.9950
  156SAPE   H2Y17348   2.578   4.931   6.890  0.2322 -1.0977 -0.1494
  156SAPE   C2317349   1.958   4.889   6.722 -0.0258  0.1115 -0.7655
  156SAPE   H3R17350   1.899   4.817   6.663 -1.4416  0.8456 -0.3014
  156SAPE   H3S17351   1.893   4.977   6.743  1.1945  0.8894 -0.0736
  156SAPE   C2417352   1.995   4.838   6.859  0.7831 -0.1218 -0.6246
  156SAPE   H4R17353   2.082   4.769   6.854  1.7409  0.7256  2.2830
  156SAPE   H4S17354   1.907   4.784   6.900  0.7196  2.0025  2.3095
  156SAPE   C2517355   2.033   4.956   6.958 -0.1819 -0.3210  0.5405
  156SAPE   H5R17356   1.981   5.050   6.940 -1.3194 -1.1407 -0.6279
  156SAPE   C2617357   2.123   4.958   7.057  0.3777 -0.4360  0.0347
  156SAPE   H6R17358   2.133   5.049   7.117  1.0115  0.6376 -1.6305
  156SAPE   C2717359   2.206   4.845   7.113 -0.2768 -0.1477  0.1188
  156SAPE   H7R17360   2.213   4.773   7.028  1.3177  1.3770 -1.1280
  156SAPE   H7S17361   2.155   4.798   7.200  1.8054 -0.6869  1.1076
  156SAPE   C2817362   2.349   4.880   7.145 -0.1068  0.4847 -0.0764
  156SAPE   H8R17363   2.417   4.868   7.059  0.0296  2.1021 -0.2299
  156SAPE   C2917364   2.405   4.922   7.261  0.3304  0.0529 -0.1247
  156SAPE   H9R17365   2.513   4.935   7.274  0.2352 -0.6721  1.7084
  156SAPE  C21017366   2.332   4.958   7.391  0.8175 -0.0390 -0.4342
  156SAPE  H10R17367   2.226   4.977   7.363  0.3759 -2.0269 -0.2109
  156SAPE  H10S17368   2.377   5.053   7.427  2.1942  0.2334 -2.6984
  156SAPE  C21117369   2.339   4.846   7.497  0.6109 -0.6713 -0.2396
  156SAPE  H11R17370   2.281   4.756   7.476 -1.7517  0.4238  1.1681
  156SAPE  C21217371   2.418   4.850   7.607  0.4091 -0.0289 -0.1575
  156SAPE  H12R17372   2.415   4.760   7.670  1.3103 -0.8895 -1.2983
  156SAPE  C21317373   2.496   4.967   7.663  0.3879  0.6591  0.4224
  156SAPE  H13R17374   2.561   5.007   7.581  0.3792 -1.2777 -0.5860
  156SAPE  H13S17375   2.567   4.921   7.736 -1.4042 -1.8093  0.7364
  156SAPE  C21417376   2.416   5.089   7.706  0.1159 -0.0802  0.2843
  156SAPE  H14R17377   2.327   5.123   7.651  0.4421 -0.6352 -0.6053
  156SAPE  C21517378   2.432   5.144   7.827 -0.8114 -0.6025 -0.1612
  156SAPE  H15R17379   2.384   5.239   7.856  3.3475  1.3152  1.1586
  156SAPE  C21617380   2.540   5.096   7.922  0.4458 -0.6072  0.3321
  156SAPE  H16R17381   2.634   5.107   7.863  0.1687  1.9636  0.2149
  156SAPE  H16S17382   2.545   4.988   7.944  0.6698 -0.8617 -0.9082
  156SAPE  C21717383   2.557   5.177   8.050 -0.0948  0.1026  0.1539
  156SAPE  H17R17384   2.559   5.286   8.025 -0.3131 -0.2500 -1.5190
  156SAPE  H17S17385   2.658   5.151   8.088 -1.7042 -4.1874  2.0250
  156SAPE  C21817386   2.462   5.159   8.166  0.7289 -0.0356 -0.5094
  156SAPE  H18R17387   2.367   5.204   8.131  0.9220 -0.3543 -1.4932
  156SAPE  H18S17388   2.489   5.210   8.261  4.2784 -0.8135 -0.9549
  156SAPE  C21917389   2.420   5.011   8.185  0.1875 -0.3957  0.0690
  156SAPE  H19R17390   2.514   4.952   8.196  1.4501  1.7373  1.3215
  156SAPE  H19S17391   2.363   4.993   8.092 -0.4772  1.0234  0.1786
  156SAPE  C22017392   2.338   4.970   8.306  0.4992 -0.2176  0.0716
  156SAPE  H20R17393   2.291   4.869   8.300  0.2165 -0.0533 -0.5449
  156SAPE  H20S17394   2.262   5.049   8.325  1.6904  1.4716 -1.7855
  156SAPE  H20T17395   2.412   4.975   8.389 -0.0321  0.1543  0.5305
  156SAPE   C3317396   2.449   5.090   6.796 -0.6066  0.4794 -0.7009
  156SAPE   H3X17397   2.352   5.069   6.846  0.1383 -2.1403 -0.1928
  156SAPE   H3Y17398   2.424   5.121   6.693 -4.1830 -0.5044 -0.2404
  156SAPE   C3417399   2.515   5.209   6.871  0.3076 -0.0224 -0.2133
  156SAPE   H4X17400   2.462   5.304   6.851  0.3864 -0.4152 -2.5442
  156SAPE   H4Y17401   2.615   5.225   6.826  1.0499  0.1296  1.3885
  156SAPE   C3517402   2.531   5.183   7.025 -0.0167  0.3505 -0.1239
  156SAPE   H5X17403   2.605   5.104   7.045 -1.5819 -1.1109  0.1128
  156SAPE   H5Y17404   2.433   5.149   7.066 -1.6031  3.3555 -1.0388
  156SAPE   C3617405   2.557   5.318   7.091 -0.3247 -0.2673 -0.7663
  156SAPE   H6X17406   2.466   5.380   7.079 -1.1404 -1.7283 -2.4168
  156SAPE   H6Y17407   2.642   5.370   7.040 -1.5727  1.6778 -0.9627
  156SAPE   C3717408   2.576   5.291   7.245  0.6970 -0.0921 -0.1880
  156SAPE   H7X17409   2.486   5.233   7.274  1.5553 -2.5531 -2.0896
  156SAPE   H7Y17410   2.576   5.391   7.294  2.4647 -0.3888  0.5083
  156SAPE   C3817411   2.705   5.230   7.277 -0.7733 -0.0165 -0.7408
  156SAPE   H8X17412   2.793   5.293   7.250  0.5452  0.1356  3.2865
  156SAPE   H8Y17413   2.728   5.142   7.213  1.4321  0.4603 -0.6861
  156SAPE   C3917414   2.729   5.168   7.415  0.2552  0.3098 -0.1469
  156SAPE   H9X17415   2.656   5.084   7.417  3.0070 -2.3827 -2.7757
  156SAPE   H9Y17416   2.708   5.234   7.502 -0.5623  0.1882 -0.2425
  156SAPE  C31017417   2.866   5.105   7.425  0.4113 -0.3229  0.7509
  156SAPE  H10X17418   2.925   5.192   7.462 -0.1759  0.7132 -0.6731
  156SAPE  H10Y17419   2.902   5.060   7.330 -0.6434  0.3952 -0.0121
  156SAPE  C31117420   2.854   4.997   7.532  1.0499 -0.0620 -0.3962
  156SAPE  H11X17421   2.815   4.902   7.488  2.5368 -0.7351 -0.3209
  156SAPE  H11Y17422   2.783   5.035   7.608  1.6131  2.6384 -1.1237
  156SAPE  C31217423   2.989   4.971   7.601 -0.2184 -0.2229 -0.2053
  156SAPE  H12X17424   3.014   5.065   7.655 -3.5301  1.7253 -1.7638
  156SAPE  H12Y17425   3.071   4.941   7.533  0.0705 -0.6602  0.3284
  156SAPE  C31317426   2.969   4.851   7.704  0.2203 -0.1677  0.5881
  156SAPE  H13X17427   3.069   4.839   7.752  0.4650 -0.8452 -0.0562
  156SAPE  H13Y17428   2.949   4.751   7.659 -1.6956  0.6624 -0.5420
  156SAPE  C31417429   2.849   4.866   7.803 -0.4613 -0.4467 -0.3294
  156SAPE  H14X17430   2.760   4.849   7.739 -0.7756 -0.0581  0.0051
  156SAPE  H14Y17431   2.848   4.968   7.845 -1.3272 -1.0224  1.1339
  156SAPE  C31517432   2.873   4.761   7.912  0.1728 -0.5058 -0.2371
  156SAPE  H15X17433   2.975   4.763   7.956  1.1441 -2.3451 -2.2413
  156SAPE  H15Y17434   2.878   4.664   7.858  1.7678 -0.4262 -0.2613
  156SAPE  C31617435   2.751   4.736   8.013  0.2614 -0.4555  0.0704
  156SAPE  H16X17436   2.662   4.696   7.959  0.2238  0.6791 -0.7339
  156SAPE  H16Y17437   2.713   4.834   8.050 -2.2726 -1.2213 -0.2996
  156SAPE  C31717438   2.782   4.633   8.114 -0.0337 -0.3042 -0.1195
  156SAPE  H17X17439   2.823   4.540   8.069 -0.0216 -0.1112 -0.5111
  156SAPE  H17Y17440   2.687   4.608   8.167 -1.8588  1.3036 -2.4019
  156SAPE  C31817441   2.878   4.681   8.217  0.3697 -0.1433 -0.2473
  156SAPE  H18X17442   2.861   4.630   8.315 -0.3193  2.2311  0.9265
  156SAPE  H18Y17443   2.857   4.789   8.230  0.9517 -0.2960  2.4024
  156SAPE  H18Z17444   2.985   4.685   8.187  1.3294 -0.9372  2.7103
  157SAPE     N17445   6.166   0.962   6.215 -0.2099  1.0117  0.3423
  157SAPE   HN117446   6.139   0.933   6.119 -1.4469  0.2512  0.8941
  157SAPE   HN217447   6.143   1.063   6.223  0.2600  1.0153  2.1104
  157SAPE   HN317448   6.265   0.939   6.238 -0.5145  0.0874  0.7932
  157SAPE   C1217449   6.070   0.890   6.307  0.6013 -0.0888 -0.9262
  157SAPE  H12A17450   5.969   0.934   6.309  1.6865  3.1174  4.6930
  157SAPE  H12B17451   6.119   0.899   6.406  0.1801  1.0675 -0.8098
  157SAPE   C1117452   6.059   0.737   6.293 -0.4274 -0.5499  0.9371
  157SAPE  H11A17453   5.991   0.689   6.366  0.6138 -0.2744  2.1180
  157SAPE  H11B17454   6.159   0.700   6.323  1.1972 -0.4918 -3.6160
  157SAPE     P17455   5.886   0.617   6.114 -0.3794  0.0839  0.0856
  157SAPE   O1317456   5.770   0.694   6.171  0.0915  0.3017 -0.3052
  157SAPE   O1417457   5.886   0.602   5.970 -0.1771  0.0383 -0.1266
  157SAPE   O1217458   6.019   0.692   6.160 -0.5046 -0.1628 -0.1828
  157SAPE   O1117459   5.885   0.468   6.181 -0.0417  0.3366  0.2220
  157SAPE    C117460   5.970   0.360   6.152  0.2608  0.6573 -0.0423
  157SAPE    HA17461   5.930   0.293   6.073 -1.6767  3.8253 -1.9709
  157SAPE    HB17462   6.064   0.399   6.108  0.3968 -0.5460 -0.8551
  157SAPE    C217463   6.012   0.285   6.279 -0.3858 -0.0281 -0.4291
  157SAPE    HS17464   6.102   0.223   6.257 -1.8702 -3.4519  2.1802
  157SAPE   O2117465   5.913   0.199   6.332  0.1464  0.1689  0.2620
  157SAPE   C2117466   5.913   0.072   6.288 -0.4199  0.2499 -0.0789
  157SAPE   O2217467   5.981   0.023   6.202  0.2087 -0.3954  0.6846
  157SAPE   C2217468   5.800  -0.000   6.354  0.1449 -0.2722 -0.0438
  157SAPE   H2R17469   5.724   0.073   6.387  0.1308 -0.6277  0.7315
  157SAPE   H2S17470   5.762  -0.065   6.272  1.3068 -1.3004  0.2028
  157SAPE    C317471   6.050   0.388   6.386  0.8049 -0.1201 -0.0021
  157SAPE    HX17472   5.963   0.441   6.430  2.3945  1.8059  1.0189
  157SAPE    HY17473   6.100   0.467   6.326  0.5388  2.3843  2.8383
  157SAPE   O3117474   6.136   0.328   6.484  0.2522 -0.0867  0.2354
  157SAPE   C3117475   6.093   0.282   6.599 -0.7843 -0.3153  0.1316
  157SAPE   O3217476   5.981   0.280   6.637 -0.6969 -0.0100 -0.3565
  157SAPE   C3217477   6.213   0.224   6.674 -0.6424  0.0100 -0.8260
  157SAPE   H2X17478   6.293   0.300   6.680 -0.3390 -0.3612  0.1823
  157SAPE   H2Y17479   6.235   0.123   6.632 -0.9754  0.3909 -1.9439
  157SAPE   C2317480   5.837  -0.099   6.465 -0.0940 -0.8038 -0.0119
  157SAPE   H3R17481   5.894  -0.181   6.416  0.4026 -1.1077  1.0302
  157SAPE   H3S17482   5.740  -0.139   6.501  0.9780 -3.7977 -0.2281
  157SAPE   C2417483   5.917  -0.035   6.584  0.4395  0.4614 -0.4028
  157SAPE   H4R17484   5.865   0.053   6.627  0.9633  0.7198 -0.2925
  157SAPE   H4S17485   6.013   0.011   6.551  2.8832 -2.1678  2.3498
  157SAPE   C2517486   5.944  -0.150   6.681  0.0217 -0.1436  1.0841
  157SAPE   H5R17487   6.007  -0.232   6.642  0.3942  0.2071  0.9445
  157SAPE   C2617488   5.876  -0.169   6.794  0.4710 -0.3842  0.1478
  157SAPE   H6R17489   5.909  -0.254   6.855 -1.3149 -0.6353  0.8270
  157SAPE   C2717490   5.770  -0.078   6.861  0.1328 -0.5343  0.2766
  157SAPE   H7R17491   5.710  -0.132   6.938  1.1920 -2.0881  0.0428
  157SAPE   H7S17492   5.694  -0.058   6.783  0.5114  0.3227  0.1109
  157SAPE   C2817493   5.822   0.052   6.911 -0.4244  0.2055  0.8630
  157SAPE   H8R17494   5.885   0.100   6.835  1.6008 -1.6369  1.2504
  157SAPE   C2917495   5.815   0.105   7.033  0.0475 -0.3566  0.0516
  157SAPE   H9R17496   5.860   0.203   7.051  1.7143 -1.2254  0.8049
  157SAPE  C21017497   5.730   0.044   7.146  0.0129 -0.7138  0.1254
  157SAPE  H10R17498   5.627   0.020   7.111 -1.4783 -0.1168  3.6497
  157SAPE  H10S17499   5.712   0.130   7.214  2.0487 -0.3070  0.2260
  157SAPE  C21117500   5.790  -0.057   7.236 -0.1222 -0.1575 -0.8393
  157SAPE  H11R17501   5.795  -0.157   7.190  0.0153 -0.4563 -0.1955
  157SAPE  C21217502   5.837  -0.040   7.366 -0.2153  0.0621  0.4018
  157SAPE  H12R17503   5.857  -0.132   7.423 -4.2776 -0.4387  1.2983
  157SAPE  C21317504   5.832   0.093   7.446  0.4966  0.0059  0.0540
  157SAPE  H13R17505   5.836   0.177   7.374  2.6986  0.6690  0.8787
  157SAPE  H13S17506   5.926   0.108   7.503  0.0564 -0.8986  1.0622
  157SAPE  C21417507   5.715   0.107   7.540  0.6604  0.2055  0.5907
  157SAPE  H14R17508   5.615   0.103   7.496  1.8910 -0.7303 -2.3142
  157SAPE  C21517509   5.731   0.115   7.673  0.0363 -0.1412 -0.4950
  157SAPE  H15R17510   5.649   0.127   7.746  1.9558 -1.3416  1.9934
  157SAPE  C21617511   5.871   0.115   7.737  0.5206  0.0613  0.2162
  157SAPE  H16R17512   5.934   0.203   7.712 -0.2669  0.5240 -0.1966
  157SAPE  H16S17513   5.919   0.025   7.694  0.2394 -0.8913  1.8129
  157SAPE  C21717514   5.876   0.119   7.891  0.0136 -0.9033  0.1872
  157SAPE  H17R17515   5.978   0.087   7.920  1.9538  0.6844 -4.1201
  157SAPE  H17S17516   5.813   0.041   7.940 -1.7005  0.3095  0.0052
  157SAPE  C21817517   5.834   0.264   7.931 -0.0227  0.2640  0.2351
  157SAPE  H18R17518   5.733   0.287   7.891  0.6406  0.7676 -1.2623
  157SAPE  H18S17519   5.900   0.333   7.873  0.4453  0.0703  0.5379
  157SAPE  C21917520   5.829   0.310   8.079 -0.0532  0.8159 -0.1618
  157SAPE  H19R17521   5.748   0.268   8.142  1.0208  1.6705  1.8751
  157SAPE  H19S17522   5.795   0.415   8.086 -1.9403  0.3899 -1.9504
  157SAPE  C22017523   5.955   0.280   8.162  0.2202  0.1358  0.5243
  157SAPE  H20R17524   6.038   0.327   8.105 -0.3116 -0.6073 -0.9424
  157SAPE  H20S17525   5.976   0.171   8.149 -1.0847  0.0073 -0.8018
  157SAPE  H20T17526   5.940   0.301   8.270 -1.3977  0.9129  0.1723
  157SAPE   C3317527   6.179   0.192   6.825  0.0409 -0.1373  0.4687
  157SAPE   H3X17528   6.254   0.126   6.873  0.4198 -0.7861 -0.9743
  157SAPE   H3Y17529   6.085   0.132   6.827 -0.2186  0.2718  1.6418
  157SAPE   C3417530   6.164   0.314   6.918  0.6628 -0.3220  0.0586
  157SAPE   H4X17531   6.071   0.371   6.894  2.1762  1.7423 -1.2500
  157SAPE   H4Y17532   6.242   0.392   6.906  0.0311  0.2572 -0.3499
  157SAPE   C3517533   6.155   0.267   7.067  0.0088  0.4737 -0.4697
  157SAPE   H5X17534   6.253   0.226   7.098 -0.8734 -1.6907 -0.4016
  157SAPE   H5Y17535   6.089   0.178   7.061  2.2985 -1.3146 -0.3961
  157SAPE   C3617536   6.097   0.367   7.168 -0.1885  0.1016  0.2646
  157SAPE   H6X17537   5.986   0.366   7.174 -0.1976  2.6514  4.0762
  157SAPE   H6Y17538   6.121   0.475   7.158 -0.9755  0.2542 -0.0699
  157SAPE   C3717539   6.143   0.322   7.308 -0.0216  0.7814  0.7018
  157SAPE   H7X17540   6.254   0.320   7.319 -0.1854  0.2369  2.7014
  157SAPE   H7Y17541   6.121   0.215   7.328  0.2712  0.0843 -2.3043
  157SAPE   C3817542   6.082   0.406   7.414  0.5681  0.0041  0.2139
  157SAPE   H8X17543   5.973   0.389   7.427  0.1819  0.8408 -1.6972
  157SAPE   H8Y17544   6.087   0.513   7.384  1.7747 -0.2588 -0.5660
  157SAPE   C3917545   6.142   0.376   7.556  0.0232 -0.1317  0.2146
  157SAPE   H9X17546   6.249   0.405   7.551  0.0920 -0.6210 -1.8463
  157SAPE   H9Y17547   6.130   0.274   7.598  2.2026  0.1291  1.6492
  157SAPE  C31017548   6.078   0.472   7.664 -0.3814  0.1782  0.2380
  157SAPE  H10X17549   5.971   0.450   7.686 -0.6026  2.3164  1.5499
  157SAPE  H10Y17550   6.073   0.572   7.617  1.4654  0.9060  1.4764
  157SAPE  C31117551   6.159   0.478   7.795 -0.2466  0.3823  0.0410
  157SAPE  H11X17552   6.266   0.508   7.784  0.2965 -0.8716  1.5004
  157SAPE  H11Y17553   6.166   0.376   7.838 -1.5190 -0.3293 -1.3668
  157SAPE  C31217554   6.094   0.576   7.893  0.3987 -0.6176 -0.1723
  157SAPE  H12X17555   5.991   0.539   7.912 -0.4706  1.0491 -1.3805
  157SAPE  H12Y17556   6.084   0.676   7.845  1.1140 -0.7306 -0.5632
  157SAPE  C31317557   6.158   0.591   8.035  0.0293  0.6069  0.0729
  157SAPE  H13X17558   6.255   0.643   8.018  0.8636 -1.0916 -0.5414
  157SAPE  H13Y17559   6.181   0.493   8.082  0.5469  1.8775  2.7041
  157SAPE  C31417560   6.081   0.674   8.134 -0.3309  0.2766  0.6778
  157SAPE  H14X17561   5.985   0.636   8.173 -0.5728  0.5498  0.3494
  157SAPE  H14Y17562   6.054   0.772   8.090 -0.1211 -0.6585 -1.7329
  157SAPE  C31517563   6.175   0.712   8.254 -0.0114 -0.3542  1.0036
  157SAPE  H15X17564   6.139   0.802   8.307  0.0665 -0.3335  1.0220
  157SAPE  H15Y17565   6.267   0.757   8.210 -0.2654  1.7868  2.5021
  157SAPE  C31617566   6.225   0.594   8.340 -0.9024  0.0137 -0.4505
  157SAPE  H16X17567   6.300   0.529   8.289  0.1940  1.2902 -0.5426
  157SAPE  H16Y17568   6.135   0.532   8.361 -0.5790 -0.2430  0.1941
  157SAPE  C31717569   6.280   0.653   8.472 -0.9248 -0.0912 -1.0804
  157SAPE  H17X17570   6.191   0.678   8.533 -0.5960 -0.8459 -0.2626
  157SAPE  H17Y17571   6.336   0.747   8.453  0.4865 -0.4708  0.8216
  157SAPE  C31817572   6.383   0.557   8.541  0.5200 -0.2802  0.0042
  157SAPE  H18X17573   6.412   0.602   8.638 -3.5987  1.8235  0.4701
  157SAPE  H18Y17574   6.475   0.533   8.483  0.0566 -0.2733 -0.7503
  157SAPE  H18Z17575   6.329   0.462   8.560  1.0622 -0.3130  1.5315
  158SAPE     N17576   2.605   4.822   6.007 -0.5583 -0.5653 -1.0068
  158SAPE   HN117577   2.707   4.806   6.006  0.0363  2.3821  0.9976
  158SAPE   HN217578   2.568   4.825   5.909 -0.1093 -0.1778 -1.1678
  158SAPE   HN317579   2.599   4.911   6.059  1.4350 -1.0837  0.2269
  158SAPE   C1217580   2.559   4.701   6.078  0.0225 -0.3276 -0.6139
  158SAPE  H12A17581   2.595   4.709   6.182 -1.3575 -0.0338 -0.1394
  158SAPE  H12B17582   2.614   4.612   6.040 -0.6157 -1.5223  1.1694
  158SAPE   C1117583   2.408   4.679   6.073  0.5710  0.5601  0.0819
  158SAPE  H11A17584   2.373   4.648   5.972 -0.3994 -0.8457  0.8209
  158SAPE  H11B17585   2.358   4.775   6.096 -2.6124  0.2268 -4.1644
  158SAPE     P17586   2.379   4.429   6.169  0.4016  0.5009 -0.3259
  158SAPE   O1317587   2.336   4.390   6.033  0.8282  0.0402  0.3056
  158SAPE   O1417588   2.518   4.375   6.210  0.4295 -0.0025 -0.1209
  158SAPE   O1217589   2.370   4.591   6.174 -0.5083  0.4599 -0.9389
  158SAPE   O1117590   2.272   4.376   6.281 -0.4426 -0.4070 -0.1071
  158SAPE    C117591   2.280   4.447   6.407 -0.0936  0.1266 -0.2601
  158SAPE    HA17592   2.382   4.457   6.448 -1.5324 -2.1431  4.6042
  158SAPE    HB17593   2.227   4.545   6.401 -0.2187  0.2051  1.7313
  158SAPE    C217594   2.209   4.359   6.514 -0.0371  0.7396 -0.8009
  158SAPE    HS17595   2.120   4.306   6.474  0.6327 -0.8449 -0.2690
  158SAPE   O2117596   2.184   4.435   6.640 -0.5060  0.0929  0.2709
  158SAPE   C2117597   2.073   4.420   6.708  0.0120 -0.0433 -0.2005
  158SAPE   O2217598   1.978   4.357   6.671  0.2925 -0.2235 -0.3847
  158SAPE   C2217599   2.086   4.469   6.849  0.2873  0.2875 -0.3309
  158SAPE   H2R17600   2.193   4.478   6.877  0.5255 -1.4462 -0.5321
  158SAPE   H2S17601   2.038   4.568   6.860 -0.0571  0.1413 -0.4846
  158SAPE    C317602   2.308   4.246   6.552 -0.4621  0.5565 -0.2517
  158SAPE    HX17603   2.392   4.296   6.605 -0.3659  1.5175 -1.2587
  158SAPE    HY17604   2.341   4.204   6.455 -0.9097 -0.3208 -0.0355
  158SAPE   O3117605   2.253   4.138   6.637 -0.0567  0.2511  0.4295
  158SAPE   C3117606   2.351   4.039   6.667  0.0640 -0.4686  0.1396
  158SAPE   O3217607   2.467   4.043   6.638  0.2495 -0.0523  0.0500
  158SAPE   C3217608   2.287   3.919   6.735  0.0231  0.6235  0.0945
  158SAPE   H2X17609   2.367   3.859   6.784 -0.0876  0.0230 -0.4490
  158SAPE   H2Y17610   2.246   3.856   6.654 -2.5275  2.6634 -0.3276
  158SAPE   C2317611   2.016   4.375   6.949  0.5782  0.7631  0.6338
  158SAPE   H3R17612   2.065   4.276   6.950 -0.0544  0.3882 -1.4989
  158SAPE   H3S17613   1.908   4.368   6.923  0.6070  2.0915  0.0489
  158SAPE   C2417614   2.032   4.413   7.100  0.8837  0.1237  0.2896
  158SAPE   H4R17615   2.142   4.404   7.116  0.9340  1.2564  0.6308
  158SAPE   H4S17616   1.993   4.338   7.172  2.0498  1.2809  2.2227
  158SAPE   C2517617   1.995   4.553   7.131 -0.9527 -0.1136  0.6870
  158SAPE   H5R17618   2.038   4.627   7.061  1.5702  0.7929  2.9934
  158SAPE   C2617619   1.932   4.601   7.233 -0.0005 -0.2322 -0.5375
  158SAPE   H6R17620   1.914   4.705   7.263  0.8065 -0.0986 -0.5155
  158SAPE   C2717621   1.875   4.510   7.343  0.1384  0.0143 -0.0252
  158SAPE   H7R17622   1.836   4.422   7.289 -0.2148  2.4039 -4.1434
  158SAPE   H7S17623   1.793   4.573   7.383 -0.9687 -0.8280 -0.9268
  158SAPE   C2817624   1.969   4.483   7.456  0.6937 -0.0606 -0.3998
  158SAPE   H8R17625   2.071   4.493   7.416  0.8935 -2.6158 -0.6538
  158SAPE   C2917626   1.955   4.473   7.590 -0.2631  0.9573  0.1598
  158SAPE   H9R17627   2.049   4.451   7.644 -0.1769  0.8630 -0.0299
  158SAPE  C21017628   1.826   4.482   7.663 -0.2113  0.0097  0.0833
  158SAPE  H10R17629   1.789   4.378   7.669  0.8657 -0.4147 -0.4541
  158SAPE  H10S17630   1.751   4.536   7.601 -0.2381  1.6934  1.4907
  158SAPE  C21117631   1.841   4.545   7.800 -0.2024 -0.3800 -0.1212
  158SAPE  H11R17632   1.892   4.642   7.787 -2.2658  0.6831 -0.7003
  158SAPE  C21217633   1.794   4.519   7.921  0.2101  0.3626 -0.2644
  158SAPE  H12R17634   1.826   4.591   7.997  1.3678 -0.1986 -0.1995
  158SAPE  C21317635   1.712   4.404   7.973 -0.4294 -0.1519  0.5848
  158SAPE  H13R17636   1.690   4.327   7.896 -0.0322  1.0112 -0.7494
  158SAPE  H13S17637   1.611   4.442   7.996 -0.5026  0.2255 -0.3155
  158SAPE  C21417638   1.773   4.339   8.098  0.0943 -0.2878 -0.1651
  158SAPE  H14R17639   1.857   4.269   8.089  1.1248  0.6842  1.3871
  158SAPE  C21517640   1.737   4.360   8.229  0.5401  0.1917  0.5155
  158SAPE  H15R17641   1.799   4.306   8.302  2.9251 -0.2963 -1.7253
  158SAPE  C21617642   1.631   4.450   8.289  0.7389  0.0956 -0.2954
  158SAPE  H16R17643   1.612   4.542   8.230 -1.4402  0.9734  1.6374
  158SAPE  H16S17644   1.673   4.482   8.386  1.8944 -1.1483 -0.3532
  158SAPE  C21717645   1.503   4.372   8.320  0.1239  0.0592  0.9118
  158SAPE  H17R17646   1.534   4.282   8.378  1.5690  0.0817  0.2295
  158SAPE  H17S17647   1.455   4.336   8.227  1.4412  0.9278 -0.1324
  158SAPE  C21817648   1.391   4.432   8.406 -0.2481  0.4597  0.0283
  158SAPE  H18R17649   1.352   4.533   8.379  1.1392  0.8590 -0.5682
  158SAPE  H18S17650   1.443   4.444   8.504 -1.1870 -1.3782  0.7947
  158SAPE  C21917651   1.263   4.341   8.433 -0.5103 -0.5188  0.6361
  158SAPE  H19R17652   1.199   4.402   8.501 -0.3201  1.2599 -0.7003
  158SAPE  H19S17653   1.300   4.253   8.490 -1.4194 -1.1400  0.2767
  158SAPE  C22017654   1.182   4.296   8.311  0.1387 -0.1728  0.3572
  158SAPE  H20R17655   1.125   4.379   8.264 -0.0922  0.1525  1.1896
  158SAPE  H20S17656   1.116   4.213   8.346  0.7339 -0.3318  1.1488
  158SAPE  H20T17657   1.242   4.247   8.232  1.3081 -2.4279  2.5187
  158SAPE   C3317658   2.163   3.956   6.825  0.0126 -0.0876 -0.5950
  158SAPE   H3X17659   2.124   3.859   6.862  2.2437 -0.6487  0.4179
  158SAPE   H3Y17660   2.082   4.011   6.771 -1.0672  0.1771  1.2047
  158SAPE   C3417661   2.192   4.031   6.952 -0.9285  0.3425 -0.6613
  158SAPE   H4X17662   2.212   4.138   6.931 -2.7819  0.8499  0.0115
  158SAPE   H4Y17663   2.281   3.991   7.005 -1.5617  0.4686  0.5389
  158SAPE   C3517664   2.094   4.018   7.063  0.2990  0.1828 -0.1509
  158SAPE   H5X17665   2.078   3.910   7.083 -4.2110  0.6395 -0.1715
  158SAPE   H5Y17666   1.996   4.067   7.047 -0.4416 -0.6767  1.4646
  158SAPE   C3617667   2.159   4.076   7.195 -0.4691 -0.3735  0.6813
  158SAPE   H6X17668   2.177   4.185   7.179  0.3335 -1.0254 -4.5276
  158SAPE   H6Y17669   2.261   4.034   7.211  0.6623  1.1388 -1.8802
  158SAPE   C3717670   2.067   4.060   7.318  0.1021  0.0781 -0.5056
  158SAPE   H7X17671   1.975   4.119   7.300  0.3160  1.1071  1.6012
  158SAPE   H7Y17672   2.046   3.952   7.339  1.6396 -0.1406  0.0343
  158SAPE   C3817673   2.120   4.112   7.456 -0.6424 -0.3627  0.6995
  158SAPE   H8X17674   2.181   4.200   7.426  0.5785 -1.5195 -0.3709
  158SAPE   H8Y17675   2.195   4.037   7.491 -1.5678 -1.9441 -0.5620
  158SAPE   C3917676   2.015   4.123   7.569 -0.3690 -0.1170 -0.1038
  158SAPE   H9X17677   1.959   4.027   7.568  2.5948 -2.0134  0.8098
  158SAPE   H9Y17678   1.933   4.194   7.548 -1.1810 -0.9100  0.2984
  158SAPE  C31017679   2.067   4.142   7.715 -0.1980 -0.5868 -0.3479
  158SAPE  H10X17680   2.129   4.234   7.717 -0.9713 -0.0659  1.2304
  158SAPE  H10Y17681   2.141   4.063   7.741 -0.7212 -0.7180  0.8115
  158SAPE  C31117682   1.954   4.144   7.826  1.1339 -0.0487  0.1355
  158SAPE  H11X17683   1.862   4.194   7.789  1.6475  0.7244 -0.1357
  158SAPE  H11Y17684   1.983   4.213   7.908  0.4854  0.6030 -0.1637
  158SAPE  C31217685   1.909   4.008   7.887 -0.7062 -0.3554 -0.0164
  158SAPE  H12X17686   1.910   3.936   7.802 -1.7456  1.1984 -1.4251
  158SAPE  H12Y17687   1.804   4.019   7.923 -0.7176 -0.1210 -0.1171
  158SAPE  C31317688   2.000   3.974   8.001  0.7622  0.0150  0.4079
  158SAPE  H13X17689   1.995   4.037   8.093 -1.5156 -1.1457  1.1747
  158SAPE  H13Y17690   2.103   3.988   7.961  0.6794 -0.0877  0.1581
  158SAPE  C31417691   1.975   3.832   8.055  0.0534  0.0503 -0.5689
  158SAPE  H14X17692   1.972   3.769   7.963  1.0632 -0.0403 -0.5523
  158SAPE  H14Y17693   1.878   3.839   8.109  0.8365  1.5598  0.7079
  158SAPE  C31517694   2.082   3.774   8.147 -0.6571  0.4008 -0.6293
  158SAPE  H15X17695   2.081   3.844   8.233 -0.6108 -0.8404  0.4027
  158SAPE  H15Y17696   2.185   3.769   8.106  0.0757 -0.1389  1.1778
  158SAPE  C31617697   2.060   3.634   8.205 -0.4675 -0.2472 -1.4165
  158SAPE  H16X17698   2.052   3.556   8.126 -0.2040 -0.6225 -1.0738
  158SAPE  H16Y17699   1.963   3.641   8.258 -1.6601 -0.0554 -3.5201
  158SAPE  C31717700   2.171   3.585   8.305 -0.2039 -0.1772  0.6956
  158SAPE  H17X17701   2.187   3.663   8.382  1.0881  1.6892 -1.3340
  158SAPE  H17Y17702   2.265   3.577   8.246  1.0195 -0.1665  2.5464
  158SAPE  C31817703   2.144   3.454   8.372  0.2256 -0.7431 -0.0050
  158SAPE  H18X17704   2.042   3.455   8.414 -1.1757  0.3565 -3.1372
  158SAPE  H18Y17705   2.211   3.421   8.455 -0.3673 -2.3878 -0.1301
  158SAPE  H18Z17706   2.145   3.368   8.301  3.1938  0.0596 -1.1035
  159SAPE     N17707   0.092   6.469   6.081 -0.1450 -0.4013  0.1442
  159SAPE   HN117708   0.058   6.565   6.099  1.5438  0.5208 -1.3020
  159SAPE   HN217709   0.086   6.423   6.174  2.9681  0.8646  1.0935
  159SAPE   HN317710   0.194   6.477   6.067 -0.3126  0.8386 -0.5170
  159SAPE   C1217711   0.007   6.418   5.965 -0.2016  0.1979 -0.1109
  159SAPE  H12A17712   0.060   6.338   5.910  0.5239  1.7069 -1.7123
  159SAPE  H12B17713   0.007   6.498   5.888  0.6578 -0.5888 -0.9552
  159SAPE   C1117714  -0.138   6.383   6.014 -0.0920 -0.1060 -0.3611
  159SAPE  H11A17715  -0.132   6.290   6.074  2.1326 -0.7215 -1.4215
  159SAPE  H11B17716  -0.192   6.357   5.921 -1.2137  2.0671 -0.3770
  159SAPE     P17717  -0.265   6.600   5.995 -0.2415 -0.0930 -0.1831
  159SAPE   O1317718  -0.170   6.663   5.896  0.1277  0.2947  0.2273
  159SAPE   O1417719  -0.390   6.530   5.954 -0.3897  0.5400  0.0958
  159SAPE   O1217720  -0.195   6.490   6.084 -0.6936 -0.0713  0.0083
  159SAPE   O1117721  -0.307   6.699   6.106 -0.0766  0.5124 -0.1787
  159SAPE    C117722  -0.389   6.652   6.214 -0.2855  0.6133  0.0577
  159SAPE    HA17723  -0.494   6.679   6.188 -0.3941  0.5213  0.3828
  159SAPE    HB17724  -0.388   6.542   6.230 -1.0279  0.9985  3.8635
  159SAPE    C217725  -0.337   6.701   6.354 -0.3723  0.6127 -0.7385
  159SAPE    HS17726  -0.403   6.656   6.431  0.8752 -0.1138 -0.0538
  159SAPE   O2117727  -0.322   6.843   6.365 -0.0432  0.0682  0.2063
  159SAPE   C2117728  -0.429   6.907   6.367  1.2975 -1.0340 -0.1770
  159SAPE   O2217729  -0.542   6.859   6.368  0.4779  0.2219  0.0855
  159SAPE   C2217730  -0.410   7.057   6.388 -0.1598 -0.0353  0.6484
  159SAPE   H2R17731  -0.417   7.108   6.289 -0.1830 -0.6448  0.3300
  159SAPE   H2S17732  -0.499   7.104   6.436  0.4503  0.3789  1.3870
  159SAPE    C317733  -0.194   6.638   6.380  0.2245  0.1749  0.5635
  159SAPE    HX17734  -0.122   6.689   6.313  0.7429  0.7001  1.4975
  159SAPE    HY17735  -0.205   6.531   6.352  0.9970  0.5619 -1.3355
  159SAPE   O3117736  -0.161   6.651   6.521  0.3385  0.2438 -1.2114
  159SAPE   C3117737  -0.086   6.752   6.558 -0.1578  0.4536 -0.1034
  159SAPE   O3217738  -0.039   6.839   6.481  0.1388  0.3454  0.4178
  159SAPE   C3217739  -0.056   6.751   6.708  0.3219  0.3284  0.1531
  159SAPE   H2X17740   0.021   6.672   6.722  0.5541  0.5412  0.0863
  159SAPE   H2Y17741  -0.145   6.711   6.761  0.2135 -2.1946 -1.7190
  159SAPE   C2317742  -0.284   7.101   6.471  0.0851  0.2458 -0.0929
  159SAPE   H3R17743  -0.189   7.056   6.435 -0.3814 -0.4815 -0.4504
  159SAPE   H3S17744  -0.294   7.053   6.570 -1.6700 -1.6807 -1.1324
  159SAPE   C2417745  -0.269   7.256   6.477 -0.5480  0.3550  0.2575
  159SAPE   H4R17746  -0.253   7.293   6.373  0.6940  0.6804  0.5587
  159SAPE   H4S17747  -0.167   7.269   6.519 -0.9532 -2.1555  2.2688
  159SAPE   C2517748  -0.372   7.320   6.569  0.5808  0.2576  0.0954
  159SAPE   H5R17749  -0.461   7.359   6.519  0.5912 -1.0926 -1.0569
  159SAPE   C2617750  -0.359   7.311   6.704 -0.9145  0.3419  0.5402
  159SAPE   H6R17751  -0.447   7.349   6.759  0.3871 -0.5010  3.3663
  159SAPE   C2717752  -0.249   7.248   6.790  0.0338  0.5037  0.1046
  159SAPE   H7R17753  -0.194   7.336   6.828 -1.7759  1.2854  1.0276
  159SAPE   H7S17754  -0.187   7.172   6.737 -0.5897 -1.0851  1.5317
  159SAPE   C2817755  -0.328   7.180   6.905 -0.1178  0.4534 -0.3965
  159SAPE   H8R17756  -0.407   7.107   6.885  0.9193 -1.1884  1.2100
  159SAPE   C2917757  -0.309   7.210   7.039 -0.9385 -0.6955  0.7982
  159SAPE   H9R17758  -0.372   7.167   7.118  0.6609  0.5290  2.8513
  159SAPE  C21017759  -0.209   7.300   7.101 -0.3630  0.6523  0.8767
  159SAPE  H10R17760  -0.252   7.401   7.119  1.1824  1.2782  1.1590
  159SAPE  H10S17761  -0.121   7.325   7.039  0.4071 -0.9095  1.2930
  159SAPE  C21117762  -0.141   7.239   7.220  0.2069 -0.4544  0.3256
  159SAPE  H11R17763  -0.134   7.129   7.211  0.1296 -0.4103 -0.2949
  159SAPE  C21217764  -0.084   7.300   7.327  0.2049 -0.2705 -0.8272
  159SAPE  H12R17765  -0.034   7.248   7.411 -1.8134  0.3675  0.8607
  159SAPE  C21317766  -0.092   7.451   7.331 -0.3782 -0.2308 -0.3747
  159SAPE  H13R17767  -0.198   7.485   7.330 -0.5593 -0.5393  2.4081
  159SAPE  H13S17768  -0.054   7.499   7.238 -0.8383  1.9737  0.5273
  159SAPE  C21417769  -0.023   7.515   7.446  0.2324  0.2895  0.0759
  159SAPE  H14R17770   0.060   7.581   7.416 -0.7821  0.1785 -3.5134
  159SAPE  C21517771  -0.070   7.502   7.574 -0.2197 -0.4999 -0.0161
  159SAPE  H15R17772  -0.002   7.552   7.645 -0.1916 -0.7671  0.1445
  159SAPE  C21617773  -0.189   7.420   7.608 -0.3430  0.1938 -0.3604
  159SAPE  H16R17774  -0.154   7.318   7.636 -0.9997  0.7298  2.7924
  159SAPE  H16S17775  -0.261   7.411   7.523  0.7116 -1.8853 -1.1144
  159SAPE  C21717776  -0.279   7.462   7.734 -0.3561 -0.4638  0.2327
  159SAPE  H17R17777  -0.372   7.402   7.733 -0.1607 -0.7986  1.1840
  159SAPE  H17S17778  -0.308   7.567   7.710  0.3854 -0.5992 -1.4114
  159SAPE  C21817779  -0.210   7.441   7.867  0.3952 -0.1143  0.0442
  159SAPE  H18R17780  -0.143   7.526   7.892 -0.3360  0.8047 -1.0606
  159SAPE  H18S17781  -0.151   7.347   7.855 -0.7202 -0.6424 -1.5659
  159SAPE  C21917782  -0.307   7.414   7.990  0.1622 -0.6758 -0.8045
  159SAPE  H19R17783  -0.385   7.342   7.961 -1.2083  0.6044 -0.4052
  159SAPE  H19S17784  -0.355   7.512   8.011  0.6760 -0.2884 -1.4006
  159SAPE  C22017785  -0.228   7.357   8.112  0.1065 -0.2821 -0.2136
  159SAPE  H20R17786  -0.194   7.253   8.089 -1.1489 -0.9863  0.9744
  159SAPE  H20S17787  -0.288   7.355   8.205  0.4383  0.1986  0.0160
  159SAPE  H20T17788  -0.125   7.396   8.128  0.8021 -2.3451  0.7809
  159SAPE   C3317789  -0.005   6.888   6.770  0.5711 -0.0198  0.7460
  159SAPE   H3X17790  -0.061   6.973   6.727  1.5532  0.2194 -0.0844
  159SAPE   H3Y17791   0.103   6.905   6.751 -0.0784  1.8737 -1.7689
  159SAPE   C3417792  -0.037   6.896   6.913 -0.4687 -0.4717  0.5219
  159SAPE   H4X17793  -0.148   6.897   6.926 -0.3952  0.3717  1.2258
  159SAPE   H4Y17794  -0.003   6.990   6.962  0.0326 -0.7678  0.7457
  159SAPE   C3517795   0.035   6.781   6.991  0.0071  0.2466  0.6821
  159SAPE   H5X17796   0.124   6.750   6.931 -0.3857  0.2984  0.0653
  159SAPE   H5Y17797  -0.032   6.694   6.981  0.7580 -0.2026 -0.7451
  159SAPE   C3617798   0.095   6.802   7.130  0.1756 -1.0500  0.0712
  159SAPE   H6X17799   0.166   6.887   7.123 -2.5751  1.4938  1.4272
  159SAPE   H6Y17800   0.149   6.710   7.164  0.8217 -0.4414  0.7208
  159SAPE   C3717801  -0.009   6.857   7.226  0.4846  0.4705  0.1326
  159SAPE   H7X17802  -0.060   6.772   7.277  0.1022 -0.5710 -1.8839
  159SAPE   H7Y17803  -0.083   6.921   7.173  0.3051  1.8999  1.9791
  159SAPE   C3817804   0.046   6.948   7.341 -0.1289  0.3005  0.7107
  159SAPE   H8X17805   0.070   7.041   7.286  2.4332 -0.2027  0.8311
  159SAPE   H8Y17806   0.141   6.898   7.370 -0.4990 -1.4827 -0.9139
  159SAPE   C3917807  -0.044   6.971   7.462 -0.2783 -0.4810  0.1317
  159SAPE   H9X17808  -0.066   6.866   7.491 -1.9878 -0.1424  0.1580
  159SAPE   H9Y17809  -0.143   7.018   7.449  1.1328  2.7323  0.0773
  159SAPE  C31017810   0.033   7.039   7.574 -0.0146  0.3401 -0.3087
  159SAPE  H10X17811   0.063   7.144   7.558  1.9658 -0.2000 -0.4035
  159SAPE  H10Y17812   0.122   6.976   7.595  0.0162  0.8668  1.2876
  159SAPE  C31117813  -0.042   7.039   7.702 -0.0460  0.0115  0.1613
  159SAPE  H11X17814  -0.062   6.936   7.737  1.4731 -1.4494 -2.9252
  159SAPE  H11Y17815  -0.131   7.106   7.701 -0.7428 -0.9047 -1.0727
  159SAPE  C31217816   0.050   7.094   7.819  0.0813 -0.4664 -0.5163
  159SAPE  H12X17817   0.060   7.202   7.796  0.0528 -0.0804  1.1620
  159SAPE  H12Y17818   0.146   7.038   7.812  0.0404 -0.6857  0.5108
  159SAPE  C31317819  -0.009   7.070   7.960 -0.1576 -0.0987 -0.5281
  159SAPE  H13X17820  -0.052   6.968   7.969 -0.9082  0.3355  1.2394
  159SAPE  H13Y17821  -0.096   7.137   7.975  1.1585  1.1030  2.8984
  159SAPE  C31417822   0.090   7.102   8.071 -1.0088 -0.1208 -0.4712
  159SAPE  H14X17823   0.111   7.211   8.076 -2.7346  0.1851  2.7020
  159SAPE  H14Y17824   0.184   7.048   8.043 -0.2230  1.7220 -1.5745
  159SAPE  C31517825   0.020   7.066   8.200  0.6402 -0.2346 -0.2490
  159SAPE  H15X17826  -0.038   6.972   8.187  0.7727 -0.2605 -0.6617
  159SAPE  H15Y17827  -0.049   7.147   8.231 -4.1813 -3.8605 -0.2501
  159SAPE  C31617828   0.115   7.015   8.311 -0.5912 -0.6359 -0.3965
  159SAPE  H16X17829   0.175   6.929   8.272  0.9382  0.8044 -1.3712
  159SAPE  H16Y17830   0.055   6.980   8.398  0.0486 -1.8711 -0.4181
  159SAPE  C31717831   0.206   7.129   8.361  0.2992  0.0768 -0.4457
  159SAPE  H17X17832   0.144   7.211   8.404  1.9900  0.9654  0.4299
  159SAPE  H17Y17833   0.279   7.161   8.284  1.1839  1.2744  0.8381
  159SAPE  C31817834   0.302   7.091   8.473  0.0298 -0.6421 -0.2227
  159SAPE  H18X17835   0.360   7.180   8.507 -0.3592 -0.6343  0.4316
  159SAPE  H18Y17836   0.377   7.013   8.449  2.2987  0.7860  1.7377
  159SAPE  H18Z17837   0.240   7.050   8.555  1.0969 -1.6017  0.1307
  160SAPE     N17838   2.022   6.188   6.384  0.0995  0.5967 -0.4149
  160SAPE   HN117839   2.021   6.290   6.364 -0.8611  0.9434  1.2054
  160SAPE   HN217840   2.005   6.177   6.487  1.6822 -1.3487 -0.2877
  160SAPE   HN317841   2.111   6.142   6.357 -1.2004 -1.8250 -0.9143
  160SAPE   C1217842   1.907   6.123   6.316 -0.0452 -0.2764 -0.8495
  160SAPE  H12A17843   1.924   6.148   6.209  0.3744 -0.3064 -0.7904
  160SAPE  H12B17844   1.816   6.173   6.356  0.9415  2.0344 -1.3676
  160SAPE   C1117845   1.895   5.967   6.327 -0.4413  0.3124 -0.0355
  160SAPE  H11A17846   1.810   5.938   6.261 -1.5685 -1.8679  2.2240
  160SAPE  H11B17847   1.868   5.948   6.433 -0.1783  0.7973  0.1234
  160SAPE     P17848   2.070   5.766   6.325  0.1592 -0.0977  0.2101
  160SAPE   O1317849   1.973   5.665   6.276  0.2247 -0.3339  0.3102
  160SAPE   O1417850   2.207   5.756   6.268 -0.6994  0.5018  0.4668
  160SAPE   O1217851   2.019   5.910   6.288 -0.3202  0.0580 -0.1160
  160SAPE   O1117852   2.070   5.770   6.483  0.1675  0.3011 -0.1277
  160SAPE    C117853   2.170   5.832   6.560 -0.2000 -0.2786 -0.1675
  160SAPE    HA17854   2.267   5.780   6.544 -0.5176 -1.4593  1.4537
  160SAPE    HB17855   2.164   5.939   6.529 -1.8390 -0.4259 -0.4581
  160SAPE    C217856   2.130   5.815   6.705 -0.0269  0.0600 -0.8512
  160SAPE    HS17857   2.120   5.707   6.726 -0.2772  0.4475  1.2778
  160SAPE   O2117858   2.010   5.891   6.722 -0.0991 -0.2336  0.4098
  160SAPE   C2117859   1.927   5.843   6.811 -0.2374 -0.6636 -0.1404
  160SAPE   O2217860   1.957   5.758   6.897 -0.1564 -0.6467  0.2147
  160SAPE   C2217861   1.790   5.916   6.802  0.4412  0.8504 -0.0545
  160SAPE   H2R17862   1.807   6.008   6.860  0.1900  0.7584  0.1659
  160SAPE   H2S17863   1.762   5.934   6.696 -3.0882 -1.2930  0.3147
  160SAPE    C317864   2.242   5.880   6.788  0.0295  0.2097  0.2152
  160SAPE    HX17865   2.246   5.987   6.757  0.7719 -0.3555 -1.7826
  160SAPE    HY17866   2.339   5.835   6.760 -1.3523 -2.2571 -0.8491
  160SAPE   O3117867   2.216   5.869   6.929 -0.2005 -0.0524 -0.0144
  160SAPE   C3117868   2.240   5.753   6.979  0.8955  0.2891 -0.2137
  160SAPE   O3217869   2.287   5.657   6.920 -0.3253 -0.1683 -0.3847
  160SAPE   C3217870   2.201   5.743   7.131 -0.6598  0.0338 -0.0346
  160SAPE   H2X17871   2.102   5.693   7.134 -0.3416 -0.5838  0.3719
  160SAPE   H2Y17872   2.184   5.844   7.175  1.0843  0.2535  0.2190
  160SAPE   C2317873   1.678   5.818   6.864 -0.0389 -0.2362 -1.1737
  160SAPE   H3R17874   1.718   5.792   6.964  2.5133 -1.9563 -2.5307
  160SAPE   H3S17875   1.686   5.722   6.810  0.5201 -0.4463 -0.7311
  160SAPE   C2417876   1.532   5.871   6.869  0.0275  0.6043  0.1172
  160SAPE   H4R17877   1.463   5.791   6.904  0.0261  0.1692 -0.8596
  160SAPE   H4S17878   1.489   5.904   6.772  1.9151  1.7480 -0.3733
  160SAPE   C2517879   1.530   5.986   6.967  0.4057  0.1724 -0.0106
  160SAPE   H5R17880   1.570   6.077   6.919 -1.5336 -0.1187 -2.3759
  160SAPE   C2617881   1.474   5.973   7.090  0.4336 -0.5188 -0.8380
  160SAPE   H6R17882   1.468   6.060   7.157  4.7507  2.1482 -3.4255
  160SAPE   C2717883   1.415   5.846   7.153 -0.3508 -0.2570 -0.0506
  160SAPE   H7R17884   1.439   5.849   7.262 -0.4946  1.7390 -0.0391
  160SAPE   H7S17885   1.470   5.755   7.119  1.8654  0.2214  1.9452
  160SAPE   C2817886   1.264   5.836   7.137 -0.0937  1.1466  0.7106
  160SAPE   H8R17887   1.228   5.856   7.036 -0.0880 -0.2161  0.4198
  160SAPE   C2917888   1.172   5.813   7.238  0.0778  0.4556  0.3928
  160SAPE   H9R17889   1.066   5.799   7.212  0.5931 -0.7415 -1.2109
  160SAPE  C21017890   1.205   5.812   7.384 -0.4787  0.9902  0.2587
  160SAPE  H10R17891   1.286   5.736   7.395 -1.7098 -0.1848  1.6958
  160SAPE  H10S17892   1.120   5.763   7.437  0.0059 -0.5646 -0.3525
  160SAPE  C21117893   1.234   5.944   7.457  0.3609 -0.0412 -0.4216
  160SAPE  H11R17894   1.165   6.028   7.440  1.1500  0.6228 -0.4116
  160SAPE  C21217895   1.334   5.976   7.538  0.5959  0.1812 -0.0440
  160SAPE  H12R17896   1.339   6.078   7.579 -1.4256 -0.2061  1.2694
  160SAPE  C21317897   1.459   5.892   7.575 -0.6262 -0.5379  0.2798
  160SAPE  H13R17898   1.481   5.822   7.491  0.1765 -0.4256  0.3832
  160SAPE  H13S17899   1.425   5.842   7.667 -1.1973  0.1040  0.4250
  160SAPE  C21417900   1.587   5.964   7.609  0.0071  0.1344 -0.2017
  160SAPE  H14R17901   1.668   5.957   7.535  0.6537  1.1134  0.3960
  160SAPE  C21517902   1.602   6.048   7.708 -0.3999 -0.1727  0.4118
  160SAPE  H15R17903   1.701   6.088   7.736 -0.3880  0.5809 -0.6477
  160SAPE  C21617904   1.497   6.091   7.805 -0.0940  0.4811  0.3516
  160SAPE  H16R17905   1.540   6.064   7.903  0.2453 -0.1533  0.0363
  160SAPE  H16S17906   1.393   6.052   7.794 -0.2481  0.6909  1.0156
  160SAPE  C21717907   1.493   6.245   7.801 -1.0969  0.2253  0.7179
  160SAPE  H17R17908   1.448   6.288   7.709 -0.2602  0.7511  0.5505
  160SAPE  H17S17909   1.589   6.294   7.827  0.3134 -1.4062 -1.0808
  160SAPE  C21817910   1.394   6.292   7.911 -0.1304 -0.0672 -1.3028
  160SAPE  H18R17911   1.289   6.257   7.919 -0.0257 -0.3756 -1.2431
  160SAPE  H18S17912   1.387   6.403   7.908 -0.1361 -0.0019  0.1205
  160SAPE  C21917913   1.461   6.272   8.050 -0.1320  0.7164 -0.7104
  160SAPE  H19R17914   1.565   6.310   8.063  0.3855 -1.2491  1.5885
  160SAPE  H19S17915   1.471   6.162   8.066 -1.1578  0.6020 -0.7876
  160SAPE  C22017916   1.379   6.322   8.173 -0.5260  0.2687 -0.3005
  160SAPE  H20R17917   1.269   6.309   8.167 -0.6150  0.7361  0.2894
  160SAPE  H20S17918   1.404   6.429   8.185  0.1371  0.1560 -0.5728
  160SAPE  H20T17919   1.415   6.260   8.258 -0.3089 -0.5634 -0.9745
  160SAPE   C3317920   2.297   5.665   7.220  0.3724  0.1161 -0.9908
  160SAPE   H3X17921   2.396   5.716   7.223  1.3930 -1.8235  2.2560
  160SAPE   H3Y17922   2.324   5.562   7.189  2.3855  0.0843  0.7051
  160SAPE   C3417923   2.256   5.646   7.370  0.4135 -0.4971  0.4741
  160SAPE   H4X17924   2.171   5.576   7.379 -0.3692  0.7299  5.0984
  160SAPE   H4Y17925   2.227   5.741   7.420 -1.1404 -1.7530  2.0827
  160SAPE   C3517926   2.380   5.587   7.440  0.1556  0.5856  0.1451
  160SAPE   H5X17927   2.464   5.655   7.414 -1.4682  3.2326  1.2885
  160SAPE   H5Y17928   2.381   5.483   7.402 -0.4029 -0.0482  1.7737
  160SAPE   C3617929   2.371   5.573   7.591  0.2908  0.3466 -0.1762
  160SAPE   H6X17930   2.390   5.674   7.632  2.4807 -0.0462 -0.1235
  160SAPE   H6Y17931   2.450   5.511   7.639  0.9452  0.9242 -0.4977
  160SAPE   C3717932   2.238   5.509   7.635 -0.2834 -0.0536  0.4168
  160SAPE   H7X17933   2.225   5.407   7.592 -0.5681  0.5817 -1.0547
  160SAPE   H7Y17934   2.151   5.575   7.613 -0.3010 -0.8896 -2.3419
  160SAPE   C3817935   2.235   5.485   7.790  0.4905 -0.5298  0.3261
  160SAPE   H8X17936   2.249   5.582   7.842 -0.9762 -0.4494  0.6131
  160SAPE   H8Y17937   2.317   5.414   7.817  0.7217 -0.9464 -1.3426
  160SAPE   C3917938   2.104   5.416   7.824 -0.5329 -0.1519  0.1217
  160SAPE   H9X17939   2.090   5.340   7.743  0.4730 -0.2927  0.0684
  160SAPE   H9Y17940   2.019   5.488   7.820  0.0463  0.5252 -0.1041
  160SAPE  C31017941   2.111   5.328   7.957 -0.2636  0.6321  0.0021
  160SAPE  H10X17942   2.167   5.233   7.950  0.3187  0.9719 -0.0547
  160SAPE  H10Y17943   2.006   5.300   7.980 -0.1736  1.6161  1.8657
  160SAPE  C31117944   2.172   5.404   8.075  0.0863 -0.7762 -0.2445
  160SAPE  H11X17945   2.129   5.505   8.059 -1.9186 -1.5671 -0.2082
  160SAPE  H11Y17946   2.282   5.408   8.067  0.1473  0.4310  0.9546
  160SAPE  C31217947   2.136   5.337   8.204 -0.6027  0.3510 -0.8530
  160SAPE  H12X17948   2.186   5.240   8.225  0.2436  1.1302  0.9393
  160SAPE  H12Y17949   2.034   5.297   8.223  0.7761 -2.3686  1.6482
  160SAPE  C31317950   2.176   5.414   8.333 -1.4840 -0.1476  0.0884
  160SAPE  H13X17951   2.281   5.440   8.309 -1.2101 -1.8138 -0.5856
  160SAPE  H13Y17952   2.172   5.348   8.422  0.8414 -0.7506 -0.1894
  160SAPE  C31417953   2.096   5.538   8.352 -0.0567  0.1885 -0.4961
  160SAPE  H14X17954   1.989   5.509   8.350  0.1522 -0.7706  0.9548
  160SAPE  H14Y17955   2.120   5.608   8.270  0.8819  0.1269 -0.2901
  160SAPE  C31517956   2.138   5.595   8.487  0.5762 -0.2652  0.1717
  160SAPE  H15X17957   2.249   5.599   8.489  0.6076  2.6502 -1.3761
  160SAPE  H15Y17958   2.110   5.523   8.566  2.3493 -0.4838  0.6455
  160SAPE  C31617959   2.072   5.729   8.514 -0.0374  0.0484  0.8797
  160SAPE  H16X17960   1.962   5.734   8.495 -0.9769 -3.7293  3.8467
  160SAPE  H16Y17961   2.122   5.808   8.455 -0.0665 -0.5111  0.0946
  160SAPE  C31717962   2.069   5.770   8.664  0.4976 -0.0788 -0.2018
  160SAPE  H17X17963   2.174   5.779   8.699  0.1966 -1.2191  1.0693
  160SAPE  H17Y17964   2.022   5.690   8.724 -0.6108  0.4151 -0.3775
  160SAPE  C31817965   1.984   5.900   8.675  0.1003  0.0122 -0.0235
  160SAPE  H18X17966   1.876   5.877   8.668  0.1334  0.0269 -0.6263
  160SAPE  H18Y17967   2.018   5.977   8.603 -0.3958 -0.4154 -0.7167
  160SAPE  H18Z17968   2.007   5.947   8.773  1.7939 -0.2079 -0.2792
  161SOPE     N17969   1.468   0.994  10.851 -0.2044  0.5975  0.0128
  161SOPE   HN117970   1.550   1.045  10.810  1.2563 -2.2262 -0.8597
  161SOPE   HN217971   1.397   1.048  10.904 -0.5353 -0.9180  1.1892
  161SOPE   HN317972   1.499   0.919  10.916  2.3292  0.3066 -1.3860
  161SOPE   C1217973   1.391   0.928  10.741 -0.1322  0.1152 -0.0435
  161SOPE  H12A17974   1.449   0.833  10.729  0.8017  0.3256  2.3080
  161SOPE  H12B17975   1.397   0.979  10.643  1.1727 -0.5632 -0.3414
  161SOPE   C1117976   1.253   0.883  10.788 -0.2803 -0.3181  0.2519
  161SOPE  H11A17977   1.257   0.842  10.892 -0.1456  2.1670  1.3128
  161SOPE  H11B17978   1.219   0.799  10.724 -2.2846 -0.3281  1.2521
  161SOPE     P17979   1.060   1.000  10.668 -0.3060 -0.0525  0.1125
  161SOPE   O1317980   0.991   1.131  10.672  0.2167 -0.3408 -0.2305
  161SOPE   O1417981   0.971   0.883  10.652 -0.9226  0.0930 -0.2096
  161SOPE   O1217982   1.159   0.987  10.787  0.3518 -0.1986  0.3885
  161SOPE   O1117983   1.157   0.994  10.543  0.6023 -0.1497  0.3687
  161SOPE    C117984   1.143   1.067  10.424  0.1056  0.1602 -0.0151
  161SOPE    HA17985   1.245   1.065  10.380 -1.3117  1.6433 -3.8171
  161SOPE    HB17986   1.117   1.175  10.433 -0.2059  0.2916 -1.9904
  161SOPE    C217987   1.031   1.010  10.329  0.4270 -0.6656  0.0339
  161SOPE    HS17988   0.939   1.019  10.391  0.5510  0.6182  0.0694
  161SOPE   O2117989   1.078   0.878  10.310 -0.1291  0.2917 -0.1636
  161SOPE   C2117990   0.986   0.791  10.274 -0.3458  0.2620  0.3818
  161SOPE   O2217991   0.868   0.820  10.265  0.3122  0.3664  0.0220
  161SOPE   C2217992   1.048   0.658  10.242 -1.2516 -0.5332  0.1707
  161SOPE   H2R17993   0.966   0.588  10.219 -2.2348  0.5873  0.1408
  161SOPE   H2S17994   1.104   0.621  10.331 -1.3979 -1.6062 -0.1784
  161SOPE    C317995   1.021   1.092  10.206  0.6519  0.3101 -0.4930
  161SOPE    HX17996   1.128   1.111  10.182  0.0234  2.4260 -1.9688
  161SOPE    HY17997   0.979   1.189  10.239  1.5635 -0.6626  4.3144
  161SOPE   O3117998   0.962   1.032  10.095 -0.4691 -0.2916 -0.3323
  161SOPE   C3117999   0.831   1.050  10.086  0.3277  0.1172 -0.3093
  161SOPE   O3218000   0.755   1.121  10.156 -0.5195  0.1006  0.9496
  161SOPE   C3218001   0.782   0.977   9.968 -0.1283  0.6244  0.1725
  161SOPE   H2X18002   0.674   0.952   9.970 -0.0343  0.0605 -1.0855
  161SOPE   H2Y18003   0.825   0.875   9.971 -0.0685  0.6317 -0.4034
  161SOPE   C2318004   1.161   0.678  10.136  0.1772 -0.1743  0.3295
  161SOPE   H3R18005   1.213   0.584  10.108 -0.0848  0.4683 -2.7744
  161SOPE   H3S18006   1.240   0.747  10.173  1.5308 -1.6603  0.3057
  161SOPE   C2418007   1.109   0.729  10.001 -0.6909  0.1141  0.3873
  161SOPE   H4R18008   1.009   0.686   9.981  0.9196 -2.2136 -3.6820
  161SOPE   H4S18009   1.096   0.839  10.011  1.9136  0.6469 -1.1177
  161SOPE   C2518010   1.200   0.694   9.879 -0.2908  0.3309  0.5370
  161SOPE   H5R18011   1.303   0.735   9.895  1.3291 -2.3994 -1.8214
  161SOPE   H5S18012   1.223   0.588   9.854  3.1661  1.4474 -1.9641
  161SOPE   C2618013   1.153   0.764   9.751 -0.1681 -0.2173 -0.3487
  161SOPE   H6R18014   1.056   0.714   9.727  0.7598 -1.8365 -0.9674
  161SOPE   H6S18015   1.128   0.869   9.775  3.0135  0.5705 -0.0548
  161SOPE   C2718016   1.240   0.755   9.621 -0.0119  0.6876  0.2026
  161SOPE   H7R18017   1.341   0.789   9.652 -0.2827  1.1575  0.5905
  161SOPE   H7S18018   1.243   0.645   9.606  1.2945  0.7187  0.1128
  161SOPE   C2818019   1.176   0.833   9.504 -0.6512 -0.5375  0.0685
  161SOPE   H8R18020   1.071   0.798   9.496 -0.2393 -1.8945  0.2721
  161SOPE   H8S18021   1.177   0.940   9.535 -0.0543  0.4724 -3.0629
  161SOPE   C2918022   1.239   0.830   9.367 -0.7109  0.5859 -1.1437
  161SOPE   H9118023   1.345   0.801   9.375 -1.4088 -1.8677  0.1319
  161SOPE  C21018024   1.184   0.851   9.247  0.0239 -0.3308  0.0532
  161SOPE  H10118025   1.238   0.833   9.153  1.3960  1.1222  0.5239
  161SOPE  C21118026   1.036   0.880   9.223 -0.0610  0.4382  0.5724
  161SOPE  H11R18027   0.982   0.849   9.314  1.2886 -0.9559  0.9443
  161SOPE  H11S18028   1.007   0.813   9.139 -0.0169  0.6698  0.3738
  161SOPE  C21218029   1.008   1.024   9.186  0.2084  0.1898  0.1401
  161SOPE  H12R18030   1.082   1.057   9.111  0.6155  0.1769  0.5356
  161SOPE  H12S18031   1.020   1.098   9.267  0.0179  0.3533  0.0198
  161SOPE  C21318032   0.868   1.038   9.134 -0.9408 -0.1130  0.6279
  161SOPE  H13R18033   0.811   1.123   9.176 -2.6057 -1.2898  0.8454
  161SOPE  H13S18034   0.807   0.946   9.150 -0.1064 -0.7907  0.0435
  161SOPE  C21418035   0.861   1.063   8.983 -0.2458 -0.2219 -0.2748
  161SOPE  H14R18036   0.888   0.973   8.925  1.2992 -0.6205  0.9784
  161SOPE  H14S18037   0.924   1.151   8.955 -0.2496  0.1985  0.9605
  161SOPE  C21518038   0.721   1.102   8.940 -0.1003  0.7999  0.1447
  161SOPE  H15R18039   0.695   1.206   8.968 -1.0082  1.5104 -2.9390
  161SOPE  H15S18040   0.643   1.030   8.972 -2.0573  1.4854 -2.6826
  161SOPE  C21618041   0.706   1.100   8.780 -0.1861  0.0508 -0.1706
  161SOPE  H16R18042   0.607   1.135   8.746  0.6892  0.2891 -2.6615
  161SOPE  H16S18043   0.724   0.997   8.741 -2.9965  0.0472 -1.6975
  161SOPE  C21718044   0.791   1.208   8.710 -0.9760 -0.2009  0.2541
  161SOPE  H17R18045   0.894   1.166   8.722 -0.9797 -0.7151 -1.2460
  161SOPE  H17S18046   0.789   1.308   8.757 -0.1269 -0.9936  2.1132
  161SOPE  C21818047   0.765   1.234   8.561 -0.6820  0.1758 -0.5276
  161SOPE  H18R18048   0.678   1.301   8.545 -2.4684 -2.1527 -1.0846
  161SOPE  H18S18049   0.729   1.135   8.524 -0.6303 -0.0819  0.0966
  161SOPE  H18T18050   0.859   1.263   8.510 -0.7811  1.7206  0.1310
  161SOPE   C3318051   0.817   1.051   9.837  0.6016  0.0202  0.3495
  161SOPE   H3X18052   0.915   1.104   9.842  0.7821 -0.2618 -0.1061
  161SOPE   H3Y18053   0.731   1.120   9.829 -0.5667 -1.5962 -3.0678
  161SOPE   C3418054   0.817   0.957   9.717  0.1702  0.4314  0.0875
  161SOPE   H4X18055   0.718   0.912   9.696 -0.4094  1.7073  0.0205
  161SOPE   H4Y18056   0.891   0.881   9.749 -0.5968  0.2689  1.5469
  161SOPE   C3518057   0.884   1.028   9.595 -0.1986 -0.4235 -0.0769
  161SOPE   H5X18058   0.913   0.946   9.526  0.7702  0.1973 -0.4368
  161SOPE   H5Y18059   0.981   1.069   9.630 -0.3806 -0.2168  0.1868
  161SOPE   C3618060   0.788   1.127   9.525  0.6422 -0.6227 -0.3204
  161SOPE   H6X18061   0.843   1.169   9.438  0.1001 -1.6704 -1.1917
  161SOPE   H6Y18062   0.749   1.206   9.592 -0.7709  0.6518 -2.5229
  161SOPE   C3718063   0.669   1.055   9.456 -0.7198  0.5747 -0.1093
  161SOPE   H7X18064   0.607   0.999   9.530 -1.0341  0.0775 -0.7365
  161SOPE   H7Y18065   0.705   0.990   9.373 -1.0273  0.5292 -0.2096
  161SOPE   C3818066   0.577   1.157   9.397  0.4190 -0.6782 -0.3262
  161SOPE   H8X18067   0.638   1.215   9.325 -0.4923  0.4743 -0.2135
  161SOPE   H8Y18068   0.554   1.228   9.480 -0.1034 -0.7406 -0.4095
  161SOPE   C3918069   0.448   1.105   9.344 -0.7249  0.3837  0.2457
  161SOPE   H9X18070   0.397   1.078   9.438  0.8429  0.8720  1.2818
  161SOPE   H9Y18071   0.475   1.016   9.283  0.0574  0.8209 -0.0624
  161SOPE  C31018072   0.374   1.202   9.251  0.0314  0.4930  0.0983
  161SOPE  H10X18073   0.336   1.295   9.298 -4.2068  0.4379 -2.7180
  161SOPE  H10Y18074   0.279   1.155   9.219 -1.1725  2.4548  0.6391
  161SOPE  C31118075   0.446   1.231   9.118  0.2895  0.2727  0.1375
  161SOPE  H11X18076   0.474   1.133   9.073  3.3236  1.1224 -0.0295
  161SOPE  H11Y18077   0.536   1.294   9.136 -0.5024  1.7516 -0.8433
  161SOPE  C31218078   0.358   1.318   9.029  0.4389 -0.6295 -0.2500
  161SOPE  H12X18079   0.266   1.349   9.082  0.7131 -0.9040  0.3995
  161SOPE  H12Y18080   0.323   1.259   8.942 -0.1812  2.0143 -1.9197
  161SOPE  C31318081   0.424   1.446   8.970  0.5808  1.0172 -0.1664
  161SOPE  H13X18082   0.505   1.487   9.034  1.3894  1.9291 -1.7012
  161SOPE  H13Y18083   0.341   1.520   8.969 -0.0238  0.4356  1.9978
  161SOPE  C31418084   0.484   1.434   8.832  0.8169  0.8138  0.0054
  161SOPE  H14X18085   0.558   1.351   8.833  1.6125  1.5072  0.2069
  161SOPE  H14Y18086   0.541   1.529   8.819  2.6343 -0.5347 -2.9618
  161SOPE  C31518087   0.376   1.432   8.721  0.1161 -0.3757  0.1397
  161SOPE  H15X18088   0.318   1.337   8.725  1.8973 -1.4610  2.4688
  161SOPE  H15Y18089   0.435   1.432   8.626  0.2840  1.0959  0.2151
  161SOPE  C31618090   0.294   1.562   8.711 -0.1869 -0.3333  0.7444
  161SOPE  H16X18091   0.360   1.651   8.720  0.2073 -0.2255 -2.2155
  161SOPE  H16Y18092   0.217   1.560   8.791 -1.0124 -2.2512 -0.0476
  161SOPE  C31718093   0.217   1.578   8.578  0.1336  0.5752  0.1490
  161SOPE  H17X18094   0.284   1.578   8.489 -0.7231  1.3438 -0.5124
  161SOPE  H17Y18095   0.169   1.678   8.584 -1.0682  0.0132  0.2017
  161SOPE  C31818096   0.107   1.479   8.563  0.2058 -1.2041 -0.7264
  161SOPE  H18X18097   0.034   1.471   8.646 -1.0003 -0.9500 -1.7273
  161SOPE  H18Y18098   0.149   1.377   8.550  0.5157 -1.2631  0.5724
  161SOPE  H18Z18099   0.047   1.490   8.470  0.3271  2.3371 -0.5242
  162SOPE     N18100   6.762   0.722  11.041 -0.0710  0.3710  0.2566
  162SOPE   HN118101   6.668   0.710  11.083  0.4154  0.0294  1.2742
  162SOPE   HN218102   6.826   0.693  11.118 -0.8212  0.9649  1.1309
  162SOPE   HN318103   6.778   0.824  11.026  0.7624 -0.0537 -2.1335
  162SOPE   C1218104   6.795   0.640  10.912  0.5728 -0.8714  0.4880
  162SOPE  H12A18105   6.904   0.649  10.897  0.4397 -2.1036 -1.6357
  162SOPE  H12B18106   6.726   0.679  10.834 -0.1202 -1.5678  0.7335
  162SOPE   C1118107   6.762   0.493  10.931  0.5453 -0.1207  0.0101
  162SOPE  H11A18108   6.829   0.454  11.010 -1.2623  1.3146  2.3859
  162SOPE  H11B18109   6.787   0.438  10.838 -2.9505  0.3527 -1.3555
  162SOPE     P18110   6.555   0.338  10.988  0.2501 -0.1166 -0.2412
  162SOPE   O1318111   6.455   0.346  11.093 -0.1838  0.7144  0.1916
  162SOPE   O1418112   6.646   0.223  10.995 -0.0618  0.4907 -0.0804
  162SOPE   O1218113   6.631   0.479  10.981  0.3166  0.3594  0.0923
  162SOPE   O1118114   6.479   0.320  10.848 -0.2040 -0.4953  0.3981
  162SOPE    C118115   6.530   0.367  10.725  0.0759 -0.3504 -0.0454
  162SOPE    HA18116   6.619   0.313  10.685 -0.2805 -0.8194 -0.2016
  162SOPE    HB18117   6.551   0.475  10.741  0.7873 -0.4351 -0.3382
  162SOPE    C218118   6.415   0.375  10.612 -0.4796  0.0372 -0.5691
  162SOPE    HS18119   6.326   0.424  10.657 -1.2178 -1.1610 -0.7156
  162SOPE   O2118120   6.378   0.237  10.592  0.3669 -0.3174 -0.6223
  162SOPE   C2118121   6.269   0.209  10.516  0.2175  0.4425  0.5992
  162SOPE   O2218122   6.189   0.290  10.475  1.1222  0.5531 -0.3437
  162SOPE   C2218123   6.272   0.057  10.487  0.2500 -0.3263  0.1227
  162SOPE   H2R18124   6.167   0.021  10.483 -0.1010  0.6013  0.7317
  162SOPE   H2S18125   6.321   0.006  10.573 -1.7515  0.0894  1.5843
  162SOPE    C318126   6.450   0.451  10.479  0.3892  0.6443 -1.0141
  162SOPE    HX18127   6.481   0.553  10.510  0.2051  0.6942 -0.9916
  162SOPE    HY18128   6.353   0.472  10.429 -1.2821 -1.8228  0.9896
  162SOPE   O3118129   6.554   0.391  10.399  0.2033 -0.4484 -0.3117
  162SOPE   C3118130   6.595   0.465  10.305 -0.3140 -0.2739  1.3415
  162SOPE   O3218131   6.557   0.578  10.280 -0.0881 -0.5533  0.0587
  162SOPE   C3218132   6.682   0.377  10.202  0.1883 -0.1213  0.2427
  162SOPE   H2X18133   6.762   0.321  10.256 -0.6626 -2.7243 -1.0430
  162SOPE   H2Y18134   6.734   0.450  10.136 -0.0012 -0.5573 -0.3970
  162SOPE   C2318135   6.343   0.039  10.353 -0.0212  0.1867  0.3921
  162SOPE   H3R18136   6.373  -0.068  10.342 -0.0521  0.2061  0.0999
  162SOPE   H3S18137   6.439   0.094  10.361  0.9107 -1.2412 -0.4491
  162SOPE   C2418138   6.260   0.059  10.219 -0.3592 -0.0265 -0.1394
  162SOPE   H4R18139   6.264   0.165  10.188 -1.6229 -0.4639 -1.9521
  162SOPE   H4S18140   6.320   0.006  10.142 -0.5580 -2.0402  1.0217
  162SOPE   C2518141   6.111   0.011  10.219  0.1932 -0.4780 -0.1247
  162SOPE   H5R18142   6.101  -0.099  10.236 -0.7642 -0.4462 -0.4420
  162SOPE   H5S18143   6.060   0.059  10.305  0.5253 -0.9456  0.3400
  162SOPE   C2618144   6.023   0.047  10.097  0.5518 -0.0096  0.6921
  162SOPE   H6R18145   6.028   0.158  10.098  1.8347 -0.0441  0.0730
  162SOPE   H6S18146   6.073   0.002  10.008  0.4860  0.7300  0.2722
  162SOPE   C2718147   5.880  -0.008  10.109 -0.8730  0.8613 -0.3465
  162SOPE   H7R18148   5.877  -0.118  10.124  1.8241  0.8637  0.8048
  162SOPE   H7S18149   5.838   0.033  10.204 -2.4114 -0.9225 -0.2046
  162SOPE   C2818150   5.791   0.024   9.991 -0.8923  0.7854  0.4885
  162SOPE   H8R18151   5.686   0.003  10.021 -0.0188 -0.4280  2.9584
  162SOPE   H8S18152   5.814   0.130   9.966  0.6349  0.6393  1.1985
  162SOPE   C2918153   5.844  -0.052   9.868  0.3243  0.0210 -0.0251
  162SOPE   H9118154   5.934  -0.115   9.877 -1.6623 -3.1188 -0.5136
  162SOPE  C21018155   5.773  -0.050   9.752 -0.2266  0.7278  0.8110
  162SOPE  H10118156   5.819  -0.096   9.663 -1.0414  2.6841 -0.7054
  162SOPE  C21118157   5.634   0.010   9.731  0.3565  0.3472  0.4737
  162SOPE  H11R18158   5.637   0.093   9.657  0.0346  0.3905  0.5026
  162SOPE  H11S18159   5.591   0.045   9.828 -0.6959  2.0394 -0.5627
  162SOPE  C21218160   5.536  -0.097   9.670 -0.6282 -0.3216 -0.0493
  162SOPE  H12R18161   5.438  -0.059   9.633  0.8677  1.7844 -2.1173
  162SOPE  H12S18162   5.519  -0.161   9.759 -2.8061 -0.1341 -0.2892
  162SOPE  C21318163   5.584  -0.175   9.553  0.6357  0.0729  0.3795
  162SOPE  H13R18164   5.518  -0.263   9.533 -0.5376  0.2382  2.9911
  162SOPE  H13S18165   5.681  -0.223   9.579  0.6941 -0.2203 -0.3567
  162SOPE  C21418166   5.603  -0.095   9.420 -0.0006  0.3533  0.4807
  162SOPE  H14R18167   5.651   0.000   9.449  1.8180 -0.3276 -0.1284
  162SOPE  H14S18168   5.504  -0.075   9.374 -1.0044 -2.8029  1.0370
  162SOPE  C21518169   5.687  -0.166   9.314  0.1456 -0.3395 -0.2508
  162SOPE  H15R18170   5.630  -0.249   9.266  1.1180  0.6585 -3.3498
  162SOPE  H15S18171   5.781  -0.205   9.357  1.3150 -0.4295 -2.7105
  162SOPE  C21618172   5.723  -0.073   9.194 -0.1279  0.0114 -0.1850
  162SOPE  H16R18173   5.621  -0.050   9.157 -0.0534  0.0398 -0.3751
  162SOPE  H16S18174   5.775  -0.138   9.120 -0.7361 -0.3007 -0.3459
  162SOPE  C21718175   5.810   0.046   9.231  0.0828  0.1072 -0.0842
  162SOPE  H17R18176   5.758   0.099   9.314  0.5217  2.6038 -1.3213
  162SOPE  H17S18177   5.816   0.120   9.148  0.1243 -0.4157 -0.5489
  162SOPE  C21818178   5.953   0.009   9.277 -0.0599  0.1040 -0.1841
  162SOPE  H18R18179   5.933  -0.062   9.360 -0.7409  1.4190  0.8075
  162SOPE  H18S18180   5.999   0.096   9.328  0.4870 -0.8747  1.0279
  162SOPE  H18T18181   6.018  -0.025   9.193 -0.0610 -0.5897  0.0896
  162SOPE   C3318182   6.599   0.283  10.115  0.2307 -0.0332 -1.2614
  162SOPE   H3X18183   6.530   0.238  10.189  0.8773 -0.1203 -0.6935
  162SOPE   H3Y18184   6.668   0.204  10.078  0.9231 -0.0485 -0.0085
  162SOPE   C3418185   6.526   0.356  10.006 -0.6283 -0.1438 -0.4161
  162SOPE   H4X18186   6.613   0.387   9.944 -1.1716  0.4504 -0.9043
  162SOPE   H4Y18187   6.474   0.447  10.044  1.0509  1.3399 -1.4960
  162SOPE   C3518188   6.417   0.284   9.930 -0.6330 -0.2231 -0.4807
  162SOPE   H5X18189   6.324   0.288   9.991  1.3930  1.6260  2.7830
  162SOPE   H5Y18190   6.461   0.182   9.925  1.4944  0.5172  1.4923
  162SOPE   C3618191   6.398   0.353   9.798 -0.2550  0.1676 -0.7146
  162SOPE   H6X18192   6.500   0.365   9.757 -0.1658  1.7204 -0.1051
  162SOPE   H6Y18193   6.369   0.460   9.807  0.4915  0.3811 -0.7542
  162SOPE   C3718194   6.314   0.272   9.697 -0.4043 -0.7003 -0.1261
  162SOPE   H7X18195   6.205   0.282   9.713 -0.5601  0.5292 -1.7575
  162SOPE   H7Y18196   6.341   0.167   9.722 -1.5066 -0.8762  0.4031
  162SOPE   C3818197   6.356   0.301   9.551 -0.9902 -0.3875  0.2809
  162SOPE   H8X18198   6.464   0.273   9.540 -1.0750 -0.2965 -0.9669
  162SOPE   H8Y18199   6.342   0.410   9.542 -1.4429 -0.4602  0.0888
  162SOPE   C3918200   6.273   0.221   9.450 -0.1317 -0.5054 -0.7545
  162SOPE   H9X18201   6.168   0.252   9.471 -0.0674 -0.4978 -0.4407
  162SOPE   H9Y18202   6.284   0.111   9.457 -0.8014 -0.5377 -0.0653
  162SOPE  C31018203   6.326   0.284   9.316  0.2260 -0.1984 -0.0107
  162SOPE  H10X18204   6.435   0.270   9.302  0.1327  0.1801 -1.2079
  162SOPE  H10Y18205   6.301   0.392   9.323 -0.6373 -0.4264  0.5351
  162SOPE  C31118206   6.265   0.212   9.192  0.2657  0.2391 -0.4713
  162SOPE  H11X18207   6.160   0.247   9.185 -0.1223 -0.4034  1.5061
  162SOPE  H11Y18208   6.270   0.102   9.206  0.3736  0.4945  1.9294
  162SOPE  C31218209   6.318   0.246   9.056 -0.1048 -0.5262 -0.2458
  162SOPE  H12X18210   6.425   0.218   9.056 -0.4934 -2.1773 -0.6538
  162SOPE  H12Y18211   6.319   0.356   9.041  1.4693 -0.2884  1.2566
  162SOPE  C31318212   6.252   0.166   8.946  0.3166 -0.5240 -1.0314
  162SOPE  H13X18213   6.146   0.196   8.941  0.8084  1.3677 -0.8800
  162SOPE  H13Y18214   6.244   0.059   8.975  0.0723 -0.0761  0.6789
  162SOPE  C31418215   6.319   0.173   8.813 -0.5707  0.1659  0.6858
  162SOPE  H14X18216   6.426   0.146   8.829 -0.5643 -1.9671 -2.2265
  162SOPE  H14Y18217   6.324   0.278   8.776 -0.2709 -0.5528 -1.4347
  162SOPE  C31518218   6.260   0.091   8.710 -0.0370  0.2126  0.2697
  162SOPE  H15X18219   6.270  -0.015   8.742 -1.8020 -0.3032 -0.7425
  162SOPE  H15Y18220   6.324   0.084   8.619  0.9498  1.6127  0.8244
  162SOPE  C31618221   6.120   0.147   8.673 -0.4138 -0.3683  0.3124
  162SOPE  H16X18222   6.125   0.257   8.660  2.2565 -0.2514  1.7636
  162SOPE  H16Y18223   6.053   0.125   8.759 -1.0105  1.1092  0.2519
  162SOPE  C31718224   6.063   0.086   8.546  0.1606 -0.3603  0.3057
  162SOPE  H17X18225   6.066  -0.022   8.569  4.0152 -0.3629  0.4078
  162SOPE  H17Y18226   6.114   0.120   8.453 -2.7965 -0.0151 -1.3377
  162SOPE  C31818227   5.915   0.130   8.523  0.5200 -0.4833  0.4694
  162SOPE  H18X18228   5.848   0.119   8.611 -0.2536  1.6443  0.2092
  162SOPE  H18Y18229   5.865   0.100   8.429  0.4702 -0.2606  0.4234
  162SOPE  H18Z18230   5.921   0.241   8.512  3.5096 -0.6781 -0.8977
  163SOPE     N18231   5.710   4.946  10.716 -0.4773 -0.7783  0.4600
  163SOPE   HN118232   5.729   4.908  10.811  1.6570 -0.3282  0.2712
  163SOPE   HN218233   5.625   5.005  10.728  0.4458  0.4633  1.2398
  163SOPE   HN318234   5.693   4.874  10.643 -0.9941  0.4913 -0.7140
  163SOPE   C1218235   5.832   5.031  10.689  0.7345 -0.0608  0.2527
  163SOPE  H12A18236   5.838   5.044  10.579 -0.3449  1.0925  0.3071
  163SOPE  H12B18237   5.917   4.965  10.716 -0.5044 -2.8948 -2.1857
  163SOPE   C1118238   5.842   5.164  10.759 -0.4636 -0.5355 -0.3231
  163SOPE  H11A18239   5.934   5.218  10.728 -0.4880 -0.1331  0.2946
  163SOPE  H11B18240   5.862   5.150  10.867  1.1252  2.1358 -0.1639
  163SOPE     P18241   5.722   5.385  10.779  0.0358 -0.1229 -0.0039
  163SOPE   O1318242   5.831   5.408  10.876  0.1100  0.3010 -0.0698
  163SOPE   O1418243   5.584   5.426  10.819 -0.6560  0.1658  0.2373
  163SOPE   O1218244   5.722   5.234  10.740  0.0127  0.0795 -0.4193
  163SOPE   O1118245   5.748   5.466  10.643  0.7962 -0.0613 -0.1874
  163SOPE    C118246   5.755   5.403  10.522 -0.1418 -0.1738 -0.7575
  163SOPE    HA18247   5.812   5.307  10.525  0.0999 -0.0482 -1.1882
  163SOPE    HB18248   5.831   5.456  10.461 -0.7022  1.0569 -0.4024
  163SOPE    C218249   5.623   5.386  10.440 -0.0589  0.9768 -0.2753
  163SOPE    HS18250   5.558   5.318  10.499 -2.4789  2.5604 -0.9442
  163SOPE   O2118251   5.657   5.341  10.310 -0.6051 -0.5142  0.3279
  163SOPE   C2118252   5.674   5.206  10.305  0.0373 -0.0495 -0.7022
  163SOPE   O2218253   5.673   5.135  10.410 -0.0500 -0.7283  0.2438
  163SOPE   C2218254   5.704   5.140  10.168 -0.2074 -1.5515 -0.3745
  163SOPE   H2R18255   5.689   5.030  10.180 -3.0093 -1.1207  1.0575
  163SOPE   H2S18256   5.809   5.162  10.142 -0.1210 -0.1973  0.9666
  163SOPE    C318257   5.553   5.518  10.431  0.6021 -0.2871  0.2842
  163SOPE    HX18258   5.620   5.594  10.386  0.2772 -0.5097 -0.6087
  163SOPE    HY18259   5.522   5.549  10.533  0.0123  0.8094 -0.2109
  163SOPE   O3118260   5.436   5.495  10.355 -0.0927 -0.1968  0.1881
  163SOPE   C3118261   5.377   5.602  10.318  0.4857  0.4356  0.1888
  163SOPE   O3218262   5.424   5.711  10.316 -0.6434 -0.4521  0.2194
  163SOPE   C3218263   5.236   5.563  10.274 -0.5506  0.3340  0.2389
  163SOPE   H2X18264   5.166   5.558  10.360  1.0178  0.6575  1.5891
  163SOPE   H2Y18265   5.234   5.457  10.241 -2.5306  0.3985  0.0209
  163SOPE   C2318266   5.613   5.197  10.060 -0.0052 -0.3534 -0.3314
  163SOPE   H3R18267   5.668   5.216   9.965  1.4003  0.6664  0.6491
  163SOPE   H3S18268   5.569   5.298  10.078 -0.5197 -0.3737 -1.4174
  163SOPE   C2418269   5.489   5.105  10.029  0.2883 -0.1704 -0.3794
  163SOPE   H4R18270   5.515   5.004  10.067 -0.2761 -0.6402 -1.2106
  163SOPE   H4S18271   5.414   5.144  10.101  1.0480 -0.6932  0.7364
  163SOPE   C2518272   5.437   5.113   9.882 -0.4320 -0.2151  0.1388
  163SOPE   H5R18273   5.332   5.078   9.872 -1.0379  1.9519 -2.0431
  163SOPE   H5S18274   5.445   5.217   9.844 -2.3540 -0.8506 -2.3167
  163SOPE   C2618275   5.514   5.000   9.796 -0.5029  0.1544 -0.2876
  163SOPE   H6R18276   5.619   5.035   9.805 -0.5316  0.1939 -0.1128
  163SOPE   H6S18277   5.495   4.903   9.846 -1.0649  1.1203  1.4285
  163SOPE   C2718278   5.465   4.999   9.656 -0.1766  0.1397 -0.3022
  163SOPE   H7R18279   5.356   4.980   9.645 -0.2761  0.0922  0.6916
  163SOPE   H7S18280   5.498   5.093   9.607  0.8041  0.0693  0.1979
  163SOPE   C2818281   5.534   4.883   9.573 -0.6183  0.2542  1.0214
  163SOPE   H8R18282   5.645   4.881   9.587 -0.1186 -1.2475 -2.1671
  163SOPE   H8S18283   5.500   4.787   9.617  0.0703 -0.5051 -0.0249
  163SOPE   C2918284   5.512   4.886   9.421  0.1312 -0.2529  0.7001
  163SOPE   H9118285   5.407   4.868   9.395  0.7569 -2.0689 -0.7446
  163SOPE  C21018286   5.606   4.910   9.326  0.1323 -0.4509 -0.6118
  163SOPE  H10118287   5.578   4.896   9.221  0.8946 -2.4052 -0.5947
  163SOPE  C21118288   5.752   4.937   9.352 -0.8808 -0.0080  0.4611
  163SOPE  H11R18289   5.793   4.845   9.399 -0.8767 -0.5591 -0.5830
  163SOPE  H11S18290   5.770   5.026   9.415 -2.8524 -0.7898  2.2685
  163SOPE  C21218291   5.833   4.956   9.218  0.2856 -0.1880  0.5557
  163SOPE  H12R18292   5.819   4.868   9.152 -0.8404 -0.9918  1.8173
  163SOPE  H12S18293   5.942   4.957   9.243  0.7425  1.0554 -1.2743
  163SOPE  C21318294   5.801   5.089   9.141 -0.5638  0.8240  0.4946
  163SOPE  H13R18295   5.812   5.169   9.216 -1.0963 -0.7201  2.2934
  163SOPE  H13S18296   5.695   5.089   9.105 -0.2557 -0.7520 -0.5201
  163SOPE  C21418297   5.888   5.109   9.020 -0.0267 -0.6648  0.7252
  163SOPE  H14R18298   5.857   5.028   8.950 -0.7501  0.4880 -0.3524
  163SOPE  H14S18299   5.993   5.089   9.049 -0.7330 -1.8857  2.5992
  163SOPE  C21518300   5.861   5.242   8.949 -0.1733 -0.3502 -0.0071
  163SOPE  H15R18301   5.889   5.334   9.005 -0.5940  0.2299 -0.7451
  163SOPE  H15S18302   5.751   5.241   8.942 -0.3120  1.0861  1.4493
  163SOPE  C21618303   5.909   5.247   8.803 -0.4153  0.0042 -0.7567
  163SOPE  H16R18304   5.861   5.161   8.751  0.4964 -0.3583 -1.0108
  163SOPE  H16S18305   6.020   5.242   8.802 -0.4308 -0.5607 -0.1474
  163SOPE  C21718306   5.860   5.373   8.735  0.2346  0.1028 -0.2018
  163SOPE  H17R18307   5.882   5.454   8.807  0.5858  0.9190 -1.1981
  163SOPE  H17S18308   5.750   5.358   8.725  0.4734 -1.5384 -0.6338
  163SOPE  C21818309   5.929   5.396   8.603 -0.8287  0.3527  1.3680
  163SOPE  H18R18310   5.913   5.314   8.529  2.3790 -1.0629  2.0411
  163SOPE  H18S18311   6.037   5.383   8.629 -1.2648 -1.2865  2.4989
  163SOPE  H18T18312   5.912   5.497   8.559  0.1235 -0.5041 -1.1891
  163SOPE   C3318313   5.177   5.659  10.171 -0.1909  0.0481 -0.3521
  163SOPE   H3X18314   5.202   5.765  10.194  3.3029 -0.3341 -1.7743
  163SOPE   H3Y18315   5.067   5.652  10.181 -0.0909  0.8673  1.7940
  163SOPE   C3418316   5.225   5.632  10.029 -0.4995  0.3170 -0.5427
  163SOPE   H4X18317   5.238   5.523  10.012  0.8860  0.0500  1.8517
  163SOPE   H4Y18318   5.323   5.684  10.027 -0.8102  0.9277 -0.1585
  163SOPE   C3518319   5.135   5.685   9.924  0.2779 -0.8299 -0.5768
  163SOPE   H5X18320   5.116   5.793   9.944  2.1521 -0.6481  0.4970
  163SOPE   H5Y18321   5.036   5.636   9.940  0.5039 -1.8023 -2.0397
  163SOPE   C3618322   5.176   5.649   9.785  0.1013  0.2506 -0.2985
  163SOPE   H6X18323   5.204   5.541   9.783  0.5266  0.3226 -3.0867
  163SOPE   H6Y18324   5.270   5.704   9.766  2.0005 -2.2377  1.2314
  163SOPE   C3718325   5.072   5.672   9.673 -0.3764 -0.0916 -0.2958
  163SOPE   H7X18326   5.046   5.779   9.660  0.3404 -0.0465 -1.4416
  163SOPE   H7Y18327   4.972   5.627   9.695 -1.7459  3.2888  1.0561
  163SOPE   C3818328   5.118   5.641   9.523 -0.4179  0.2967 -0.0383
  163SOPE   H8X18329   5.115   5.530   9.512  0.5798  0.4134 -1.8018
  163SOPE   H8Y18330   5.226   5.665   9.511  0.0402 -1.2470  0.6487
  163SOPE   C3918331   5.025   5.683   9.409  0.0348  0.6381 -0.1538
  163SOPE   H9X18332   5.029   5.794   9.410  1.5831  0.6093 -0.0529
  163SOPE   H9Y18333   4.921   5.652   9.432  0.2156 -1.2374 -1.5866
  163SOPE  C31018334   5.065   5.632   9.265  0.1189 -0.4076  0.0467
  163SOPE  H10X18335   5.101   5.528   9.274  0.7728 -0.0517  2.2748
  163SOPE  H10Y18336   5.157   5.689   9.239  0.7751 -1.6681 -0.4478
  163SOPE  C31118337   4.955   5.660   9.159  0.5656 -0.2632 -0.3769
  163SOPE  H11X18338   4.947   5.771   9.155 -1.4230 -0.3657 -0.6692
  163SOPE  H11Y18339   4.862   5.619   9.204  2.0466 -1.1223  2.1154
  163SOPE  C31218340   4.992   5.607   9.016  0.0514 -0.4244 -1.0440
  163SOPE  H12X18341   5.012   5.499   9.031 -2.1000 -0.9138 -1.3557
  163SOPE  H12Y18342   5.094   5.643   8.993  2.6702 -4.1709  3.0659
  163SOPE  C31318343   4.889   5.640   8.906  0.1218 -0.3529 -0.1297
  163SOPE  H13X18344   4.863   5.747   8.893  0.7283 -0.4037 -2.0257
  163SOPE  H13Y18345   4.789   5.596   8.925 -1.1476  1.2651 -2.5306
  163SOPE  C31418346   4.926   5.585   8.773 -0.1778 -0.2919 -0.2180
  163SOPE  H14X18347   4.893   5.478   8.777 -1.7013  0.1700  0.2375
  163SOPE  H14Y18348   5.035   5.577   8.753 -0.0468  0.0565  0.3358
  163SOPE  C31518349   4.847   5.646   8.655  0.4262 -0.3603  1.4508
  163SOPE  H15X18350   4.866   5.756   8.653 -0.4083 -0.2163  0.2379
  163SOPE  H15Y18351   4.741   5.614   8.664 -0.4429  0.3218 -3.5143
  163SOPE  C31618352   4.893   5.585   8.521  0.4413  0.2537 -0.5222
  163SOPE  H16X18353   4.879   5.475   8.526 -0.2854  0.3539 -0.2595
  163SOPE  H16Y18354   5.003   5.599   8.516  1.1934 -2.9690  2.4969
  163SOPE  C31718355   4.813   5.630   8.394  0.0525  1.1387 -0.0367
  163SOPE  H17X18356   4.852   5.723   8.348  0.9244  0.9244  0.2505
  163SOPE  H17Y18357   4.706   5.628   8.424  0.0770 -1.4874  0.1327
  163SOPE  C31818358   4.819   5.527   8.276 -0.4584 -0.0870 -0.4990
  163SOPE  H18X18359   4.923   5.543   8.241 -0.0399  1.0549  1.1649
  163SOPE  H18Y18360   4.749   5.550   8.193 -0.4426 -1.3539 -0.8833
  163SOPE  H18Z18361   4.812   5.419   8.302  3.8386 -0.8433 -1.6949
  164SOPE     N18362   3.962   2.940  10.747  0.5229 -0.1436 -0.0466
  164SOPE   HN118363   4.037   3.000  10.787  0.2266  1.1892 -1.3810
  164SOPE   HN218364   3.873   2.962  10.797 -0.0598 -2.2231 -0.0834
  164SOPE   HN318365   3.974   2.844  10.784  0.5037 -0.2965 -0.4335
  164SOPE   C1218366   3.941   2.954  10.599 -0.0636  0.1814  0.6527
  164SOPE  H12A18367   3.913   3.059  10.575  0.8351  0.2835  0.0049
  164SOPE  H12B18368   3.869   2.878  10.564 -1.3856  1.6250  0.0873
  164SOPE   C1118369   4.073   2.931  10.523  0.2375  0.7041  0.7823
  164SOPE  H11A18370   4.045   2.942  10.416  0.9272  0.9607  0.6256
  164SOPE  H11B18371   4.114   2.829  10.540  0.2839  0.9389  2.2360
  164SOPE     P18372   4.296   3.030  10.485  0.2664 -0.1515 -0.2995
  164SOPE   O1318373   4.362   2.902  10.478 -0.0398  0.0653 -0.1964
  164SOPE   O1418374   4.369   3.142  10.545 -0.1351 -0.9952 -0.2794
  164SOPE   O1218375   4.164   3.023  10.565  0.0899  0.0619 -0.2504
  164SOPE   O1118376   4.257   3.086  10.338 -0.1381  0.1930  0.5038
  164SOPE    C118377   4.156   3.186  10.321 -0.3485  0.7924  0.2442
  164SOPE    HA18378   4.127   3.244  10.411 -1.5948  0.9458 -0.2370
  164SOPE    HB18379   4.061   3.138  10.288  1.4439 -2.0414 -1.2914
  164SOPE    C218380   4.195   3.296  10.211  0.0039  0.0814 -0.0023
  164SOPE    HS18381   4.110   3.368  10.204  0.7656  1.0741  0.7322
  164SOPE   O2118382   4.211   3.231  10.089  0.6517  0.0588  0.7680
  164SOPE   C2118383   4.153   3.282   9.979  0.6054  0.0316 -0.2486
  164SOPE   O2218384   4.093   3.386   9.977  0.6027 -0.3568 -0.5710
  164SOPE   C2218385   4.152   3.177   9.866 -0.5156  0.3286  0.2405
  164SOPE   H2R18386   4.066   3.111   9.886 -1.0663  1.1362  0.5812
  164SOPE   H2S18387   4.233   3.101   9.872 -1.0888 -0.7124 -3.2187
  164SOPE    C318388   4.331   3.374  10.240  0.0900  0.6262 -0.5997
  164SOPE    HX18389   4.403   3.289  10.247  0.4954  0.9614 -0.6913
  164SOPE    HY18390   4.327   3.419  10.342  1.5406  2.6247 -1.3722
  164SOPE   O3118391   4.370   3.453  10.128  0.1056 -0.8226 -0.2021
  164SOPE   C3118392   4.326   3.579  10.132  0.0245 -0.4605  0.1031
  164SOPE   O3218393   4.252   3.626  10.216  0.5045  0.3243 -0.4009
  164SOPE   C3218394   4.388   3.666  10.027  0.3429  0.5910 -0.2684
  164SOPE   H2X18395   4.360   3.615   9.932 -2.5424 -0.7393  1.1606
  164SOPE   H2Y18396   4.494   3.637  10.039  0.5369  1.0517 -0.8657
  164SOPE   C2318397   4.158   3.244   9.732 -0.0238 -0.3332 -0.2160
  164SOPE   H3R18398   4.267   3.259   9.712  0.5245  1.0289  3.1230
  164SOPE   H3S18399   4.103   3.340   9.719  0.7007 -0.1343 -2.2989
  164SOPE   C2418400   4.100   3.142   9.631  0.2118 -0.7558  0.7799
  164SOPE   H4R18401   4.163   3.051   9.636  0.5299 -0.5559  0.4484
  164SOPE   H4S18402   3.998   3.131   9.674  0.9634 -2.4576  2.2750
  164SOPE   C2518403   4.086   3.193   9.487 -0.1106 -0.5635 -0.3203
  164SOPE   H5R18404   4.018   3.280   9.497  0.0580 -0.3800 -0.7371
  164SOPE   H5S18405   4.181   3.230   9.443  1.9266 -2.6181  2.0854
  164SOPE   C2618406   4.028   3.091   9.385  0.4049 -0.0052  0.1407
  164SOPE   H6R18407   4.097   3.006   9.370  0.0596 -0.4570  1.0673
  164SOPE   H6S18408   3.934   3.049   9.428  0.7588  0.6921  1.6653
  164SOPE   C2718409   3.993   3.160   9.248 -0.3041 -0.1388 -0.3511
  164SOPE   H7R18410   3.900   3.217   9.271 -0.8593 -1.6782  1.4398
  164SOPE   H7S18411   4.074   3.227   9.212 -0.9335  0.9508  0.2161
  164SOPE   C2818412   3.974   3.061   9.133 -0.1355  0.1486  0.1839
  164SOPE   H8R18413   3.887   2.997   9.158 -0.5177  0.3089 -0.7235
  164SOPE   H8S18414   3.940   3.117   9.044 -1.5228 -0.2408  0.4569
  164SOPE   C2918415   4.090   2.972   9.097  0.3314  0.4605 -0.2584
  164SOPE   H9118416   4.118   2.909   9.182 -1.1754 -0.9508 -0.7553
  164SOPE  C21018417   4.152   2.962   8.983 -0.6389 -0.6330 -0.5547
  164SOPE  H10118418   4.235   2.893   8.966 -0.2052  0.1909 -1.9126
  164SOPE  C21118419   4.133   3.033   8.856 -0.6379  0.7674  0.6973
  164SOPE  H11R18420   4.228   3.083   8.827 -0.1013 -1.0803 -1.0030
  164SOPE  H11S18421   4.069   3.123   8.870  1.8531  2.3350  2.7597
  164SOPE  C21218422   4.096   2.936   8.745 -0.1037  0.7717 -0.2050
  164SOPE  H12R18423   4.142   2.835   8.758  0.6524  0.8563 -1.9885
  164SOPE  H12S18424   4.128   2.976   8.646  0.2369 -0.0884 -0.4497
  164SOPE  C21318425   3.947   2.905   8.739  0.3604  0.1721 -0.3484
  164SOPE  H13R18426   3.904   3.007   8.723  1.3268  0.5965 -0.2984
  164SOPE  H13S18427   3.903   2.874   8.836  2.5052 -0.5053  0.4468
  164SOPE  C21418428   3.910   2.794   8.640 -0.1824 -0.7822 -0.1110
  164SOPE  H14R18429   3.974   2.710   8.675  0.0764  0.4547  2.5793
  164SOPE  H14S18430   3.940   2.820   8.536 -1.2675  1.5897  0.1145
  164SOPE  C21518431   3.759   2.756   8.639  0.8292  0.5593  0.4644
  164SOPE  H15R18432   3.696   2.837   8.596 -1.3033 -1.7016 -0.9401
  164SOPE  H15S18433   3.722   2.741   8.743  0.0976 -0.2411  0.0933
  164SOPE  C21618434   3.739   2.628   8.547  0.3421 -0.2460  0.0171
  164SOPE  H16R18435   3.795   2.550   8.603  0.3354  0.2934  0.7916
  164SOPE  H16S18436   3.791   2.626   8.449 -0.3615 -1.3757 -0.3464
  164SOPE  C21718437   3.590   2.590   8.522 -0.0490  0.3773  0.0665
  164SOPE  H17R18438   3.550   2.571   8.623  2.2724  0.3004  1.0324
  164SOPE  H17S18439   3.575   2.502   8.456 -2.0426 -0.0968  1.0658
  164SOPE  C21818440   3.505   2.709   8.471 -0.1577 -0.2217  0.5386
  164SOPE  H18R18441   3.502   2.795   8.542  1.7768  0.3289  0.0152
  164SOPE  H18S18442   3.400   2.677   8.458 -1.6480  3.8521  1.0040
  164SOPE  H18T18443   3.546   2.751   8.376  0.8634 -0.3184  0.9206
  164SOPE   C3318444   4.363   3.819  10.047  0.0230  0.7636 -0.2367
  164SOPE   H3X18445   4.379   3.843  10.154 -3.4878 -0.0063  0.5940
  164SOPE   H3Y18446   4.254   3.840  10.045  0.2366  1.9524 -1.4784
  164SOPE   C3418447   4.455   3.895   9.949 -0.3091  0.6506  0.3444
  164SOPE   H4X18448   4.561   3.862   9.957 -0.0443  1.0590 -1.0528
  164SOPE   H4Y18449   4.449   4.003   9.976 -2.6949 -0.2570  4.1808
  164SOPE   C3518450   4.418   3.861   9.806  0.1862 -0.6862 -0.6015
  164SOPE   H5X18451   4.337   3.934   9.787  0.5912 -0.1316 -0.2229
  164SOPE   H5Y18452   4.373   3.759   9.798  0.3316 -0.7286 -0.9116
  164SOPE   C3618453   4.542   3.855   9.715  0.5804  0.3129  0.1814
  164SOPE   H6X18454   4.614   3.780   9.754 -0.1631  0.2383  1.4729
  164SOPE   H6Y18455   4.592   3.953   9.734 -0.2461  0.4708  1.7918
  164SOPE   C3718456   4.504   3.838   9.567  0.5980 -0.8841  0.2753
  164SOPE   H7X18457   4.427   3.905   9.525  1.2230 -0.9257 -0.9572
  164SOPE   H7Y18458   4.449   3.741   9.561 -1.6072  0.2957  0.4974
  164SOPE   C3818459   4.629   3.851   9.475  0.6157  0.3299 -0.1286
  164SOPE   H8X18460   4.714   3.788   9.506  1.4674  0.3552 -2.2237
  164SOPE   H8Y18461   4.671   3.954   9.478  2.0399 -0.2556  0.6053
  164SOPE   C3918462   4.609   3.816   9.330  0.4022 -0.1364 -0.1487
  164SOPE   H9X18463   4.517   3.870   9.298 -0.1649  0.9573  2.9049
  164SOPE   H9Y18464   4.591   3.707   9.330  0.3209 -0.1225 -0.5568
  164SOPE  C31018465   4.717   3.859   9.229 -0.3991  0.0276 -0.1955
  164SOPE  H10X18466   4.816   3.827   9.267 -1.0631 -0.3956  1.2647
  164SOPE  H10Y18467   4.717   3.970   9.223  0.1638  0.0221 -0.3783
  164SOPE  C31118468   4.704   3.806   9.086  0.2066 -0.1469 -0.5276
  164SOPE  H11X18469   4.783   3.856   9.025  0.3828  0.6429  0.3314
  164SOPE  H11Y18470   4.603   3.808   9.039 -0.1594 -2.2761  0.0634
  164SOPE  C31218471   4.733   3.660   9.070 -0.6234  0.9024  0.0281
  164SOPE  H12X18472   4.660   3.595   9.122  0.1009  0.0100 -0.0600
  164SOPE  H12Y18473   4.826   3.645   9.128 -1.9633 -3.9168  1.3975
  164SOPE  C31318474   4.762   3.606   8.929 -0.2361 -0.3249  0.3451
  164SOPE  H13X18475   4.810   3.683   8.865 -2.8888  0.4803 -0.8495
  164SOPE  H13Y18476   4.664   3.570   8.890 -0.2760 -0.9841  1.0244
  164SOPE  C31418477   4.847   3.479   8.949  0.8136  0.5475  0.4518
  164SOPE  H14X18478   4.802   3.396   9.007  0.3806 -0.2614 -1.0011
  164SOPE  H14Y18479   4.927   3.516   9.017  1.3741  0.8203 -0.3291
  164SOPE  C31518480   4.895   3.429   8.807  0.3503 -0.8117 -0.2292
  164SOPE  H15X18481   4.963   3.344   8.828  1.3684  0.1144  0.3534
  164SOPE  H15Y18482   4.958   3.513   8.772 -1.4448  2.2700  3.1633
  164SOPE  C31618483   4.789   3.384   8.705 -0.4045  0.0451  0.2248
  164SOPE  H16X18484   4.727   3.467   8.664 -1.9976 -0.6647  1.1017
  164SOPE  H16Y18485   4.732   3.309   8.764 -0.8477 -1.3059 -1.8045
  164SOPE  C31718486   4.862   3.323   8.582 -0.2743 -0.3153 -0.3581
  164SOPE  H17X18487   4.786   3.275   8.517 -0.3824  1.3086 -1.4825
  164SOPE  H17Y18488   4.925   3.237   8.616 -2.5167 -2.8576 -2.1969
  164SOPE  C31818489   4.929   3.424   8.493  0.4567 -0.4134 -0.1283
  164SOPE  H18X18490   5.026   3.459   8.535  0.2466 -2.6842  2.5398
  164SOPE  H18Y18491   4.859   3.510   8.484 -2.1329 -2.3223  0.4516
  164SOPE  H18Z18492   4.955   3.389   8.391 -0.3330 -1.0472 -0.1193
  165SOPE     N18493   0.327   5.026  11.104 -0.5492  0.0669 -0.0597
  165SOPE   HN118494   0.225   5.033  11.083 -0.5560 -0.3379 -0.1624
  165SOPE   HN218495   0.328   5.005  11.205  1.5475  0.5395  0.0670
  165SOPE   HN318496   0.386   5.111  11.095 -1.4017  0.9621  2.0964
  165SOPE   C1218497   0.380   4.910  11.022 -0.1436 -0.2879  0.5143
  165SOPE  H12A18498   0.415   4.950  10.925  0.5214  2.5496  1.8494
  165SOPE  H12B18499   0.296   4.841  10.995  0.0858  0.3477 -2.1728
  165SOPE   C1118500   0.502   4.858  11.108  0.0692 -0.0929 -0.5873
  165SOPE  H11A18501   0.455   4.820  11.201  0.8412 -1.4536 -0.7170
  165SOPE  H11B18502   0.577   4.935  11.134  1.5258 -1.7572  0.4037
  165SOPE     P18503   0.693   4.768  10.960 -0.1409 -0.0304  0.1355
  165SOPE   O1318504   0.798   4.714  11.048  0.0751 -0.0975  0.4416
  165SOPE   O1418505   0.705   4.911  10.908 -0.2766 -0.8361  0.3702
  165SOPE   O1218506   0.555   4.752  11.035 -0.3710  0.4328  0.1689
  165SOPE   O1118507   0.685   4.672  10.832  0.6887  0.2410 -0.1879
  165SOPE    C118508   0.796   4.675  10.737 -0.4941  0.2766  0.9509
  165SOPE    HA18509   0.855   4.581  10.744  0.3768  0.5432 -1.6401
  165SOPE    HB18510   0.868   4.760  10.747 -0.1564  0.1173 -0.0560
  165SOPE    C218511   0.744   4.696  10.599 -0.0235 -0.0522  0.2910
  165SOPE    HS18512   0.703   4.799  10.590  1.3352  0.3217 -2.7306
  165SOPE   O2118513   0.641   4.599  10.579 -0.7078  0.0036  0.0748
  165SOPE   C2118514   0.523   4.629  10.527  0.1023 -0.3703 -0.5455
  165SOPE   O2218515   0.492   4.744  10.486  0.1833  0.5470  0.3288
  165SOPE   C2218516   0.449   4.497  10.509  0.5281  0.2417 -0.3299
  165SOPE   H2R18517   0.348   4.524  10.546  0.6896  0.3534  0.0376
  165SOPE   H2S18518   0.497   4.426  10.580  0.2879  1.6878  1.3457
  165SOPE    C318519   0.858   4.678  10.487  0.3642  0.2040  0.6483
  165SOPE    HX18520   0.901   4.577  10.503 -0.8815 -0.4914 -0.2363
  165SOPE    HY18521   0.938   4.752  10.508 -0.2991  1.0044  0.3961
  165SOPE   O3118522   0.799   4.677  10.353  0.1046  0.3001  0.3066
  165SOPE   C3118523   0.759   4.802  10.316  0.0578  0.5775  0.6026
  165SOPE   O3218524   0.781   4.899  10.381 -0.4144 -0.7165  0.5851
  165SOPE   C3218525   0.663   4.805  10.198 -0.1189  0.7023 -0.6671
  165SOPE   H2X18526   0.629   4.908  10.174 -2.1380  0.6279  1.5531
  165SOPE   H2Y18527   0.568   4.758  10.229  0.0685  0.2233 -0.8057
  165SOPE   C2318528   0.444   4.448  10.366 -0.5548 -0.3965 -0.5006
  165SOPE   H3R18529   0.400   4.519  10.292 -0.6874  0.1646  0.1134
  165SOPE   H3S18530   0.382   4.355  10.360 -0.2083 -0.6352 -0.4235
  165SOPE   C2418531   0.582   4.409  10.318  0.0753 -0.2505 -0.0075
  165SOPE   H4R18532   0.658   4.485  10.346  0.1707 -0.6868  0.9634
  165SOPE   H4S18533   0.613   4.318  10.372  2.7293 -0.4579 -1.7245
  165SOPE   C2518534   0.590   4.376  10.164 -0.6058 -0.3872 -0.1395
  165SOPE   H5R18535   0.572   4.463  10.098 -0.6080  0.9576  1.5564
  165SOPE   H5S18536   0.699   4.352  10.156 -0.6897 -0.6924 -0.3740
  165SOPE   C2618537   0.515   4.250  10.116 -0.5489 -0.4830 -0.8873
  165SOPE   H6R18538   0.528   4.170  10.192  2.0621  0.4744 -0.2094
  165SOPE   H6S18539   0.404   4.262  10.118 -0.6213 -1.0173 -1.5480
  165SOPE   C2718540   0.558   4.191   9.984  0.0512  0.3806 -0.5208
  165SOPE   H7R18541   0.666   4.165   9.981  0.1556  0.4824  1.3950
  165SOPE   H7S18542   0.508   4.092   9.975  1.2133 -0.3958  1.0099
  165SOPE   C2818543   0.527   4.270   9.866 -0.4357 -0.4198  0.7360
  165SOPE   H8R18544   0.427   4.315   9.882 -0.6264  1.2982 -3.7259
  165SOPE   H8S18545   0.599   4.355   9.862 -0.4033 -0.4768 -0.2734
  165SOPE   C2918546   0.523   4.194   9.735 -0.4413  0.4761 -0.4847
  165SOPE   H9118547   0.619   4.141   9.724  0.2233  1.1612  1.6607
  165SOPE  C21018548   0.424   4.175   9.640  0.1849  0.0218 -0.1706
  165SOPE  H10118549   0.456   4.117   9.552  1.5962 -0.8872  0.8969
  165SOPE  C21118550   0.288   4.231   9.646 -0.0987 -0.1441 -0.3082
  165SOPE  H11R18551   0.278   4.308   9.567  1.8441 -1.7972 -2.2758
  165SOPE  H11S18552   0.266   4.294   9.735  0.7913 -0.3855  0.0999
  165SOPE  C21218553   0.177   4.124   9.632  0.1565  0.1850  0.7039
  165SOPE  H12R18554   0.085   4.187   9.630 -0.0202 -0.0538  1.0322
  165SOPE  H12S18555   0.182   4.062   9.724  0.9207  0.5493  0.9134
  165SOPE  C21318556   0.175   4.050   9.497 -0.6604  1.0484 -0.4005
  165SOPE  H13R18557   0.074   4.002   9.493 -0.4890  0.7576 -3.1569
  165SOPE  H13S18558   0.250   3.968   9.503 -0.9493  0.7219 -1.1597
  165SOPE  C21418559   0.187   4.144   9.375  0.4999  0.0080  0.9545
  165SOPE  H14R18560   0.289   4.186   9.373  0.5742 -0.0353  2.5499
  165SOPE  H14S18561   0.111   4.225   9.383  1.2700  0.7249  1.0424
  165SOPE  C21518562   0.167   4.077   9.248 -0.4951 -0.3913  0.0863
  165SOPE  H15R18563   0.153   4.158   9.173  0.2728 -0.7431 -0.4647
  165SOPE  H15S18564   0.074   4.016   9.252  0.6370 -2.1539  3.5009
  165SOPE  C21618565   0.286   3.993   9.192  0.7034  0.5106  0.5565
  165SOPE  H16R18566   0.319   3.909   9.256 -0.6467 -0.5993 -0.1691
  165SOPE  H16S18567   0.378   4.055   9.176  2.2633 -1.9669 -0.7492
  165SOPE  C21718568   0.252   3.940   9.045  0.0805 -0.8488 -0.3807
  165SOPE  H17R18569   0.163   3.873   9.042  1.0159 -2.0716 -1.6447
  165SOPE  H17S18570   0.334   3.876   9.008  1.5674  0.9567 -0.3517
  165SOPE  C21818571   0.228   4.051   8.932  0.1717 -0.7278 -0.6566
  165SOPE  H18R18572   0.212   4.017   8.827 -0.9737  0.7281 -0.9913
  165SOPE  H18S18573   0.309   4.127   8.937 -1.5955  1.1602  1.7308
  165SOPE  H18T18574   0.130   4.095   8.961  0.2489 -1.1755  0.3436
  165SOPE   C3318575   0.722   4.738  10.071  0.2887  0.0282 -0.0074
  165SOPE   H3X18576   0.636   4.703  10.011  0.6988 -3.5384  1.2265
  165SOPE   H3Y18577   0.777   4.648  10.105  0.6303  0.4310  0.5312
  165SOPE   C3418578   0.829   4.825  10.008 -0.2016  0.4716  0.8095
  165SOPE   H4X18579   0.901   4.835  10.091  0.9440 -0.3031 -0.0539
  165SOPE   H4Y18580   0.788   4.924   9.977 -1.2901  0.5180  2.2958
  165SOPE   C3518581   0.907   4.755   9.896  0.1257 -0.1754  0.1832
  165SOPE   H5X18582   0.942   4.654   9.923  2.2600  0.5719  0.3792
  165SOPE   H5Y18583   0.999   4.815   9.878 -0.1237  0.4830  1.0441
  165SOPE   C3618584   0.812   4.755   9.772  0.8412  0.1252 -0.7789
  165SOPE   H6X18585   0.790   4.858   9.738 -0.5312 -0.4370 -1.6882
  165SOPE   H6Y18586   0.715   4.714   9.808  0.3469  1.2367 -0.8235
  165SOPE   C3718587   0.848   4.644   9.669  0.4771 -0.7481 -0.9694
  165SOPE   H7X18588   0.834   4.550   9.726  1.7372  0.7506  2.0669
  165SOPE   H7Y18589   0.956   4.654   9.643  0.3669  1.3326 -0.8045
  165SOPE   C3818590   0.756   4.642   9.545 -0.1865 -0.2935 -0.2143
  165SOPE   H8X18591   0.652   4.607   9.563 -0.1908 -0.2144 -0.0863
  165SOPE   H8Y18592   0.806   4.573   9.473  0.1827 -0.5917  0.3240
  165SOPE   C3918593   0.740   4.778   9.467 -0.2945  0.3094 -0.5847
  165SOPE   H9X18594   0.840   4.826   9.460  0.4621 -1.2181 -0.6697
  165SOPE   H9Y18595   0.669   4.843   9.521 -1.7592  0.4388 -2.5634
  165SOPE  C31018596   0.688   4.761   9.329  0.0871  0.2520  0.3725
  165SOPE  H10X18597   0.595   4.700   9.337 -0.5926  1.3749  1.4198
  165SOPE  H10Y18598   0.763   4.702   9.273 -0.8128  1.3099 -2.0881
  165SOPE  C31118599   0.653   4.895   9.257  0.3993  0.1263  0.2530
  165SOPE  H11X18600   0.740   4.964   9.260 -1.0282  1.9961  3.0271
  165SOPE  H11Y18601   0.567   4.933   9.317  2.6785  1.5568  2.8292
  165SOPE  C31218602   0.611   4.875   9.110  0.6127  0.0724  0.1717
  165SOPE  H12X18603   0.543   4.788   9.101  0.7506 -0.1231  0.9531
  165SOPE  H12Y18604   0.701   4.834   9.060  1.5350  0.0568  1.7836
  165SOPE  C31318605   0.579   5.006   9.034 -0.0813 -0.5838 -0.4376
  165SOPE  H13X18606   0.661   5.078   9.057 -0.9170  0.2351  0.0516
  165SOPE  H13Y18607   0.482   5.046   9.069  0.6270 -0.0229  1.0036
  165SOPE  C31418608   0.569   4.977   8.887  0.6510 -0.1950 -0.3044
  165SOPE  H14X18609   0.490   4.900   8.878 -1.2660  1.7262 -0.6681
  165SOPE  H14Y18610   0.655   4.928   8.837 -0.0453 -1.1485 -0.6003
  165SOPE  C31518611   0.515   5.094   8.804 -0.6143  0.6210  0.4614
  165SOPE  H15X18612   0.571   5.186   8.834 -2.2451  1.4752  1.0036
  165SOPE  H15Y18613   0.414   5.102   8.849  1.0235 -0.4259  4.8308
  165SOPE  C31618614   0.526   5.063   8.651 -0.5861  0.0596 -0.5834
  165SOPE  H16X18615   0.470   5.142   8.595 -2.2622 -0.3219  0.4914
  165SOPE  H16Y18616   0.492   4.960   8.627  0.7918 -1.0832  1.9725
  165SOPE  C31718617   0.664   5.086   8.595  0.4649 -0.1109 -0.1579
  165SOPE  H17X18618   0.735   5.038   8.667 -0.9988 -0.8216  0.8569
  165SOPE  H17Y18619   0.691   5.193   8.593  1.7241 -0.3594  1.4272
  165SOPE  C31818620   0.677   5.026   8.456  0.2339 -0.2194  0.0369
  165SOPE  H18X18621   0.639   4.921   8.455 -1.1086  0.2522 -0.9790
  165SOPE  H18Y18622   0.784   5.042   8.430  0.1287  2.4230  1.0187
  165SOPE  H18Z18623   0.610   5.074   8.381  0.5067  3.7116  2.0868
  166SOPE     N18624   5.276   4.987  10.790  0.8320  0.4251 -0.2430
  166SOPE   HN118625   5.221   5.072  10.811 -0.7901 -0.7362  0.4831
  166SOPE   HN218626   5.325   4.957  10.877 -0.2847  0.6797  0.4929
  166SOPE   HN318627   5.341   5.005  10.711  0.6988 -1.4526 -0.8255
  166SOPE   C1218628   5.189   4.872  10.756 -0.4652  0.1883 -0.5174
  166SOPE  H12A18629   5.118   4.896  10.674 -0.2737  1.6752 -0.2697
  166SOPE  H12B18630   5.119   4.862  10.842 -1.3098  1.4416 -1.0235
  166SOPE   C1118631   5.274   4.743  10.735 -0.1112  0.5717  0.7936
  166SOPE  H11A18632   5.218   4.652  10.708  1.6382  0.4505 -3.1627
  166SOPE  H11B18633   5.314   4.732  10.838  0.7152 -1.1267  0.3259
  166SOPE     P18634   5.486   4.645  10.621 -0.2581  0.5875 -0.1095
  166SOPE   O1318635   5.470   4.539  10.724  0.5616 -0.3479 -0.4058
  166SOPE   O1418636   5.623   4.700  10.616 -0.3008 -0.5426  0.7104
  166SOPE   O1218637   5.381   4.765  10.640  0.4264 -0.3087 -0.2070
  166SOPE   O1118638   5.450   4.589  10.478  0.3561  0.7560  0.1835
  166SOPE    C118639   5.305   4.555  10.469 -0.4854 -0.0771  0.0833
  166SOPE    HA18640   5.238   4.640  10.494  0.3897  0.6270  0.0826
  166SOPE    HB18641   5.282   4.466  10.532  0.7723  1.5139  2.9595
  166SOPE    C218642   5.254   4.531  10.323  0.3539 -0.1110  0.4104
  166SOPE    HS18643   5.307   4.441  10.286  0.2447  0.5042 -1.3393
  166SOPE   O2118644   5.279   4.650  10.246 -0.2555  0.2744  0.1712
  166SOPE   C2118645   5.318   4.636  10.125  0.0159  0.1705  0.6173
  166SOPE   O2218646   5.334   4.528  10.071  0.0137  0.0098  0.4734
  166SOPE   C2218647   5.336   4.779  10.065 -0.3962  0.5719  0.2432
  166SOPE   H2R18648   5.436   4.785  10.018 -0.8151 -1.5191 -1.0342
  166SOPE   H2S18649   5.327   4.844  10.154 -1.9962  1.3282 -0.4348
  166SOPE    C318650   5.100   4.497  10.310  0.6788 -0.5650 -0.6453
  166SOPE    HX18651   5.038   4.579  10.351 -2.0458 -2.3507 -0.9678
  166SOPE    HY18652   5.072   4.409  10.373 -2.4434  0.5782 -0.3027
  166SOPE   O3118653   5.052   4.488  10.170  0.1514 -0.2464  0.3499
  166SOPE   C3118654   5.064   4.362  10.124 -0.0009  0.0880 -0.4563
  166SOPE   O3218655   5.119   4.268  10.182 -0.4076  0.9340 -0.2308
  166SOPE   C3218656   4.986   4.345   9.987  0.5885  0.0885  0.0210
  166SOPE   H2X18657   4.931   4.441   9.973 -0.3691 -0.4478  0.0106
  166SOPE   H2Y18658   4.909   4.266  10.000  1.1732 -0.8067 -1.6539
  166SOPE   C2318659   5.217   4.795   9.970 -0.0393  0.2092  0.0437
  166SOPE   H3R18660   5.205   4.901   9.937 -0.2736 -0.1027 -0.9119
  166SOPE   H3S18661   5.119   4.767  10.014 -0.5117  2.6635  0.7150
  166SOPE   C2418662   5.234   4.713   9.839  0.2095  0.3673  0.1901
  166SOPE   H4R18663   5.331   4.738   9.792  1.1531 -1.8890  0.7636
  166SOPE   H4S18664   5.236   4.603   9.857  1.3182  0.1487 -1.1142
  166SOPE   C2518665   5.120   4.745   9.751  0.6899  0.2283 -0.2757
  166SOPE   H5R18666   5.020   4.729   9.798  0.8132  1.3842  0.3885
  166SOPE   H5S18667   5.113   4.848   9.712 -1.4356 -0.1041 -0.9030
  166SOPE   C2618668   5.131   4.667   9.618 -1.1609  0.1463 -0.1662
  166SOPE   H6R18669   5.222   4.705   9.567 -0.6468 -0.4334  0.3155
  166SOPE   H6S18670   5.154   4.561   9.639 -1.9867  0.4329  2.5860
  166SOPE   C2718671   5.013   4.675   9.531  0.1834  0.8557  0.1010
  166SOPE   H7R18672   4.929   4.618   9.576  0.0297 -0.7355 -2.0623
  166SOPE   H7S18673   4.976   4.777   9.507 -1.6536  0.5717  1.4556
  166SOPE   C2818674   5.050   4.592   9.409 -0.4740  0.2700  0.4609
  166SOPE   H8R18675   5.133   4.645   9.358  0.4944 -1.5988 -0.0204
  166SOPE   H8S18676   5.098   4.496   9.439  0.7972  1.0066  0.8979
  166SOPE   C2918677   4.927   4.559   9.322 -0.5826 -0.3422  0.1252
  166SOPE   H9118678   4.869   4.470   9.350 -3.6473  1.2928 -0.5886
  166SOPE  C21018679   4.902   4.631   9.213 -0.2288  0.0261  0.7192
  166SOPE  H10118680   4.816   4.606   9.150  1.1987 -1.2458 -0.8501
  166SOPE  C21118681   4.968   4.753   9.158 -0.3619 -0.0778 -0.6613
  166SOPE  H11R18682   5.050   4.780   9.228 -1.7633  1.8280  0.3442
  166SOPE  H11S18683   4.890   4.832   9.153 -0.5662 -0.3015 -1.1287
  166SOPE  C21218684   5.018   4.726   9.020 -0.1350  0.4773  0.0924
  166SOPE  H12R18685   5.108   4.662   9.011  0.5031  1.5980 -2.2022
  166SOPE  H12S18686   5.048   4.828   8.987 -1.4364  0.5750 -0.8125
  166SOPE  C21318687   4.902   4.695   8.925 -0.2740  0.2009  0.8556
  166SOPE  H13R18688   4.828   4.777   8.937 -1.0007  0.0929 -2.1509
  166SOPE  H13S18689   4.861   4.595   8.950 -1.3098  0.4339  0.1599
  166SOPE  C21418690   4.952   4.704   8.771  0.0200  0.1588 -0.4396
  166SOPE  H14R18691   5.002   4.609   8.742 -2.3552 -0.8589 -1.4748
  166SOPE  H14S18692   5.027   4.785   8.760  1.6231 -1.2246 -0.2671
  166SOPE  C21518693   4.837   4.733   8.671  0.2475 -0.0555 -0.0502
  166SOPE  H15R18694   4.869   4.760   8.568  1.1569  0.9761  0.4846
  166SOPE  H15S18695   4.781   4.817   8.717 -0.3399 -2.0699  3.2512
  166SOPE  C21618696   4.735   4.615   8.637 -0.0154  0.1702 -0.2644
  166SOPE  H16R18697   4.631   4.653   8.632 -0.1317 -0.0078  0.6067
  166SOPE  H16S18698   4.737   4.557   8.732  0.5332  0.9869  0.2348
  166SOPE  C21718699   4.771   4.529   8.515  0.0556  0.8214  0.2311
  166SOPE  H17R18700   4.861   4.467   8.537  0.2621  1.5627  1.5570
  166SOPE  H17S18701   4.807   4.601   8.439  0.5899  0.6250  0.2927
  166SOPE  C21818702   4.652   4.439   8.478 -0.5045 -0.1713  0.7956
  166SOPE  H18R18703   4.675   4.361   8.402  2.5143  0.5738  0.8546
  166SOPE  H18S18704   4.578   4.507   8.430  0.3121 -0.7591 -1.3969
  166SOPE  H18T18705   4.612   4.387   8.567  0.3767  1.5890  2.2804
  166SOPE   C3318706   5.083   4.306   9.863 -0.2775  0.3805 -0.2344
  166SOPE   H3X18707   5.145   4.219   9.893  0.6039  2.2199  4.2090
  166SOPE   H3Y18708   5.142   4.400   9.853  0.1210  0.4348  2.0897
  166SOPE   C3418709   5.009   4.263   9.737 -0.2522 -0.3965 -0.5373
  166SOPE   H4X18710   4.950   4.348   9.696  0.0226  0.1651  0.2102
  166SOPE   H4Y18711   4.944   4.177   9.764  0.3385 -0.1024  2.0525
  166SOPE   C3518712   5.098   4.232   9.613 -0.6276 -0.5073  0.0886
  166SOPE   H5X18713   5.163   4.145   9.632 -0.1093 -0.0252  0.5532
  166SOPE   H5Y18714   5.162   4.322   9.595  0.4227 -1.2397  0.0844
  166SOPE   C3618715   5.015   4.223   9.488 -0.3527  0.0274 -0.5291
  166SOPE   H6X18716   4.966   4.322   9.473  0.8796  1.1107  2.0435
  166SOPE   H6Y18717   4.940   4.143   9.504  0.2132 -0.6102 -0.9981
  166SOPE   C3718718   5.097   4.187   9.356  0.2403  0.3883 -0.0760
  166SOPE   H7X18719   5.173   4.109   9.379 -1.7775 -2.1332 -1.4133
  166SOPE   H7Y18720   5.155   4.275   9.321  0.3013  0.1662 -0.5358
  166SOPE   C3818721   5.003   4.154   9.237 -0.2180 -0.3962 -0.4891
  166SOPE   H8X18722   4.913   4.218   9.227 -0.0396 -0.0121  0.2613
  166SOPE   H8Y18723   4.963   4.052   9.250 -0.5202 -0.2463 -0.2205
  166SOPE   C3918724   5.069   4.143   9.098  0.6883 -0.7084  1.3239
  166SOPE   H9X18725   4.984   4.118   9.030  2.5490 -1.2336 -0.9443
  166SOPE   H9Y18726   5.144   4.061   9.091  1.6630  0.2911 -0.5208
  166SOPE  C31018727   5.131   4.273   9.045  0.0465  0.0846  0.4782
  166SOPE  H10X18728   5.218   4.292   9.110  0.8478 -1.7461  0.0118
  166SOPE  H10Y18729   5.057   4.356   9.047  0.4132  0.4807 -0.9079
  166SOPE  C31118730   5.187   4.252   8.901 -0.2246 -0.0600 -0.1563
  166SOPE  H11X18731   5.120   4.219   8.820  1.9123  2.1036 -3.0234
  166SOPE  H11Y18732   5.267   4.175   8.909  1.3530  1.3965 -1.1877
  166SOPE  C31218733   5.265   4.375   8.860  0.5669 -0.0909  0.1971
  166SOPE  H12X18734   5.345   4.401   8.933  0.9306  1.2337 -0.6300
  166SOPE  H12Y18735   5.197   4.462   8.874  1.2756  0.3729  0.8376
  166SOPE  C31318736   5.322   4.364   8.717  0.0779  0.1857 -0.6788
  166SOPE  H13X18737   5.334   4.472   8.693 -0.6078  0.0570 -1.6750
  166SOPE  H13Y18738   5.252   4.318   8.643  1.5127  1.7759 -3.2038
  166SOPE  C31418739   5.456   4.296   8.692 -0.1287  0.4549 -0.1866
  166SOPE  H14X18740   5.433   4.189   8.673 -4.1967  1.0864  0.2978
  166SOPE  H14Y18741   5.507   4.309   8.790 -1.4358  1.9973  0.3412
  166SOPE  C31518742   5.557   4.365   8.594 -0.1976 -0.1568 -0.7590
  166SOPE  H15X18743   5.649   4.303   8.602  0.0094 -0.3842 -3.8626
  166SOPE  H15Y18744   5.582   4.470   8.619 -1.6214 -0.1597  0.9311
  166SOPE  C31618745   5.516   4.350   8.449 -0.6459  0.5270  0.3530
  166SOPE  H16X18746   5.466   4.443   8.414  1.0522  0.5661 -2.3103
  166SOPE  H16Y18747   5.438   4.272   8.435  1.1841 -1.1994 -0.9713
  166SOPE  C31718748   5.639   4.320   8.353 -0.1505  0.2045 -0.5482
  166SOPE  H17X18749   5.608   4.295   8.249 -1.6378 -1.4812  0.2460
  166SOPE  H17Y18750   5.708   4.241   8.390 -0.3689  0.4982  0.5318
  166SOPE  C31818751   5.732   4.445   8.326 -0.2437  0.8770 -0.0688
  166SOPE  H18X18752   5.685   4.495   8.239 -2.2420 -1.2681 -0.3222
  166SOPE  H18Y18753   5.834   4.414   8.295 -0.6904  1.8479 -2.8038
  166SOPE  H18Z18754   5.749   4.509   8.415 -0.1059  0.5772  0.1228
  167SOPE     N18755   6.479   2.506   6.203 -0.4513 -0.2519 -0.9210
  167SOPE   HN118756   6.468   2.592   6.145  1.3104  1.4002  1.0291
  167SOPE   HN218757   6.509   2.538   6.298  0.4311 -2.8429 -0.2465
  167SOPE   HN318758   6.542   2.434   6.164  1.1698  1.0487 -0.8447
  167SOPE   C1218759   6.342   2.441   6.213  0.5958 -0.2841  0.6433
  167SOPE  H12A18760   6.357   2.352   6.279  1.7786 -0.8470 -0.3537
  167SOPE  H12B18761   6.314   2.417   6.109 -0.9122 -1.0935  1.2050
  167SOPE   C1118762   6.244   2.532   6.285  0.8962  0.3636 -0.3522
  167SOPE  H11A18763   6.254   2.549   6.394 -4.4136 -2.5324  0.9446
  167SOPE  H11B18764   6.149   2.475   6.282  1.4834 -0.6224 -0.7944
  167SOPE     P18765   6.100   2.705   6.145 -0.3804 -0.2155  0.2618
  167SOPE   O1318766   6.098   2.650   6.006  0.3746  0.0036  1.0230
  167SOPE   O1418767   6.085   2.852   6.165 -0.1751  0.7995  0.3255
  167SOPE   O1218768   6.231   2.656   6.213 -0.0464 -0.2691  0.2663
  167SOPE   O1118769   5.989   2.624   6.224 -0.3549  0.1722 -0.4634
  167SOPE    C118770   5.927   2.693   6.326  0.0820  0.0087 -0.2841
  167SOPE    HA18771   5.822   2.715   6.298  0.1567  0.7253 -0.0193
  167SOPE    HB18772   5.972   2.791   6.353 -0.1754  0.6016 -1.8908
  167SOPE    C218773   5.891   2.607   6.451  0.3686  0.4172  0.1616
  167SOPE    HS18774   5.820   2.662   6.517 -1.1946 -2.0827  0.6760
  167SOPE   O2118775   6.005   2.564   6.532 -0.1326 -0.1163  0.2624
  167SOPE   C2118776   6.056   2.658   6.610  0.4591  0.3504  0.3904
  167SOPE   O2218777   6.013   2.769   6.629 -0.0585  0.0991  0.0005
  167SOPE   C2218778   6.170   2.599   6.686 -0.2123  0.2837  0.7545
  167SOPE   H2R18779   6.242   2.560   6.611 -0.4115 -1.9150  1.6261
  167SOPE   H2S18780   6.117   2.514   6.733 -0.9404  0.1305 -0.3088
  167SOPE    C318781   5.825   2.479   6.393  0.0656 -0.3330  0.7993
  167SOPE    HX18782   5.908   2.422   6.346  0.3035  1.4184 -1.0402
  167SOPE    HY18783   5.752   2.492   6.311  0.3853 -0.5852  0.4740
  167SOPE   O3118784   5.747   2.399   6.490 -0.8391 -0.2396  0.5434
  167SOPE   C3118785   5.812   2.294   6.541  0.0739  0.0289 -0.1638
  167SOPE   O3218786   5.923   2.260   6.513 -0.3738 -0.4352  0.4517
  167SOPE   C3218787   5.725   2.221   6.645  0.6421 -0.7267  0.0715
  167SOPE   H2X18788   5.727   2.116   6.609 -3.3540 -0.8068 -0.4043
  167SOPE   H2Y18789   5.619   2.254   6.648  0.9262  0.2525 -0.3478
  167SOPE   C2318790   6.231   2.685   6.799  0.5405 -0.1552  0.0245
  167SOPE   H3R18791   6.281   2.775   6.759  2.1388  0.4311  3.0531
  167SOPE   H3S18792   6.310   2.626   6.850 -0.0037 -0.9872 -0.0617
  167SOPE   C2418793   6.120   2.727   6.899 -0.4281 -0.2473  1.5767
  167SOPE   H4R18794   6.052   2.798   6.848 -1.3859 -1.2136  1.4572
  167SOPE   H4S18795   6.063   2.634   6.922 -4.0873  1.4002  0.0224
  167SOPE   C2518796   6.190   2.784   7.022 -0.2931 -0.0889 -0.3210
  167SOPE   H5R18797   6.282   2.725   7.040  0.3541  0.6134 -1.1966
  167SOPE   H5S18798   6.220   2.888   6.994 -0.0205 -0.2854 -0.7814
  167SOPE   C2618799   6.102   2.779   7.136 -0.0550  0.0817  0.0464
  167SOPE   H6R18800   5.999   2.814   7.116 -0.7108  0.9392  3.9802
  167SOPE   H6S18801   6.091   2.674   7.170 -0.8380  0.6682  1.7263
  167SOPE   C2718802   6.159   2.843   7.269  0.6879 -0.9698 -0.3242
  167SOPE   H7R18803   6.250   2.792   7.306  0.2297 -0.9048  0.9415
  167SOPE   H7S18804   6.180   2.950   7.249 -1.4445 -0.1950  1.2128
  167SOPE   C2818805   6.051   2.844   7.383 -0.2719  0.3157  0.1644
  167SOPE   H8R18806   5.962   2.899   7.346 -0.6708 -0.0312  0.6077
  167SOPE   H8S18807   6.016   2.739   7.381 -1.7846  0.7856  0.4415
  167SOPE   C2918808   6.100   2.899   7.517  0.8207  0.5360  0.4702
  167SOPE   H9118809   6.160   2.990   7.507 -0.5854  1.3014 -2.2854
  167SOPE  C21018810   6.068   2.842   7.636 -1.0303 -0.0856 -0.1970
  167SOPE  H10118811   6.112   2.888   7.726  0.2046  2.5269 -2.0342
  167SOPE  C21118812   5.993   2.712   7.650 -0.9407  0.2591 -1.0960
  167SOPE  H11R18813   5.957   2.670   7.554 -1.6590  1.0930 -1.2008
  167SOPE  H11S18814   5.900   2.725   7.709  0.1774  0.7655  0.6184
  167SOPE  C21218815   6.069   2.594   7.707  0.6115 -0.2474 -0.3482
  167SOPE  H12R18816   6.155   2.561   7.644  0.5881 -1.2371  0.1166
  167SOPE  H12S18817   6.003   2.508   7.728  2.8115 -1.8619  0.3871
  167SOPE  C21318818   6.124   2.623   7.847  0.2119 -1.1062  0.2419
  167SOPE  H13R18819   6.046   2.668   7.913  0.6754 -0.8113  0.6002
  167SOPE  H13S18820   6.214   2.688   7.844 -0.5409  0.0361  1.2526
  167SOPE  C21418821   6.157   2.492   7.910  0.5526 -0.3504  0.2659
  167SOPE  H14R18822   6.235   2.457   7.840 -1.2401 -1.6220 -1.1932
  167SOPE  H14S18823   6.072   2.421   7.909 -2.3036  2.7862  0.2819
  167SOPE  C21518824   6.203   2.505   8.054  0.2575 -0.0420 -0.7467
  167SOPE  H15R18825   6.298   2.563   8.055  2.0154 -2.7301 -1.3985
  167SOPE  H15S18826   6.221   2.405   8.097 -0.9028  0.4862  1.0876
  167SOPE  C21618827   6.113   2.576   8.163  0.0105  0.0217 -0.4099
  167SOPE  H16R18828   6.018   2.519   8.166  1.2595 -2.1712 -0.6392
  167SOPE  H16S18829   6.098   2.682   8.132 -1.1945 -0.2228 -0.7093
  167SOPE  C21718830   6.180   2.591   8.302  0.0823  1.0719  0.0910
  167SOPE  H17R18831   6.262   2.662   8.278 -0.1032  0.6437 -1.9782
  167SOPE  H17S18832   6.231   2.500   8.341 -1.6001  0.3308  0.6367
  167SOPE  C21818833   6.074   2.657   8.396 -0.5909  1.0895  0.3055
  167SOPE  H18R18834   6.065   2.766   8.377 -2.1293  0.8388 -0.5599
  167SOPE  H18S18835   6.117   2.631   8.495 -0.9070 -0.4292  0.0765
  167SOPE  H18T18836   5.976   2.607   8.380 -0.3049  0.9009 -1.0058
  167SOPE   C3318837   5.802   2.226   6.779  0.1726 -0.0687  0.8682
  167SOPE   H3X18838   5.723   2.221   6.858 -1.4295  3.3146 -0.3270
  167SOPE   H3Y18839   5.847   2.327   6.787  1.9983 -0.7917  0.2435
  167SOPE   C3418840   5.903   2.117   6.791 -0.6378  0.4133 -0.4455
  167SOPE   H4X18841   5.976   2.119   6.707 -0.5103  0.4651 -0.3340
  167SOPE   H4Y18842   5.856   2.017   6.780 -0.2945  0.4214 -2.3631
  167SOPE   C3518843   5.977   2.126   6.926 -0.8276 -0.2254  0.4009
  167SOPE   H5X18844   6.041   2.038   6.944 -0.2685 -0.2498 -1.4896
  167SOPE   H5Y18845   5.895   2.133   7.001  0.1399  0.7778  1.3876
  167SOPE   C3618846   6.083   2.247   6.944  0.1073 -0.1885  0.0540
  167SOPE   H6X18847   6.054   2.344   6.899  1.2046 -0.1833 -0.6708
  167SOPE   H6Y18848   6.176   2.216   6.892  0.1649 -0.5583  0.3775
  167SOPE   C3718849   6.130   2.270   7.082 -0.5347  0.7262 -0.4570
  167SOPE   H7X18850   6.232   2.313   7.089 -0.3376  0.1210  0.8301
  167SOPE   H7Y18851   6.136   2.176   7.142  1.5236  1.6927  0.9980
  167SOPE   C3818852   6.036   2.365   7.168  0.3186  0.0903  0.3382
  167SOPE   H8X18853   5.939   2.310   7.170  0.6055 -0.5825 -1.6753
  167SOPE   H8Y18854   6.034   2.458   7.107  1.9375 -0.4963 -0.6679
  167SOPE   C3918855   6.097   2.386   7.301  0.8784  0.5618 -0.1937
  167SOPE   H9X18856   6.166   2.472   7.301 -1.0565  2.1839 -0.2413
  167SOPE   H9Y18857   6.149   2.290   7.320 -1.6504 -1.0382 -0.7553
  167SOPE  C31018858   6.001   2.391   7.426  0.4794  0.3701 -0.2073
  167SOPE  H10X18859   5.938   2.482   7.410 -0.4459 -0.5745 -2.2682
  167SOPE  H10Y18860   6.063   2.400   7.518 -2.1965  1.8068  1.6156
  167SOPE  C31118861   5.905   2.274   7.431  0.4101 -0.1700 -0.5303
  167SOPE  H11X18862   5.966   2.181   7.428  0.0787 -0.6460  3.0726
  167SOPE  H11Y18863   5.827   2.281   7.352  2.0197  1.9550 -2.0207
  167SOPE  C31218864   5.827   2.270   7.564 -0.5126 -0.9795 -0.2019
  167SOPE  H12X18865   5.897   2.259   7.649 -0.1195  0.0688 -0.3728
  167SOPE  H12Y18866   5.774   2.172   7.567  0.2324 -1.3627  0.9855
  167SOPE  C31318867   5.730   2.387   7.591  0.7380 -0.4535  0.0463
  167SOPE  H13X18868   5.662   2.397   7.504  1.7713 -1.4527 -0.9005
  167SOPE  H13Y18869   5.786   2.482   7.592  0.3452 -0.2209  1.1969
  167SOPE  C31418870   5.652   2.366   7.717  0.0633 -0.2763  0.2892
  167SOPE  H14X18871   5.601   2.269   7.697  1.0741 -0.9715  0.9834
  167SOPE  H14Y18872   5.580   2.450   7.728  0.8443  0.7208 -1.7716
  167SOPE  C31518873   5.734   2.363   7.840 -0.5917  0.1323 -0.4458
  167SOPE  H15X18874   5.793   2.457   7.849  1.6302 -0.9446 -2.5687
  167SOPE  H15Y18875   5.806   2.279   7.831 -0.6833  0.0576 -0.4813
  167SOPE  C31618876   5.644   2.349   7.971 -0.5293 -0.2628  0.1496
  167SOPE  H16X18877   5.596   2.251   7.953 -1.0697  0.0946 -0.4117
  167SOPE  H16Y18878   5.562   2.424   7.969  0.7127  1.2127  1.6371
  167SOPE  C31718879   5.718   2.361   8.105 -0.8168 -0.1744  0.1716
  167SOPE  H17X18880   5.768   2.460   8.106 -0.7834 -0.1910  0.1234
  167SOPE  H17Y18881   5.800   2.288   8.115  0.2801  1.1136  1.0081
  167SOPE  C31818882   5.630   2.359   8.225 -0.0508 -0.0499  0.4988
  167SOPE  H18X18883   5.583   2.260   8.240  2.4962 -1.3680  0.3316
  167SOPE  H18Y18884   5.555   2.439   8.208 -0.3189 -0.6512 -1.3238
  167SOPE  H18Z18885   5.689   2.365   8.319  0.8679 -2.2765  0.1387
  168SOPE     N18886   5.026   0.261   6.440 -0.2522 -0.0528 -0.1159
  168SOPE   HN118887   5.014   0.172   6.492  2.1167 -2.3235 -3.0906
  168SOPE   HN218888   5.071   0.341   6.489 -1.3159  1.2170 -1.1540
  168SOPE   HN318889   4.927   0.293   6.436  0.1430  1.7682  2.2529
  168SOPE   C1218890   5.084   0.234   6.303 -0.5548  0.1445  0.3617
  168SOPE  H12A18891   5.192   0.208   6.310 -0.2601  1.0429 -0.6084
  168SOPE  H12B18892   5.073   0.328   6.246 -1.2787  0.0244  0.2951
  168SOPE   C1118893   5.004   0.120   6.233  0.2869  0.0237  0.0352
  168SOPE  H11A18894   5.073   0.084   6.153  0.9994 -1.6577  1.3273
  168SOPE  H11B18895   4.907   0.157   6.196  0.3202 -1.5602 -1.7577
  168SOPE     P18896   5.098  -0.100   6.348  0.0964 -0.2626 -0.6186
  168SOPE   O1318897   5.126  -0.179   6.222  0.1760 -0.2118 -0.5414
  168SOPE   O1418898   5.055  -0.178   6.465  0.3060 -0.0836  0.2269
  168SOPE   O1218899   4.984   0.009   6.326  0.3640 -0.0241  0.0620
  168SOPE   O1118900   5.227  -0.018   6.375  0.4336 -0.2735 -0.2555
  168SOPE    C118901   5.355  -0.086   6.395  0.7767 -0.4689  0.4299
  168SOPE    HA18902   5.429  -0.061   6.316  3.8131 -2.6740  2.3360
  168SOPE    HB18903   5.342  -0.197   6.397  2.4961 -0.7076  0.4556
  168SOPE    C218904   5.431  -0.041   6.521  0.2400  0.4588 -0.4431
  168SOPE    HS18905   5.540  -0.056   6.504 -0.1443 -1.2952 -1.6400
  168SOPE   O2118906   5.391  -0.131   6.630  0.1013 -0.7587 -0.0500
  168SOPE   C2118907   5.465  -0.238   6.646  0.6406  0.2461 -0.2083
  168SOPE   O2218908   5.550  -0.279   6.568  0.3517 -0.1585  0.6096
  168SOPE   C2218909   5.422  -0.317   6.770 -0.3863 -0.2997  0.5342
  168SOPE   H2R18910   5.482  -0.406   6.797 -1.6781 -0.7639  2.0143
  168SOPE   H2S18911   5.321  -0.360   6.748 -0.9884 -0.3828  3.1650
  168SOPE    C318912   5.399   0.105   6.563  0.7001  0.1928  0.4175
  168SOPE    HX18913   5.290   0.123   6.554  0.7711  0.0584 -0.9214
  168SOPE    HY18914   5.434   0.186   6.494  0.9979  2.7478  3.3343
  168SOPE   O3118915   5.448   0.144   6.696 -0.3711 -0.2443 -0.2306
  168SOPE   C3118916   5.359   0.129   6.795  0.0811 -0.7645 -0.0312
  168SOPE   O3218917   5.241   0.093   6.782  0.1671 -0.4568 -0.6633
  168SOPE   C3218918   5.405   0.173   6.929  0.5261  0.2071  0.1247
  168SOPE   H2X18919   5.385   0.277   6.961  0.9642  0.9413 -1.8337
  168SOPE   H2Y18920   5.516   0.159   6.930  0.7325  1.4096 -1.4446
  168SOPE   C2318921   5.403  -0.240   6.897 -0.2580  0.2256 -0.3970
  168SOPE   H3R18922   5.307  -0.184   6.905  0.2618  0.9275  1.4898
  168SOPE   H3S18923   5.482  -0.164   6.914  0.3052 -0.0623 -1.6462
  168SOPE   C2418924   5.400  -0.334   7.016  0.1225  0.1010 -0.1386
  168SOPE   H4R18925   5.319  -0.405   6.991 -0.3786  0.5703  0.1436
  168SOPE   H4S18926   5.496  -0.391   7.012 -0.6558 -1.1966 -2.4436
  168SOPE   C2518927   5.385  -0.273   7.162 -0.3763  0.3439  0.2644
  168SOPE   H5R18928   5.478  -0.218   7.191 -1.7524  1.6754  2.4715
  168SOPE   H5S18929   5.305  -0.197   7.167 -1.1286 -0.2404 -1.8414
  168SOPE   C2618930   5.368  -0.387   7.264 -0.7486 -0.9154  0.3042
  168SOPE   H6R18931   5.273  -0.444   7.263 -0.7516 -0.9176  0.5748
  168SOPE   H6S18932   5.449  -0.463   7.253 -1.7484 -1.9348 -0.1581
  168SOPE   C2718933   5.393  -0.323   7.409 -0.4501 -0.0584 -0.0467
  168SOPE   H7R18934   5.494  -0.277   7.413 -0.5240  0.1496 -0.4492
  168SOPE   H7S18935   5.325  -0.235   7.411 -0.3991  0.2631 -4.2148
  168SOPE   C2818936   5.377  -0.427   7.523 -0.6592  0.1160  0.8321
  168SOPE   H8R18937   5.280  -0.480   7.515 -1.1663  0.7804  2.1328
  168SOPE   H8S18938   5.458  -0.503   7.517 -1.3809 -1.4721  6.2021
  168SOPE   C2918939   5.391  -0.354   7.657  0.3436 -1.2179 -0.6233
  168SOPE   H9118940   5.296  -0.336   7.710  0.0742 -1.7214 -0.9269
  168SOPE  C21018941   5.500  -0.311   7.717  0.4294 -0.2980 -0.6689
  168SOPE  H10118942   5.494  -0.271   7.820  1.6339 -0.9890 -0.3104
  168SOPE  C21118943   5.640  -0.328   7.665 -0.1596  0.1443 -0.7339
  168SOPE  H11R18944   5.647  -0.265   7.574 -0.1263 -0.4661 -1.1643
  168SOPE  H11S18945   5.671  -0.433   7.644  0.6005  0.7114 -2.6727
  168SOPE  C21218946   5.752  -0.261   7.762  0.4852 -0.2058 -0.3356
  168SOPE  H12R18947   5.725  -0.153   7.769  0.0168 -0.3553  0.2209
  168SOPE  H12S18948   5.838  -0.261   7.691 -0.5213 -0.8877 -1.5925
  168SOPE  C21318949   5.782  -0.327   7.897 -0.1274  0.1031  0.2161
  168SOPE  H13R18950   5.804  -0.436   7.894  0.4260  0.2193  0.0575
  168SOPE  H13S18951   5.693  -0.327   7.964 -1.2898 -2.6462 -1.1714
  168SOPE  C21418952   5.907  -0.259   7.968 -0.1719  0.2744 -0.0744
  168SOPE  H14R18953   5.879  -0.156   7.999 -0.6796  0.2279 -0.3485
  168SOPE  H14S18954   5.996  -0.245   7.904 -0.9909  0.5901 -1.1856
  168SOPE  C21518955   5.938  -0.334   8.100 -0.0567  0.1329  0.5347
  168SOPE  H15R18956   5.966  -0.436   8.067 -1.3708 -0.6622  1.7527
  168SOPE  H15S18957   5.845  -0.353   8.158  1.3737 -2.3860  2.2086
  168SOPE  C21618958   6.027  -0.259   8.198  0.0286  0.0169  0.5787
  168SOPE  H16R18959   5.969  -0.170   8.231 -3.5197 -0.8218 -2.6328
  168SOPE  H16S18960   6.111  -0.229   8.131 -2.0769  1.1590 -1.7249
  168SOPE  C21718961   6.073  -0.340   8.322  0.7257  0.4021  0.1107
  168SOPE  H17R18962   6.090  -0.261   8.398 -4.2166  2.4313 -0.5112
  168SOPE  H17S18963   6.166  -0.398   8.303  0.7959  0.2756  0.8186
  168SOPE  C21818964   5.964  -0.440   8.374  0.4765  0.7496  0.7427
  168SOPE  H18R18965   5.936  -0.513   8.295 -1.0369  0.2147  1.7453
  168SOPE  H18S18966   5.869  -0.384   8.390  0.1186  0.8823 -1.4846
  168SOPE  H18T18967   5.989  -0.493   8.468  0.6270 -0.1881  0.1911
  168SOPE   C3318968   5.343   0.083   7.045 -0.0778 -0.7495 -0.5119
  168SOPE   H3X18969   5.378  -0.021   7.028  2.6401 -0.0729  0.4667
  168SOPE   H3Y18970   5.233   0.080   7.031 -0.6705  1.1446  2.7807
  168SOPE   C3418971   5.381   0.146   7.185  0.6962 -0.2663 -0.6241
  168SOPE   H4X18972   5.364   0.256   7.181 -0.6397 -0.4906 -2.2675
  168SOPE   H4Y18973   5.492   0.148   7.194  0.7309  2.8360 -0.4593
  168SOPE   C3518974   5.325   0.073   7.304 -0.0721  0.0256  0.6761
  168SOPE   H5X18975   5.393  -0.015   7.316  0.0657 -0.0435 -0.5686
  168SOPE   H5Y18976   5.224   0.029   7.291 -0.7312  1.1888  1.6796
  168SOPE   C3618977   5.333   0.143   7.438  0.0567  0.5168 -0.1673
  168SOPE   H6X18978   5.244   0.209   7.439 -1.2726 -1.1616  1.8110
  168SOPE   H6Y18979   5.422   0.208   7.443  1.7162 -1.6904  0.7802
  168SOPE   C3718980   5.338   0.044   7.557 -0.3692  0.0581  0.3123
  168SOPE   H7X18981   5.428  -0.019   7.545 -1.3673 -2.0094  2.6965
  168SOPE   H7Y18982   5.249  -0.023   7.556 -0.0781 -0.3292 -0.3405
  168SOPE   C3818983   5.348   0.121   7.692 -0.2968 -1.1416 -0.1722
  168SOPE   H8X18984   5.256   0.180   7.712  1.1281  1.3038 -0.4147
  168SOPE   H8Y18985   5.429   0.197   7.683  0.4804 -1.8775  0.3684
  168SOPE   C3918986   5.411   0.033   7.804  0.6920  0.5105  0.3410
  168SOPE   H9X18987   5.498  -0.021   7.760  1.6633  2.4420 -0.2206
  168SOPE   H9Y18988   5.328  -0.041   7.804  1.0510 -0.0052 -2.3465
  168SOPE  C31018989   5.424   0.110   7.932 -0.4314  0.0099  0.4905
  168SOPE  H10X18990   5.327   0.164   7.940  0.2366  1.4220 -0.5184
  168SOPE  H10Y18991   5.503   0.188   7.926  0.8027 -1.2922 -3.3254
  168SOPE  C31118992   5.447   0.020   8.050  0.2574  0.3626 -0.1927
  168SOPE  H11X18993   5.551  -0.018   8.045  1.6167  3.7734 -0.7617
  168SOPE  H11Y18994   5.371  -0.060   8.043 -0.5063  0.6397  3.2243
  168SOPE  C31218995   5.406   0.074   8.189 -1.1369 -0.1401  0.4907
  168SOPE  H12X18996   5.412  -0.012   8.259 -0.2227 -1.6595 -1.3729
  168SOPE  H12Y18997   5.300   0.107   8.189 -0.4737  2.2323 -1.2305
  168SOPE  C31318998   5.493   0.190   8.233  0.1021  0.4536  0.6162
  168SOPE  H13X18999   5.484   0.276   8.164 -0.2019 -0.3806 -0.4069
  168SOPE  H13Y19000   5.600   0.162   8.239 -0.2305 -0.7355  1.3628
  168SOPE  C31419001   5.473   0.232   8.377  0.4948  0.9302 -0.0596
  168SOPE  H14X19002   5.502   0.149   8.445 -2.3439 -1.8317 -1.8946
  168SOPE  H14Y19003   5.362   0.236   8.386  0.4478 -0.5439  0.2225
  168SOPE  C31519004   5.531   0.371   8.417 -0.3626  0.0155  0.2530
  168SOPE  H15X19005   5.501   0.447   8.342  1.3742 -0.5017 -1.0291
  168SOPE  H15Y19006   5.641   0.357   8.420 -0.5361 -1.8849 -0.6963
  168SOPE  C31619007   5.489   0.415   8.563  0.3437  0.3084  0.4332
  168SOPE  H16X19008   5.521   0.338   8.637  0.6595 -0.1786 -0.1965
  168SOPE  H16Y19009   5.378   0.419   8.569  0.3898 -0.2039  3.5241
  168SOPE  C31719010   5.545   0.546   8.606  0.4066 -0.3877 -0.5254
  168SOPE  H17X19011   5.488   0.613   8.538 -2.0789 -2.0205 -0.1926
  168SOPE  H17Y19012   5.653   0.554   8.586  0.5048 -0.0452  0.1070
  168SOPE  C31819013   5.518   0.577   8.751 -0.1302  0.3386  0.5197
  168SOPE  H18X19014   5.414   0.540   8.764 -0.2834  0.5803  0.0213
  168SOPE  H18Y19015   5.533   0.680   8.792  0.2384  0.9392 -1.0367
  168SOPE  H18Z19016   5.587   0.516   8.813  1.0110  1.0508 -0.0080
  169SOPE     N19017   0.935   0.568   6.170  0.7148 -0.1217 -0.7861
  169SOPE   HN119018   0.851   0.620   6.138  0.8975 -0.7851 -2.4451
  169SOPE   HN219019   1.017   0.602   6.115  0.2682 -1.0020 -2.0388
  169SOPE   HN319020   0.915   0.468   6.155  0.9388  0.0040 -2.0776
  169SOPE   C1219021   0.954   0.591   6.319  0.2431 -0.3702 -0.8371
  169SOPE  H12A19022   0.862   0.645   6.350 -0.5211 -0.9621 -2.0141
  169SOPE  H12B19023   1.043   0.655   6.339 -0.5316  1.2508 -2.3130
  169SOPE   C1119024   0.970   0.459   6.394  0.6481  0.4608 -0.8655
  169SOPE  H11A19025   0.959   0.478   6.503  0.1681  1.9606 -1.1516
  169SOPE  H11B19026   1.073   0.418   6.393  0.8314  0.8998 -0.5078
  169SOPE     P19027   0.724   0.329   6.371 -0.0577 -0.1517  0.1700
  169SOPE   O1319028   0.668   0.304   6.232 -0.1316  0.0550  0.1463
  169SOPE   O1419029   0.665   0.439   6.447 -0.7115  0.0867 -0.8657
  169SOPE   O1219030   0.879   0.355   6.352 -0.5580 -0.5571 -0.3739
  169SOPE   O1119031   0.723   0.197   6.464 -0.1307 -0.3081  0.3533
  169SOPE    C119032   0.629   0.181   6.565 -0.2533 -0.9440 -0.9559
  169SOPE    HA19033   0.538   0.137   6.520 -1.0297 -0.4190  0.0416
  169SOPE    HB19034   0.601   0.279   6.611  0.6609 -1.0161 -0.2189
  169SOPE    C219035   0.681   0.097   6.682  0.5683 -0.3078  0.3038
  169SOPE    HS19036   0.601   0.096   6.758  0.8988  0.0362  0.6591
  169SOPE   O2119037   0.806   0.159   6.735  0.7668 -0.2886  0.2664
  169SOPE   C2119038   0.790   0.266   6.814  1.3799  0.5809 -0.2477
  169SOPE   O2219039   0.684   0.318   6.843 -0.6503 -0.4313 -0.3285
  169SOPE   C2219040   0.930   0.297   6.870  0.5432 -0.3952 -0.5948
  169SOPE   H2R19041   1.001   0.330   6.791  1.3535 -0.1748  0.2044
  169SOPE   H2S19042   0.969   0.200   6.908  0.3997 -0.9853 -1.8755
  169SOPE    C319043   0.695  -0.050   6.647  0.2058  0.1146 -0.2419
  169SOPE    HX19044   0.777  -0.068   6.574  0.6849 -1.7559  0.7158
  169SOPE    HY19045   0.602  -0.081   6.596  0.5353 -1.2718 -0.0289
  169SOPE   O3119046   0.706  -0.125   6.769 -0.3558  0.0261  0.2785
  169SOPE   C3119047   0.832  -0.129   6.819 -0.0136  0.0981  0.3039
  169SOPE   O3219048   0.923  -0.072   6.766  0.1445 -0.6995 -0.3949
  169SOPE   C3219049   0.853  -0.243   6.914  0.5898  0.1203 -0.5919
  169SOPE   H2X19050   0.821  -0.339   6.869 -0.0914 -0.7704  1.6462
  169SOPE   H2Y19051   0.793  -0.224   7.006  0.7895  0.2611 -0.4907
  169SOPE   C2319052   0.921   0.403   6.983  0.1013  0.0617 -0.5952
  169SOPE   H3R19053   0.840   0.371   7.052  1.5399  0.3096  1.2866
  169SOPE   H3S19054   0.889   0.500   6.939 -0.1910  1.7712  3.0420
  169SOPE   C2419055   1.048   0.407   7.076 -0.0546 -0.1851  0.1637
  169SOPE   H4R19056   1.057   0.301   7.108 -2.6647 -0.7104 -0.5198
  169SOPE   H4S19057   1.136   0.451   7.025 -1.5101  2.9391  0.1141
  169SOPE   C2519058   1.034   0.487   7.205  0.2231 -0.2515 -0.7463
  169SOPE   H5R19059   1.034   0.596   7.184 -1.2673 -0.0161  0.2418
  169SOPE   H5S19060   0.943   0.469   7.267  2.0046 -2.1288  1.5117
  169SOPE   C2619061   1.145   0.450   7.307 -0.0477  0.2033  0.6791
  169SOPE   H6R19062   1.139   0.345   7.343 -2.4082  0.1813  0.3588
  169SOPE   H6S19063   1.240   0.444   7.249  0.7201 -0.4000  1.9549
  169SOPE   C2719064   1.166   0.549   7.422 -0.4247 -0.4296  0.1345
  169SOPE   H7R19065   1.200   0.644   7.376 -1.5973  1.6844  3.3283
  169SOPE   H7S19066   1.065   0.575   7.460 -1.4005 -2.3667 -0.9523
  169SOPE   C2819067   1.257   0.502   7.537 -0.2546 -0.5164  0.3050
  169SOPE   H8R19068   1.236   0.394   7.556 -2.7524  0.0530  1.2441
  169SOPE   H8S19069   1.354   0.490   7.485 -0.0356 -0.6192  0.7294
  169SOPE   C2919070   1.254   0.570   7.672 -0.0140 -0.2041 -0.5156
  169SOPE   H9119071   1.177   0.648   7.679 -0.7328 -1.0625  3.0753
  169SOPE  C21019072   1.347   0.539   7.769 -0.3989 -0.1758  0.2131
  169SOPE  H10119073   1.356   0.599   7.860 -1.6632 -0.2916  0.4360
  169SOPE  C21119074   1.456   0.432   7.744  0.0235  0.3461  0.1614
  169SOPE  H11R19075   1.530   0.468   7.669 -1.5852  2.8750 -0.3581
  169SOPE  H11S19076   1.414   0.338   7.704 -1.8319  1.9277 -1.8310
  169SOPE  C21219077   1.526   0.398   7.879  0.0294 -0.7121 -0.1038
  169SOPE  H12R19078   1.445   0.387   7.954 -0.3941  2.7906  0.1111
  169SOPE  H12S19079   1.584   0.484   7.920 -0.3460  0.1847 -1.3799
  169SOPE  C21319080   1.622   0.286   7.868 -0.4632  0.5688 -0.4467
  169SOPE  H13R19081   1.700   0.313   7.794  0.5717 -0.1321  0.3526
  169SOPE  H13S19082   1.583   0.189   7.830 -1.0539  1.2620 -1.6360
  169SOPE  C21419083   1.680   0.255   8.011 -0.0229 -0.0723  0.3712
  169SOPE  H14R19084   1.727   0.155   8.006 -1.7931 -0.8827 -2.7295
  169SOPE  H14S19085   1.606   0.243   8.093 -1.4202 -0.2855 -0.8950
  169SOPE  C21519086   1.789   0.351   8.054 -0.0698 -0.0695  0.5241
  169SOPE  H15R19087   1.750   0.451   8.080  0.8793  0.9427 -1.6901
  169SOPE  H15S19088   1.856   0.362   7.966  1.6536 -1.9367  1.5057
  169SOPE  C21619089   1.878   0.293   8.162 -0.5276  0.9417 -0.1858
  169SOPE  H16R19090   1.903   0.189   8.135 -2.5189 -0.3338  2.3880
  169SOPE  H16S19091   1.823   0.288   8.259 -0.4514 -0.1328 -0.1889
  169SOPE  C21719092   2.011   0.370   8.177  0.1790  0.4099  0.0974
  169SOPE  H17R19093   2.030   0.410   8.075 -0.6276  0.6028  0.0131
  169SOPE  H17S19094   2.084   0.295   8.214 -1.1614 -1.8071 -1.4293
  169SOPE  C21819095   2.007   0.485   8.271 -0.1746 -0.2580 -0.4527
  169SOPE  H18R19096   2.107   0.522   8.300 -0.1629 -0.5612 -0.1001
  169SOPE  H18S19097   1.954   0.456   8.364 -1.2093  0.4952 -0.7867
  169SOPE  H18T19098   1.960   0.573   8.223 -1.6946 -1.8430 -2.0628
  169SOPE   C3319099   0.997  -0.270   6.954 -0.9480  0.0681 -0.1569
  169SOPE   H3X19100   1.041  -0.170   6.974  0.5572  0.8026 -5.6059
  169SOPE   H3Y19101   1.044  -0.311   6.862  2.2256  0.9952  0.9046
  169SOPE   C3419102   1.010  -0.362   7.076 -0.3244  0.0732 -0.2937
  169SOPE   H4X19103   0.967  -0.462   7.051  1.0868 -0.8462  0.8058
  169SOPE   H4Y19104   0.943  -0.321   7.154 -0.7381 -1.6764  0.3223
  169SOPE   C3519105   1.152  -0.395   7.124 -0.0724 -0.3943  0.9960
  169SOPE   H5X19106   1.198  -0.294   7.121 -0.8711 -0.0383 -0.5734
  169SOPE   H5Y19107   1.212  -0.447   7.046  1.9295  1.1404  1.4132
  169SOPE   C3619108   1.167  -0.475   7.249 -0.2895  0.2548  0.6872
  169SOPE   H6X19109   1.275  -0.468   7.278 -0.5508  0.2284  1.7266
  169SOPE   H6Y19110   1.136  -0.581   7.237 -1.9263  0.7059  0.8039
  169SOPE   C3719111   1.088  -0.411   7.374 -0.6065  0.3945 -0.4273
  169SOPE   H7X19112   0.982  -0.440   7.365 -0.3466 -0.5814 -0.4796
  169SOPE   H7Y19113   1.100  -0.301   7.361  1.4393  0.1010 -1.6077
  169SOPE   C3819114   1.141  -0.458   7.509 -0.6217  0.4945 -0.4573
  169SOPE   H8X19115   1.113  -0.564   7.522  0.0955  0.5216  1.7279
  169SOPE   H8Y19116   1.251  -0.448   7.512 -0.5085 -0.6685 -0.4663
  169SOPE   C3919117   1.075  -0.380   7.628 -0.3211 -0.1285  0.3590
  169SOPE   H9X19118   0.965  -0.397   7.631 -0.3891  0.4647  1.9858
  169SOPE   H9Y19119   1.080  -0.269   7.621 -0.8339 -0.1767 -1.1435
  169SOPE  C31019120   1.124  -0.420   7.771 -0.1947  0.2354 -0.4977
  169SOPE  H10X19121   1.225  -0.379   7.788 -0.0796 -0.4701  0.6102
  169SOPE  H10Y19122   1.142  -0.528   7.793  0.8007  0.3534 -0.6887
  169SOPE  C31119123   1.026  -0.361   7.879  0.3824 -0.0494 -0.5739
  169SOPE  H11X19124   0.931  -0.418   7.884  0.0106  0.6387  0.5854
  169SOPE  H11Y19125   0.992  -0.258   7.853 -2.4412 -0.8243 -0.2676
  169SOPE  C31219126   1.090  -0.359   8.023 -0.2089 -0.5595 -0.5841
  169SOPE  H12X19127   1.193  -0.320   8.020 -0.5169  0.2141 -2.4110
  169SOPE  H12Y19128   1.086  -0.464   8.058  1.4639 -0.8598 -1.2549
  169SOPE  C31319129   1.002  -0.274   8.119 -0.0223  0.0082  0.0286
  169SOPE  H13X19130   0.893  -0.264   8.099  0.0669  2.1838  0.4377
  169SOPE  H13Y19131   1.047  -0.173   8.108  1.4233 -0.6078  0.0270
  169SOPE  C31419132   1.008  -0.304   8.271  0.1916  0.9079 -0.1839
  169SOPE  H14X19133   1.116  -0.313   8.296 -0.0357 -1.1780  0.1953
  169SOPE  H14Y19134   0.955  -0.397   8.299 -0.1561  0.3328 -2.5702
  169SOPE  C31519135   0.957  -0.189   8.358 -0.9119  0.4556 -0.1774
  169SOPE  H15X19136   0.862  -0.152   8.314 -1.3980 -1.8495 -1.1917
  169SOPE  H15Y19137   1.018  -0.097   8.346 -1.2231  0.8139  0.8648
  169SOPE  C31619138   0.949  -0.226   8.512 -0.0652  0.2065 -0.1020
  169SOPE  H16X19139   1.032  -0.293   8.544  1.7465  1.1704 -2.4738
  169SOPE  H16Y19140   0.851  -0.273   8.533 -0.6334  1.9497  1.4742
  169SOPE  C31719141   0.940  -0.111   8.619  0.8720 -0.6032 -0.3574
  169SOPE  H17X19142   0.884  -0.135   8.711  1.9246 -1.5946  0.0433
  169SOPE  H17Y19143   0.882  -0.029   8.572 -1.2833 -0.4783  2.2772
  169SOPE  C31819144   1.076  -0.058   8.655  0.7291 -0.0970 -0.6281
  169SOPE  H18X19145   1.131  -0.121   8.728 -1.4467 -0.2603  0.9605
  169SOPE  H18Y19146   1.061   0.041   8.703 -3.8477 -1.0466  0.3251
  169SOPE  H18Z19147   1.136  -0.053   8.562 -1.8253  1.3608 -2.2934
  170SOPE     N19148   1.661   0.747   6.464 -0.1995 -0.7427  0.6080
  170SOPE   HN119149   1.706   0.838   6.440  1.3174 -1.1804  1.6437
  170SOPE   HN219150   1.603   0.729   6.380  0.1365 -0.2397  0.2625
  170SOPE   HN319151   1.599   0.767   6.545 -0.8271  0.3621 -0.1133
  170SOPE   C1219152   1.744   0.625   6.504 -0.1559 -0.6918 -0.0763
  170SOPE  H12A19153   1.732   0.618   6.614  0.0676 -1.1234 -0.0765
  170SOPE  H12B19154   1.851   0.650   6.485  0.4245 -0.2697  3.1090
  170SOPE   C1119155   1.691   0.497   6.435  0.3515  0.5270 -0.0108
  170SOPE  H11A19156   1.747   0.413   6.481  0.4801  1.2004  1.1026
  170SOPE  H11B19157   1.710   0.504   6.325 -0.5093 -0.8243 -0.2677
  170SOPE     P19158   1.461   0.413   6.347 -0.2032  0.0964 -0.1887
  170SOPE   O1319159   1.538   0.291   6.304 -0.0555  0.2419 -0.2049
  170SOPE   O1419160   1.430   0.507   6.244  0.3256  0.0752  0.3129
  170SOPE   O1219161   1.554   0.480   6.461 -0.4250  0.2467 -0.1088
  170SOPE   O1119162   1.326   0.357   6.414 -0.6168  0.4032 -0.1437
  170SOPE    C119163   1.346   0.305   6.550  0.5986 -0.3291  1.2688
  170SOPE    HA19164   1.434   0.238   6.561  0.5696 -0.3220  1.5673
  170SOPE    HB19165   1.255   0.243   6.563 -0.4179  0.8974  0.2358
  170SOPE    C219166   1.346   0.418   6.661  0.1804 -0.2136 -0.0136
  170SOPE    HS19167   1.441   0.475   6.652 -1.3439  2.2747 -1.3878
  170SOPE   O2119168   1.322   0.368   6.796  0.5551  0.3767 -0.4944
  170SOPE   C2119169   1.423   0.280   6.837 -1.0287  0.0717 -0.1710
  170SOPE   O2219170   1.520   0.250   6.770  0.2450 -0.7749  0.5805
  170SOPE   C2219171   1.399   0.247   6.992 -0.4845  0.3220 -0.0291
  170SOPE   H2R19172   1.294   0.280   7.011 -0.1287  1.1840  0.5269
  170SOPE   H2S19173   1.458   0.318   7.054  2.2213 -0.9147 -1.0210
  170SOPE    C319174   1.227   0.518   6.639 -0.1284 -0.3487  0.0771
  170SOPE    HX19175   1.127   0.470   6.645 -0.6715  0.7016 -0.4283
  170SOPE    HY19176   1.229   0.554   6.534  2.8902  0.1140  0.1906
  170SOPE   O3119177   1.230   0.626   6.724 -0.4929 -0.4854  0.4905
  170SOPE   C3119178   1.318   0.729   6.696  0.3375  0.2050 -0.0821
  170SOPE   O3219179   1.392   0.731   6.600 -0.2164 -0.7468  0.3073
  170SOPE   C3219180   1.310   0.839   6.799 -0.6367  0.5964  0.2851
  170SOPE   H2X19181   1.249   0.807   6.886 -1.5029  0.0338 -0.5083
  170SOPE   H2Y19182   1.247   0.917   6.751 -1.2089 -0.6200 -1.0079
  170SOPE   C2319183   1.421   0.104   7.031  0.8620  0.1634 -0.1342
  170SOPE   H3R19184   1.527   0.086   7.059  0.7176 -1.0380 -0.3210
  170SOPE   H3S19185   1.416   0.022   6.956  1.7297 -1.0720  1.1346
  170SOPE   C2419186   1.340   0.061   7.154  0.2922 -0.0767  0.1870
  170SOPE   H4R19187   1.382  -0.039   7.177 -1.4378 -1.3064 -1.6980
  170SOPE   H4S19188   1.357   0.140   7.230 -1.3704  3.1659 -2.5499
  170SOPE   C2519189   1.189   0.029   7.124  0.7133 -1.0471 -0.2386
  170SOPE   H5R19190   1.150   0.105   7.053  1.9791  3.0962  3.1279
  170SOPE   H5S19191   1.185  -0.076   7.087 -0.1539 -0.9641 -0.4056
  170SOPE   C2619192   1.097   0.034   7.245  0.1763 -0.2028  0.2242
  170SOPE   H6R19193   1.139  -0.026   7.329 -2.6541 -0.7398  1.3692
  170SOPE   H6S19194   1.109   0.130   7.301  2.0466 -1.3242  1.8859
  170SOPE   C2719195   0.945   0.016   7.207  0.0887  0.0031 -0.1529
  170SOPE   H7R19196   0.918   0.083   7.123  0.6984 -0.1334 -0.4638
  170SOPE   H7S19197   0.928  -0.088   7.171  0.9422 -0.6582  1.2622
  170SOPE   C2819198   0.844   0.030   7.326 -0.4381 -0.7476 -0.0382
  170SOPE   H8R19199   0.751  -0.022   7.294  0.0828 -1.0247 -1.1828
  170SOPE   H8S19200   0.894  -0.034   7.402  2.1729  1.6654  0.4575
  170SOPE   C2919201   0.812   0.163   7.378 -0.9858 -0.1404 -0.5182
  170SOPE   H9119202   0.760   0.220   7.300  0.4156 -0.6688 -1.8852
  170SOPE  C21019203   0.863   0.226   7.481  0.1616 -0.0105 -0.3464
  170SOPE  H10119204   0.821   0.324   7.505  0.5338 -0.1934  1.1331
  170SOPE  C21119205   0.969   0.173   7.580  0.1069  0.1552 -0.5999
  170SOPE  H11R19206   1.070   0.210   7.554  1.0306 -1.5898  0.2800
  170SOPE  H11S19207   0.981   0.065   7.555 -2.2790  0.1936 -2.2986
  170SOPE  C21219208   0.936   0.166   7.731 -0.2817  0.3365  0.6784
  170SOPE  H12R19209   0.954   0.264   7.781  3.5810  1.3485 -2.1949
  170SOPE  H12S19210   1.012   0.092   7.766  0.3782 -0.1256 -1.5777
  170SOPE  C21319211   0.794   0.103   7.764 -0.1628  0.3310  0.2716
  170SOPE  H13R19212   0.784   0.010   7.704 -0.3440  0.5690 -0.0727
  170SOPE  H13S19213   0.711   0.168   7.728 -1.0721  0.1659  1.9609
  170SOPE  C21419214   0.780   0.055   7.908 -0.5857  0.1644 -0.5240
  170SOPE  H14R19215   0.856  -0.022   7.934  0.4101  1.4181  0.4151
  170SOPE  H14S19216   0.680   0.008   7.918 -1.4666  2.4693  3.4828
  170SOPE  C21519217   0.781   0.157   8.017 -0.1758  0.1743 -0.0025
  170SOPE  H15R19218   0.694   0.226   8.013 -0.0180  0.3191 -1.4142
  170SOPE  H15S19219   0.873   0.216   7.999 -0.2776  0.4708  0.4513
  170SOPE  C21619220   0.798   0.101   8.154 -0.1817 -0.0124  0.8799
  170SOPE  H16R19221   0.897   0.051   8.152  0.6647  1.6133 -1.1659
  170SOPE  H16S19222   0.720   0.021   8.162 -1.3336  0.6642 -2.0842
  170SOPE  C21719223   0.766   0.202   8.268 -0.3752  0.3431  0.0827
  170SOPE  H17R19224   0.839   0.285   8.264  1.4246 -1.2252 -1.9418
  170SOPE  H17S19225   0.778   0.138   8.358  1.1069 -2.5504 -1.9960
  170SOPE  C21819226   0.631   0.267   8.266 -0.4275  0.3504 -0.6466
  170SOPE  H18R19227   0.610   0.310   8.366  1.6768 -0.3261  0.1453
  170SOPE  H18S19228   0.554   0.194   8.232  1.1678 -1.4625 -0.5461
  170SOPE  H18T19229   0.620   0.352   8.196 -0.9859  2.5431  1.9158
  170SOPE   C3319230   1.450   0.879   6.855 -0.4970 -0.2676 -0.2626
  170SOPE   H3X19231   1.418   0.974   6.904 -1.5866 -0.2968 -0.8849
  170SOPE   H3Y19232   1.520   0.899   6.772 -2.2270 -0.3022 -1.8087
  170SOPE   C3419233   1.503   0.771   6.946 -0.5122 -0.0270 -0.4285
  170SOPE   H4X19234   1.614   0.778   6.935 -0.5288  3.7343  0.3694
  170SOPE   H4Y19235   1.470   0.668   6.922 -1.3452 -0.6753  3.0602
  170SOPE   C3519236   1.469   0.791   7.105 -0.1621  0.4509  0.1276
  170SOPE   H5X19237   1.360   0.768   7.115 -0.4672  1.2007 -1.1337
  170SOPE   H5Y19238   1.478   0.899   7.127  0.3973  0.9519 -2.2452
  170SOPE   C3619239   1.560   0.708   7.193 -0.1983  0.1929  0.1792
  170SOPE   H6X19240   1.664   0.749   7.192  0.6510 -1.8030  1.4925
  170SOPE   H6Y19241   1.558   0.601   7.162 -1.4996 -0.0289  0.9514
  170SOPE   C3719242   1.521   0.710   7.335  0.4160 -0.2004 -0.5011
  170SOPE   H7X19243   1.591   0.662   7.406 -0.4008  0.4895  0.8166
  170SOPE   H7Y19244   1.418   0.675   7.358  0.9468 -0.8690  1.0220
  170SOPE   C3819245   1.540   0.853   7.397  0.3659  0.4144 -0.5454
  170SOPE   H8X19246   1.479   0.929   7.345  1.0720  0.3076 -1.5741
  170SOPE   H8Y19247   1.645   0.889   7.390  0.4581  0.0003 -1.2938
  170SOPE   C3919248   1.500   0.866   7.542 -0.0439 -0.2111  0.1857
  170SOPE   H9X19249   1.400   0.824   7.569  0.2668 -0.5548  0.8199
  170SOPE   H9Y19250   1.493   0.976   7.556  2.6750 -0.0469  0.6592
  170SOPE  C31019251   1.606   0.811   7.639 -0.2256  0.1486  0.1574
  170SOPE  H10X19252   1.708   0.826   7.597  0.1594 -0.4187  0.8699
  170SOPE  H10Y19253   1.594   0.702   7.653  0.7013 -0.1346 -1.0482
  170SOPE  C31119254   1.599   0.875   7.776  0.7583 -0.0234 -0.0155
  170SOPE  H11X19255   1.495   0.852   7.809  0.9914 -0.2401  0.5789
  170SOPE  H11Y19256   1.611   0.985   7.782 -1.1200  0.2676 -1.0013
  170SOPE  C31219257   1.710   0.825   7.872  0.2086  0.1123  0.0920
  170SOPE  H12X19258   1.801   0.870   7.826 -0.9002  0.2465 -2.1097
  170SOPE  H12Y19259   1.710   0.714   7.870 -0.8517  0.0928 -1.9670
  170SOPE  C31319260   1.695   0.873   8.015 -0.5495  0.2101 -0.0292
  170SOPE  H13X19261   1.675   0.982   8.024  1.5247  0.8057 -1.8225
  170SOPE  H13Y19262   1.779   0.849   8.083  0.2508 -0.3757 -1.1943
  170SOPE  C31419263   1.579   0.791   8.076  0.3062  0.7428  0.5724
  170SOPE  H14X19264   1.616   0.688   8.059  1.2878  1.4165 -1.6843
  170SOPE  H14Y19265   1.485   0.807   8.019  1.2467  1.6676 -0.7846
  170SOPE  C31519266   1.553   0.811   8.230  0.3022  0.0929  0.6136
  170SOPE  H15X19267   1.553   0.920   8.252  1.6125 -0.0445  1.3640
  170SOPE  H15Y19268   1.646   0.780   8.282  0.5666  2.0144  1.3681
  170SOPE  C31619269   1.427   0.736   8.275 -0.7099 -0.5694  0.1301
  170SOPE  H16X19270   1.338   0.764   8.214 -1.7427 -0.7653  1.5005
  170SOPE  H16Y19271   1.400   0.756   8.381  1.1191 -1.9619  0.9206
  170SOPE  C31719272   1.454   0.580   8.265 -0.0228  0.1314  0.2352
  170SOPE  H17X19273   1.546   0.554   8.320 -0.8193 -0.6185  1.2413
  170SOPE  H17Y19274   1.478   0.561   8.158  2.8890 -2.5394  1.2076
  170SOPE  C31819275   1.329   0.506   8.312  0.5595  0.1196 -0.1116
  170SOPE  H18X19276   1.314   0.523   8.421 -1.2540 -0.9048 -0.1610
  170SOPE  H18Y19277   1.330   0.395   8.307  3.0658  0.0791  0.2063
  170SOPE  H18Z19278   1.232   0.541   8.271  0.5400 -1.8586 -1.9901
  171SOPE     N19279   3.261   4.224   6.068 -0.2121  0.5234 -0.2715
  171SOPE   HN119280   3.359   4.191   6.067 -0.8539 -2.1627  3.1284
  171SOPE   HN219281   3.236   4.211   6.169  0.3769 -1.9422 -0.3921
  171SOPE   HN319282   3.200   4.167   6.006  0.9878 -0.0469 -0.9545
  171SOPE   C1219283   3.261   4.367   6.036 -0.2238  0.8187 -0.0182
  171SOPE  H12A19284   3.272   4.377   5.926  1.6375 -0.5366 -0.0052
  171SOPE  H12B19285   3.345   4.414   6.091 -0.8097  2.3635 -0.4132
  171SOPE   C1119286   3.127   4.430   6.078  0.0683  0.6533 -0.1357
  171SOPE  H11A19287   3.050   4.387   6.010  1.2022 -0.5033 -0.7380
  171SOPE  H11B19288   3.129   4.538   6.054 -1.8638  0.5461 -1.0324
  171SOPE     P19289   3.006   4.303   6.274 -0.4915 -0.1131 -0.3676
  171SOPE   O1319290   3.106   4.209   6.325  0.2596 -0.5694 -0.5930
  171SOPE   O1419291   2.910   4.244   6.178 -0.2862  0.0272  0.2770
  171SOPE   O1219292   3.095   4.418   6.210 -0.2197 -0.4302 -0.0479
  171SOPE   O1119293   2.932   4.385   6.384 -0.5807  0.1856  0.2281
  171SOPE    C119294   2.822   4.465   6.337 -0.8034 -0.3893  0.4827
  171SOPE    HA19295   2.767   4.426   6.249  0.0871  2.1711 -1.3346
  171SOPE    HB19296   2.865   4.561   6.302  0.0139 -0.0489  2.2610
  171SOPE    C219297   2.727   4.493   6.457  0.7505 -0.1157  0.1391
  171SOPE    HS19298   2.638   4.548   6.420  1.5880  0.7488 -0.6430
  171SOPE   O2119299   2.804   4.564   6.554  0.2799 -0.1618  0.1199
  171SOPE   C2119300   2.808   4.695   6.525  0.0741 -0.0214  0.4371
  171SOPE   O2219301   2.749   4.754   6.438  0.0150  0.7030  1.0796
  171SOPE   C2219302   2.914   4.756   6.615  0.1643  0.5151 -0.3140
  171SOPE   H2R19303   2.937   4.854   6.569  2.4556 -0.2357 -0.9065
  171SOPE   H2S19304   3.000   4.685   6.614 -0.2320  0.0108 -2.2552
  171SOPE    C319305   2.685   4.366   6.531 -0.3392  0.3469 -0.6197
  171SOPE    HX19306   2.768   4.308   6.576  2.0494  2.5371 -1.9461
  171SOPE    HY19307   2.635   4.294   6.462 -1.7200 -1.6174  2.2002
  171SOPE   O3119308   2.589   4.403   6.629 -0.0873 -0.0885 -0.5868
  171SOPE   C3119309   2.632   4.429   6.756  0.1609  0.0129 -0.1316
  171SOPE   O3219310   2.746   4.418   6.793  0.3804 -0.0533  0.3993
  171SOPE   C3219311   2.514   4.469   6.836 -0.2726  0.0278 -0.7196
  171SOPE   H2X19312   2.425   4.475   6.770  0.0435 -1.5163 -1.3283
  171SOPE   H2Y19313   2.535   4.568   6.882 -3.5000  0.1703  0.7577
  171SOPE   C2319314   2.857   4.756   6.756  0.8239 -0.3521 -0.2021
  171SOPE   H3R19315   2.833   4.655   6.796 -1.8206  0.0418 -0.5682
  171SOPE   H3S19316   2.759   4.808   6.759  1.5096  0.9697 -0.2083
  171SOPE   C2419317   2.958   4.816   6.856 -0.0887  0.5005 -0.4726
  171SOPE   H4R19318   3.045   4.752   6.883 -0.2251  1.2338  1.8412
  171SOPE   H4S19319   2.989   4.913   6.811  0.0107  0.3787 -0.6687
  171SOPE   C2519320   2.886   4.848   6.985 -0.1710 -0.3123 -0.8024
  171SOPE   H5R19321   2.960   4.889   7.058 -0.7310  0.2006 -0.5134
  171SOPE   H5S19322   2.810   4.924   6.957  0.3111 -0.1141 -1.6118
  171SOPE   C2619323   2.828   4.723   7.057  0.3548 -0.8094 -0.0919
  171SOPE   H6R19324   2.746   4.693   6.988 -1.1091  2.4227  0.0325
  171SOPE   H6S19325   2.899   4.639   7.067  1.3864  0.2271  1.7854
  171SOPE   C2719326   2.763   4.767   7.193 -0.6763 -0.3475 -0.3642
  171SOPE   H7R19327   2.827   4.837   7.250 -0.3415 -1.8960  1.2466
  171SOPE   H7S19328   2.670   4.822   7.166 -0.7211 -0.1851  0.1151
  171SOPE   C2819329   2.720   4.648   7.285  0.3321 -0.1490 -0.0710
  171SOPE   H8R19330   2.641   4.593   7.230 -0.4734  0.1335  0.7890
  171SOPE   H8S19331   2.807   4.580   7.299  0.5043 -0.2946 -1.6333
  171SOPE   C2919332   2.670   4.705   7.414  0.0597 -0.0843 -0.9808
  171SOPE   H9119333   2.606   4.793   7.405 -1.2345 -0.7037  1.3101
  171SOPE  C21019334   2.684   4.649   7.540 -0.7779 -0.2155  0.9258
  171SOPE  H10119335   2.651   4.699   7.632  0.7447  0.6420  1.0437
  171SOPE  C21119336   2.751   4.520   7.571 -0.7700  0.2559 -0.0244
  171SOPE  H11R19337   2.861   4.522   7.586 -1.1080 -0.7028  3.5226
  171SOPE  H11S19338   2.725   4.454   7.485  1.1520 -3.6753  2.0981
  171SOPE  C21219339   2.696   4.446   7.698  0.3499 -0.2144 -0.1469
  171SOPE  H12R19340   2.725   4.509   7.785 -1.7242  1.2885 -0.4646
  171SOPE  H12S19341   2.735   4.344   7.715  0.0257 -0.3078  0.0489
  171SOPE  C21319342   2.542   4.442   7.704  0.1743 -0.6377  0.7518
  171SOPE  H13R19343   2.500   4.390   7.615  0.2898  1.0919 -0.3610
  171SOPE  H13S19344   2.502   4.545   7.691  0.9145 -0.3359  0.8103
  171SOPE  C21419345   2.482   4.396   7.840  0.6752 -0.7900 -0.3105
  171SOPE  H14R19346   2.523   4.470   7.911 -0.6564 -0.9991  0.7167
  171SOPE  H14S19347   2.520   4.295   7.865  0.7165 -0.6220  0.2998
  171SOPE  C21519348   2.328   4.412   7.857 -0.0143  0.4081 -0.1677
  171SOPE  H15R19349   2.298   4.382   7.959  1.2400 -2.1473 -0.4779
  171SOPE  H15S19350   2.278   4.346   7.783 -2.0967  2.5113 -0.7668
  171SOPE  C21619351   2.268   4.548   7.820 -0.7546 -0.1455  0.3464
  171SOPE  H16R19352   2.157   4.549   7.833 -0.9283  0.5743 -0.9245
  171SOPE  H16S19353   2.299   4.564   7.714  1.6046 -1.4517  0.7925
  171SOPE  C21719354   2.325   4.665   7.909  0.4904 -0.2222 -0.6873
  171SOPE  H17R19355   2.280   4.760   7.874 -1.3687 -0.6079  0.5479
  171SOPE  H17S19356   2.435   4.667   7.895  0.6257 -0.3265  0.3317
  171SOPE  C21819357   2.293   4.665   8.055 -0.5395 -0.3836 -0.7527
  171SOPE  H18R19358   2.338   4.581   8.112  0.9191 -0.2730 -1.6821
  171SOPE  H18S19359   2.185   4.670   8.079 -0.5017  0.8063 -0.8034
  171SOPE  H18T19360   2.350   4.754   8.087  1.2962 -0.7451 -2.7701
  171SOPE   C3319361   2.471   4.365   6.944 -0.2185  0.2905 -0.1406
  171SOPE   H3X19362   2.467   4.265   6.897  0.4808  0.4344 -0.5244
  171SOPE   H3Y19363   2.369   4.392   6.979  0.4911  3.0141  0.0980
  171SOPE   C3419364   2.560   4.352   7.072 -0.9822 -0.8940  0.3176
  171SOPE   H4X19365   2.556   4.446   7.131  0.6207  0.2355 -1.2788
  171SOPE   H4Y19366   2.667   4.329   7.053 -0.4415 -0.3365  2.3985
  171SOPE   C3519367   2.504   4.238   7.157 -0.6827  0.3150  0.4014
  171SOPE   H5X19368   2.518   4.143   7.101 -3.7149  0.1187 -0.1780
  171SOPE   H5Y19369   2.393   4.242   7.160 -0.7395  0.1150 -0.8183
  171SOPE   C3619370   2.561   4.221   7.299 -0.4773 -0.2792  0.2342
  171SOPE   H6X19371   2.567   4.324   7.341  0.3310 -0.3678  0.3432
  171SOPE   H6Y19372   2.666   4.186   7.298 -0.7969 -1.2843 -0.8864
  171SOPE   C3719373   2.484   4.137   7.406 -1.0043 -0.0398  0.4503
  171SOPE   H7X19374   2.414   4.067   7.355 -1.6053  1.3607 -0.7169
  171SOPE   H7Y19375   2.423   4.215   7.457  1.8969  3.3509 -0.9140
  171SOPE   C3819376   2.572   4.061   7.512  0.0133 -0.3984  0.0294
  171SOPE   H8X19377   2.661   4.126   7.527 -1.0261  1.4696 -1.5533
  171SOPE   H8Y19378   2.628   3.968   7.487  2.5413  0.2643  2.6253
  171SOPE   C3919379   2.505   4.042   7.649  0.4551 -0.1770 -0.1381
  171SOPE   H9X19380   2.421   3.971   7.634 -0.0103  0.2478  0.3855
  171SOPE   H9Y19381   2.455   4.136   7.680 -1.5361 -1.4979  0.8787
  171SOPE  C31019382   2.598   4.007   7.765  0.6072  0.1964 -0.1195
  171SOPE  H10X19383   2.687   4.072   7.779 -0.6024  1.6148  1.5092
  171SOPE  H10Y19384   2.636   3.904   7.749  1.8311  0.9094 -2.0822
  171SOPE  C31119385   2.524   3.987   7.899 -0.1950 -0.5425  0.0647
  171SOPE  H11X19386   2.445   3.910   7.887 -1.2707  0.5878 -0.2982
  171SOPE  H11Y19387   2.489   4.089   7.927 -0.4040 -0.3744 -0.7777
  171SOPE  C31219388   2.618   3.936   8.005 -1.1494  0.8218  0.0918
  171SOPE  H12X19389   2.699   4.010   8.020  0.1832 -0.5347 -0.1701
  171SOPE  H12Y19390   2.669   3.839   7.985 -2.9532  0.0188 -0.7802
  171SOPE  C31319391   2.544   3.913   8.138 -0.2537  0.1769  0.1075
  171SOPE  H13X19392   2.616   3.894   8.221  0.6252 -2.4601 -1.1597
  171SOPE  H13Y19393   2.483   3.822   8.124  0.3360 -0.0410 -1.1692
  171SOPE  C31419394   2.449   4.027   8.168  1.2251 -0.6075 -0.6028
  171SOPE  H14X19395   2.374   4.045   8.088 -1.6795 -2.2670  1.5651
  171SOPE  H14Y19396   2.512   4.119   8.172  0.6841 -0.0592 -2.9468
  171SOPE  C31519397   2.380   4.023   8.306  0.2410  0.0593  0.4385
  171SOPE  H15X19398   2.454   4.055   8.383  0.4892  0.8009 -0.0987
  171SOPE  H15Y19399   2.349   3.917   8.322  0.8698 -0.5119 -1.8248
  171SOPE  C31619400   2.263   4.118   8.338  0.4245 -0.1653 -0.5571
  171SOPE  H16X19401   2.208   4.099   8.243  0.1977 -0.9014 -0.2873
  171SOPE  H16Y19402   2.293   4.224   8.335  0.2584  0.0621  2.7739
  171SOPE  C31719403   2.191   4.101   8.466  0.0295  0.2616 -0.2449
  171SOPE  H17X19404   2.160   3.994   8.464  2.7220 -0.7120  2.5595
  171SOPE  H17Y19405   2.097   4.161   8.466 -0.4211 -0.4334  0.3127
  171SOPE  C31819406   2.272   4.140   8.595 -0.1411  0.7242 -0.1789
  171SOPE  H18X19407   2.297   4.248   8.594  2.3052  0.2126 -1.0894
  171SOPE  H18Y19408   2.366   4.081   8.606 -1.5378 -1.3207  1.9009
  171SOPE  H18Z19409   2.219   4.104   8.686  0.6240 -1.4266 -0.5251
  172SOPE     N19410   3.699   4.767   6.515  0.2694 -1.0311 -0.2134
  172SOPE   HN119411   3.749   4.747   6.604 -1.7999 -0.6006  1.1136
  172SOPE   HN219412   3.732   4.697   6.445  2.0418 -1.1874  0.7146
  172SOPE   HN319413   3.736   4.859   6.484 -0.6635 -1.3850 -2.6240
  172SOPE   C1219414   3.550   4.767   6.523  0.1955  0.2820  0.3393
  172SOPE  H12A19415   3.519   4.851   6.590 -1.9594 -0.3136  0.1701
  172SOPE  H12B19416   3.522   4.670   6.570  1.0493 -0.8571 -1.3916
  172SOPE   C1119417   3.480   4.794   6.379 -0.1142 -0.0912  0.1493
  172SOPE  H11A19418   3.371   4.802   6.403  0.0804 -1.2157  1.5509
  172SOPE  H11B19419   3.494   4.706   6.313 -0.5365 -1.3015  1.6161
  172SOPE     P19420   3.462   5.044   6.327  0.4305 -0.2626 -0.1788
  172SOPE   O1319421   3.315   5.042   6.321  0.0404  0.2905 -0.2988
  172SOPE   O1419422   3.535   5.139   6.239 -0.1811 -0.3341  0.7233
  172SOPE   O1219423   3.528   4.906   6.303 -0.8299 -0.0622  0.2053
  172SOPE   O1119424   3.507   5.062   6.475 -0.2094  0.2334  0.1272
  172SOPE    C119425   3.477   5.182   6.547  0.2168  0.3663  0.1360
  172SOPE    HA19426   3.428   5.259   6.485 -0.3485  1.0530  1.4108
  172SOPE    HB19427   3.568   5.236   6.579  0.5989 -0.4147  0.4029
  172SOPE    C219428   3.391   5.154   6.678 -0.4778  0.6003  0.0045
  172SOPE    HS19429   3.397   5.255   6.724 -2.1867  0.5668  0.3937
  172SOPE   O2119430   3.457   5.052   6.757 -0.0245 -0.3292  0.1636
  172SOPE   C2119431   3.444   5.071   6.894  0.4487  0.0196 -0.0046
  172SOPE   O2219432   3.428   5.176   6.947 -0.2656  0.0444  0.3799
  172SOPE   C2219433   3.466   4.933   6.959  0.0668  0.3508 -0.3298
  172SOPE   H2R19434   3.571   4.916   6.991 -0.3095  1.5516  1.7729
  172SOPE   H2S19435   3.423   4.850   6.899  1.5380 -0.5236 -0.2215
  172SOPE    C319436   3.252   5.106   6.636  0.2741  1.0019 -0.3513
  172SOPE    HX19437   3.268   5.005   6.591 -2.3453  0.1900  0.3683
  172SOPE    HY19438   3.224   5.172   6.551 -0.5979  2.2773  0.8882
  172SOPE   O3119439   3.154   5.111   6.742 -0.6792  0.5032  0.2365
  172SOPE   C3119440   3.108   5.227   6.763 -0.3226  0.1161  1.0215
  172SOPE   O3219441   3.151   5.329   6.705 -0.0539 -0.2930  0.2234
  172SOPE   C3219442   3.008   5.226   6.875 -0.3064  0.5177  0.5506
  172SOPE   H2X19443   3.019   5.133   6.935 -1.5052 -0.0529 -0.0722
  172SOPE   H2Y19444   2.907   5.209   6.832 -1.1215  4.8001  0.3036
  172SOPE   C2319445   3.397   4.947   7.101  0.7413  0.4266  1.5789
  172SOPE   H3R19446   3.294   4.990   7.097 -0.2285 -1.8266  0.5289
  172SOPE   H3S19447   3.468   5.015   7.152 -0.0265  4.5881 -2.1882
  172SOPE   C2419448   3.377   4.821   7.191 -0.0117 -0.4337  0.2014
  172SOPE   H4R19449   3.289   4.775   7.142 -1.5430  1.3029  1.1911
  172SOPE   H4S19450   3.473   4.766   7.179  0.8616  1.0509  0.1142
  172SOPE   C2519451   3.335   4.842   7.337 -0.2013  0.0348  0.0188
  172SOPE   H5R19452   3.397   4.926   7.374 -0.0154  0.7069 -1.7235
  172SOPE   H5S19453   3.230   4.872   7.355 -0.0569  0.0686  0.8304
  172SOPE   C2619454   3.363   4.716   7.425 -0.1511 -0.3197  0.4504
  172SOPE   H6R19455   3.305   4.637   7.374 -1.6753  1.7534 -1.1885
  172SOPE   H6S19456   3.470   4.683   7.425  0.1621  0.6668  0.5321
  172SOPE   C2719457   3.313   4.747   7.566  0.1217  0.9629 -0.2550
  172SOPE   H7R19458   3.348   4.848   7.596 -1.7206  1.5356  0.0757
  172SOPE   H7S19459   3.203   4.754   7.548 -0.1239 -2.1212 -0.5533
  172SOPE   C2819460   3.335   4.630   7.671  0.3010  0.0860  0.3149
  172SOPE   H8R19461   3.303   4.535   7.623  1.5302 -0.2972  0.2084
  172SOPE   H8S19462   3.445   4.614   7.679  0.5615  0.5775 -1.6441
  172SOPE   C2919463   3.273   4.656   7.804 -0.0314 -0.3062 -0.0339
  172SOPE   H9119464   3.169   4.623   7.808 -0.5073  1.1858  1.1561
  172SOPE  C21019465   3.325   4.722   7.909 -0.2263 -0.6943  0.2635
  172SOPE  H10119466   3.268   4.720   8.003 -0.9620 -3.7463 -0.1158
  172SOPE  C21119467   3.467   4.782   7.914  0.2707 -0.0266 -0.0490
  172SOPE  H11R19468   3.466   4.881   7.965 -0.7911  0.6107 -1.2618
  172SOPE  H11S19469   3.497   4.808   7.810 -0.8038  3.1221  0.3032
  172SOPE  C21219470   3.572   4.690   7.983  0.1424 -0.2836 -0.1773
  172SOPE  H12R19471   3.590   4.598   7.923 -4.1544 -1.1803 -0.4114
  172SOPE  H12S19472   3.521   4.668   8.079 -1.3257  1.6103 -0.4646
  172SOPE  C21319473   3.708   4.762   8.009 -0.1303 -0.2713  0.7069
  172SOPE  H13R19474   3.688   4.869   8.028 -1.1424 -0.4356  0.6154
  172SOPE  H13S19475   3.767   4.762   7.914 -0.4049  1.6536  0.5042
  172SOPE  C21419476   3.796   4.693   8.120  0.0344 -0.3281  0.2906
  172SOPE  H14R19477   3.888   4.755   8.119 -1.1694  1.5560  1.1295
  172SOPE  H14S19478   3.831   4.594   8.085  3.0056  1.5466 -2.7843
  172SOPE  C21519479   3.745   4.697   8.271  0.2063 -0.2285  0.7658
  172SOPE  H15R19480   3.808   4.632   8.336  0.6658  1.2819  1.8878
  172SOPE  H15S19481   3.642   4.656   8.272 -0.0574  0.0683  4.8530
  172SOPE  C21619482   3.748   4.836   8.333  0.0062 -0.2494  0.6377
  172SOPE  H16R19483   3.692   4.830   8.429  1.8531 -1.1099  1.7287
  172SOPE  H16S19484   3.711   4.912   8.262  2.7024 -0.1637 -0.7998
  172SOPE  C21719485   3.884   4.882   8.367 -0.9694 -0.0704 -0.0237
  172SOPE  H17R19486   3.882   4.993   8.373  0.1215 -0.0852  0.9546
  172SOPE  H17S19487   3.960   4.859   8.289 -1.7846  0.4164 -0.9825
  172SOPE  C21819488   3.950   4.817   8.483 -0.8767 -0.1393 -0.7053
  172SOPE  H18R19489   3.895   4.839   8.576  0.4476 -0.0937  0.0967
  172SOPE  H18S19490   4.052   4.857   8.500 -1.4326  0.3412  1.9065
  172SOPE  H18T19491   3.965   4.707   8.471 -0.9017 -0.2033 -0.1464
  172SOPE   C3319492   3.010   5.352   6.972 -0.8894  0.1799 -1.1494
  172SOPE   H3X19493   2.955   5.332   7.067 -1.0586  1.7462 -0.8980
  172SOPE   H3Y19494   2.949   5.425   6.914 -3.3673 -1.4163 -0.7403
  172SOPE   C3419495   3.141   5.419   6.995 -0.7203  0.3005 -0.3387
  172SOPE   H4X19496   3.111   5.519   7.034  0.1828  1.0859 -1.6011
  172SOPE   H4Y19497   3.181   5.447   6.895 -1.5901 -1.2868 -1.1699
  172SOPE   C3519498   3.235   5.351   7.094 -0.1840 -0.2154 -0.5102
  172SOPE   H5X19499   3.340   5.388   7.086 -0.0669  0.0569  1.7448
  172SOPE   H5Y19500   3.235   5.243   7.068  0.3338 -0.5069  0.6726
  172SOPE   C3619501   3.194   5.359   7.238  0.3581  0.0786 -0.4467
  172SOPE   H6X19502   3.085   5.339   7.246  0.6910 -1.1950  2.3243
  172SOPE   H6Y19503   3.210   5.467   7.257  1.0440  0.1901 -1.5865
  172SOPE   C3719504   3.272   5.264   7.330  0.1445 -0.8659  0.0523
  172SOPE   H7X19505   3.379   5.289   7.318  0.3847 -1.9649 -0.2820
  172SOPE   H7Y19506   3.258   5.161   7.289 -1.9139  0.2216 -2.2421
  172SOPE   C3819507   3.231   5.280   7.478  0.8877  0.0650  1.0092
  172SOPE   H8X19508   3.122   5.258   7.486  0.9924 -0.3505  1.2924
  172SOPE   H8Y19509   3.237   5.385   7.514 -0.1396  0.5464 -0.1232
  172SOPE   C3919510   3.308   5.186   7.570 -0.6991 -0.0094  0.5126
  172SOPE   H9X19511   3.415   5.199   7.545 -0.2931 -1.6196  1.2429
  172SOPE   H9Y19512   3.282   5.087   7.526  0.2901 -0.0067 -0.1166
  172SOPE  C31019513   3.278   5.223   7.716 -0.6094  0.4342  0.0732
  172SOPE  H10X19514   3.170   5.243   7.728 -1.0053 -1.4692  0.0716
  172SOPE  H10Y19515   3.339   5.313   7.738  2.1779 -1.4235  0.4487
  172SOPE  C31119516   3.308   5.095   7.801 -0.9192 -0.6346  0.0588
  172SOPE  H11X19517   3.416   5.074   7.785  0.0035  2.4990  1.4334
  172SOPE  H11Y19518   3.246   5.013   7.757 -1.7925 -0.3528  0.7487
  172SOPE  C31219519   3.283   5.120   7.953 -0.2804  0.9313 -0.1046
  172SOPE  H12X19520   3.334   5.210   7.994 -1.4616  3.1528 -3.1033
  172SOPE  H12Y19521   3.305   5.031   8.016 -0.6914 -0.9327 -2.4580
  172SOPE  C31319522   3.139   5.150   7.993  1.0862 -0.0865 -0.6990
  172SOPE  H13X19523   3.073   5.075   7.945 -0.0330  0.0701  0.5266
  172SOPE  H13Y19524   3.121   5.250   7.948  2.5310 -0.0729 -1.3069
  172SOPE  C31419525   3.108   5.155   8.140 -0.4890  0.4143  0.0539
  172SOPE  H14X19526   3.179   5.229   8.181 -0.7886  0.0872  1.2261
  172SOPE  H14Y19527   3.143   5.061   8.189 -2.5166 -0.6668 -0.4465
  172SOPE  C31519528   2.960   5.168   8.176  0.6467  0.4313  0.2814
  172SOPE  H15X19529   2.906   5.087   8.124 -1.9248  0.2875  2.8766
  172SOPE  H15Y19530   2.931   5.271   8.147  1.4004  0.3601 -0.7999
  172SOPE  C31619531   2.937   5.163   8.329 -0.1009  1.0179 -0.1992
  172SOPE  H16X19532   2.975   5.067   8.369 -0.3423  1.1815  0.4364
  172SOPE  H16Y19533   2.829   5.153   8.349 -0.2407 -1.4290 -1.7663
  172SOPE  C31719534   3.001   5.275   8.408 -0.5216 -0.2032  0.4609
  172SOPE  H17X19535   2.957   5.372   8.376 -0.4207  0.1358  1.3213
  172SOPE  H17Y19536   3.111   5.275   8.391 -0.5820  2.3622 -0.5046
  172SOPE  C31819537   2.979   5.256   8.564  0.4453 -0.0888  0.4508
  172SOPE  H18X19538   2.877   5.289   8.593  0.0954 -0.5010 -0.2882
  172SOPE  H18Y19539   3.055   5.314   8.620  0.5566 -0.1131  0.3274
  172SOPE  H18Z19540   2.985   5.151   8.601 -2.4983  0.2016  2.0424
  173SAPI   C1219541   3.864   2.064  10.767 -0.3142 -0.4453 -0.1637
  173SAPI    H219542   3.790   2.142  10.741 -2.4218 -1.6046  2.0514
  173SAPI    O219543   3.955   2.054  10.651 -0.1164  0.3179 -0.4947
  173SAPI   HO219544   3.925   2.131  10.603 -2.4709 -1.0860 -1.4040
  173SAPI   C1319545   3.947   2.094  10.888  0.3798 -0.1904  1.1738
  173SAPI    H319546   3.880   2.093  10.977  0.3858  1.1979  1.2262
  173SAPI    O319547   4.010   2.224  10.885 -0.0977 -0.3161  0.2040
  173SAPI   HO319548   4.054   2.224  10.800 -0.9781  0.7639 -0.2700
  173SAPI   C1419549   4.043   1.971  10.902 -0.0327 -0.2017 -0.1912
  173SAPI    H419550   4.111   1.971  10.814 -1.4546 -2.6136 -1.3903
  173SAPI    O419551   4.131   2.003  11.019 -0.1246  0.8669  0.5582
  173SAPI   HO419552   4.198   2.066  10.992  1.1969 -1.1153 -1.1260
  173SAPI   C1519553   3.970   1.833  10.913 -0.4790  0.1872  0.5804
  173SAPI    H519554   3.911   1.838  11.007 -0.1829  1.1465  0.7264
  173SAPI    O519555   4.068   1.720  10.918  0.2578 -0.0916 -0.6314
  173SAPI   HO519556   4.120   1.713  10.837  0.1107 -3.0827 -0.6033
  173SAPI   C1619557   3.874   1.813  10.800  0.1693 -0.5520  0.0792
  173SAPI    H619558   3.918   1.801  10.699 -0.7480 -1.8610 -0.1873
  173SAPI    O619559   3.789   1.701  10.823 -0.3628 -0.4629  0.6544
  173SAPI   HO619560   3.826   1.617  10.796  0.4541 -0.5086  1.8714
  173SAPI   C1119561   3.780   1.941  10.786  0.7006  0.5210  0.9318
  173SAPI    H119562   3.717   1.942  10.878 -0.5034 -3.6878  0.3619
  173SAPI     P19563   3.545   1.959  10.652  0.0000 -0.1198  0.0625
  173SAPI   O1319564   3.495   1.987  10.789  0.0279 -0.0481 -0.1534
  173SAPI   O1419565   3.491   1.846  10.569 -0.6693 -0.0302  0.2198
  173SAPI   O1219566   3.704   1.931  10.668 -0.2310 -0.7096  0.4640
  173SAPI   O1119567   3.544   2.092  10.571  0.4061 -0.2814 -0.2908
  173SAPI    C119568   3.634   2.150  10.481  0.4736  0.5111  0.2701
  173SAPI    HA19569   3.647   2.259  10.503 -2.4228  0.9963 -0.0617
  173SAPI    HB19570   3.733   2.100  10.481  0.2159 -0.0392 -1.1023
  173SAPI    C219571   3.582   2.139  10.335 -0.2277 -0.1783  0.4451
  173SAPI    HS19572   3.591   2.033  10.303 -0.1518 -0.2790  0.7985
  173SAPI   O2119573   3.663   2.218  10.242 -0.4609  0.2187  0.1120
  173SAPI   C2119574   3.791   2.176  10.238  0.7579  0.1418  0.3630
  173SAPI   O2219575   3.828   2.064  10.273  0.2840  0.5676  0.4416
  173SAPI   C2219576   3.890   2.272  10.176  0.5257  0.2263 -0.2619
  173SAPI   H2R19577   3.849   2.375  10.161  0.1475 -0.0889 -1.5280
  173SAPI   H2S19578   3.963   2.276  10.259 -1.0613  0.1763  1.1927
  173SAPI    C319579   3.435   2.180  10.321  0.7865  0.3308 -0.6512
  173SAPI    HX19580   3.440   2.290  10.337  1.2148  0.0772  1.1995
  173SAPI    HY19581   3.375   2.137  10.404 -0.8197  1.8079 -0.9707
  173SAPI   O3119582   3.381   2.153  10.189  0.1215  0.3192  0.0807
  173SAPI   C3119583   3.321   2.044  10.162 -0.5123  0.3769  0.6380
  173SAPI   O3219584   3.285   1.960  10.245  0.3062 -0.2426  0.3829
  173SAPI   C3219585   3.296   2.043  10.012 -0.1645  0.1845  0.1442
  173SAPI   H2X19586   3.390   2.066   9.958 -0.3450 -0.9596 -0.7083
  173SAPI   H2Y19587   3.230   2.130   9.991  0.1051  0.2655 -0.3807
  173SAPI   C2319588   3.952   2.222  10.049 -0.1743 -0.1281  0.2615
  173SAPI   H3R19589   4.009   2.132  10.079  3.3525  2.2449  1.2624
  173SAPI   H3S19590   4.023   2.300  10.014  0.6910 -1.0796 -0.1641
  173SAPI   C2419591   3.862   2.183   9.934  0.3814  0.5735 -0.3555
  173SAPI   H4R19592   3.785   2.263   9.931  1.8061  1.9476 -0.8346
  173SAPI   H4S19593   3.816   2.087   9.968 -1.1098  0.9131 -1.2966
  173SAPI   C2519594   3.931   2.173   9.797 -0.9449 -0.6856  0.0721
  173SAPI   H5R19595   4.036   2.208   9.794 -1.2451  0.5346  1.9577
  173SAPI   C2619596   3.875   2.129   9.687 -0.1129 -0.2587 -0.0763
  173SAPI   H6R19597   3.933   2.113   9.595 -1.6613  0.3697 -1.1988
  173SAPI   C2719598   3.731   2.077   9.677 -0.0353 -0.6960  0.0282
  173SAPI   H7R19599   3.676   2.147   9.610  0.6562  2.9622  2.9388
  173SAPI   H7S19600   3.675   2.098   9.771  1.8953  3.4048  0.4790
  173SAPI   C2819601   3.720   1.929   9.645 -0.2492  0.0590 -0.3356
  173SAPI   H8R19602   3.778   1.865   9.713  2.4045 -0.8488 -3.1916
  173SAPI   C2919603   3.653   1.871   9.543  0.2800  0.1606 -0.4580
  173SAPI   H9R19604   3.651   1.761   9.534 -1.0226 -0.1045  2.1044
  173SAPI  C21019605   3.579   1.942   9.431 -0.2633  0.4458 -0.2229
  173SAPI  H10R19606   3.535   2.038   9.466  1.1580  0.8169  0.6179
  173SAPI  H10S19607   3.489   1.883   9.404  0.0120  0.7541 -1.9683
  173SAPI  C21119608   3.670   1.982   9.324 -0.1935 -0.5340  0.2345
  173SAPI  H11R19609   3.762   2.034   9.356 -0.0981  0.4134 -1.4697
  173SAPI  C21219610   3.644   1.955   9.194 -0.2781  0.1849  0.9721
  173SAPI  H12R19611   3.722   1.978   9.120 -0.4534 -1.9882  0.0294
  173SAPI  C21319612   3.521   1.888   9.135  0.1276  0.1575  0.6430
  173SAPI  H13R19613   3.443   1.876   9.213  0.1018 -1.4770  0.4161
  173SAPI  H13S19614   3.546   1.782   9.110 -0.7849 -0.0113  0.4373
  173SAPI  C21419615   3.473   1.956   9.009  0.1050  0.2094 -0.1717
  173SAPI  H14R19616   3.429   2.055   9.028 -1.6460 -0.1866 -1.8122
  173SAPI  C21519617   3.459   1.909   8.881 -0.2257 -0.3001  0.3802
  173SAPI  H15R19618   3.398   1.973   8.816 -1.9444 -1.1964  1.0413
  173SAPI  C21619619   3.490   1.775   8.832 -0.0917 -0.6127  0.2056
  173SAPI  H16R19620   3.425   1.761   8.744 -0.0517  2.6671 -0.4651
  173SAPI  H16S19621   3.462   1.710   8.918  2.3016 -1.5701  0.3649
  173SAPI  C21719622   3.622   1.745   8.773  0.1694 -0.1664  0.4804
  173SAPI  H17R19623   3.626   1.771   8.665  3.5261 -1.0318  0.2830
  173SAPI  H17S19624   3.632   1.634   8.778 -0.9033 -0.4363 -1.9070
  173SAPI  C21819625   3.734   1.814   8.847  0.3316 -0.1405  0.0276
  173SAPI  H18R19626   3.708   1.800   8.954  2.6917  2.7174  1.0984
  173SAPI  H18S19627   3.735   1.923   8.828  1.7467 -0.1176  0.0863
  173SAPI  C21919628   3.864   1.747   8.807  0.4511 -0.5760  0.5074
  173SAPI  H19R19629   3.945   1.818   8.832 -0.8057  1.4722 -0.9605
  173SAPI  H19S19630   3.865   1.733   8.697 -3.5081  0.0940  0.2107
  173SAPI  C22019631   3.889   1.616   8.879  0.4280 -0.0306 -1.0937
  173SAPI  H20R19632   3.832   1.533   8.831  1.5862 -0.1303 -2.3316
  173SAPI  H20S19633   3.865   1.623   8.988  0.1476 -0.8462 -1.0915
  173SAPI  H20T19634   3.996   1.590   8.875  1.0283  1.1562  2.7835
  173SAPI   C3319635   3.240   1.917   9.936  0.0006 -0.1787  0.0209
  173SAPI   H3X19636   3.135   1.912   9.972  0.1099  2.8561  1.0550
  173SAPI   H3Y19637   3.292   1.827   9.974 -1.3926 -0.2527  1.8297
  173SAPI   C3419638   3.251   1.935   9.787  0.5748  0.0652 -0.0291
  173SAPI   H4X19639   3.349   1.970   9.750 -0.8808  3.2365 -1.2543
  173SAPI   H4Y19640   3.172   2.003   9.747 -2.0160 -2.9732 -0.4728
  173SAPI   C3519641   3.211   1.812   9.707 -0.1014  0.2512 -0.1990
  173SAPI   H5X19642   3.129   1.760   9.760 -0.3701 -0.1994 -1.0266
  173SAPI   H5Y19643   3.294   1.738   9.711 -0.8361 -0.7889 -2.3899
  173SAPI   C3619644   3.185   1.834   9.561 -0.5643 -0.7660  0.4506
  173SAPI   H6X19645   3.284   1.849   9.512 -0.1439  0.5058  1.6415
  173SAPI   H6Y19646   3.124   1.924   9.541  0.9833 -0.1591 -2.1991
  173SAPI   C3719647   3.124   1.717   9.482  0.5803 -0.0803  0.0595
  173SAPI   H7X19648   3.015   1.729   9.496  0.4311 -1.4023  0.1980
  173SAPI   H7Y19649   3.143   1.615   9.520 -0.6401 -0.2616  0.2246
  173SAPI   C3819650   3.162   1.717   9.332  0.3384 -0.4494 -0.7564
  173SAPI   H8X19651   3.273   1.712   9.333  0.3151 -1.7317 -2.0376
  173SAPI   H8Y19652   3.134   1.817   9.293 -0.9636 -0.0589  1.0392
  173SAPI   C3919653   3.104   1.610   9.249 -0.6202 -0.0229  0.3894
  173SAPI   H9X19654   2.993   1.616   9.247 -0.6074 -0.0099 -0.2978
  173SAPI   H9Y19655   3.145   1.510   9.275 -0.8623 -0.6470 -1.5093
  173SAPI  C31019656   3.154   1.635   9.104  1.0371  0.2822 -0.3896
  173SAPI  H10X19657   3.256   1.680   9.108  0.8379  0.7249 -0.1728
  173SAPI  H10Y19658   3.077   1.705   9.064  2.0755  2.3476  1.0376
  173SAPI  C31119659   3.170   1.495   9.030 -0.0360 -0.3069 -0.5473
  173SAPI  H11X19660   3.069   1.457   9.006  0.1693 -1.8655  0.8743
  173SAPI  H11Y19661   3.205   1.430   9.113 -0.1250  0.6707  0.2857
  173SAPI  C31219662   3.268   1.508   8.921 -0.1522 -0.5501  0.2805
  173SAPI  H12X19663   3.372   1.515   8.961  0.1558  2.4654 -0.7923
  173SAPI  H12Y19664   3.241   1.601   8.868 -0.0219  0.3850  1.8061
  173SAPI  C31319665   3.248   1.393   8.818  0.0226  0.3317 -0.0921
  173SAPI  H13X19666   3.146   1.390   8.772  0.1467  0.2455 -0.3636
  173SAPI  H13Y19667   3.263   1.298   8.873 -0.1196  0.0466 -0.5404
  173SAPI  C31419668   3.361   1.396   8.708 -0.2975 -0.0537  0.6096
  173SAPI  H14X19669   3.464   1.382   8.747  0.0166  0.2600 -0.0912
  173SAPI  H14Y19670   3.363   1.492   8.652  2.0837  0.0165  0.7191
  173SAPI  C31519671   3.356   1.286   8.603 -0.4268  0.3468  0.8342
  173SAPI  H15X19672   3.416   1.310   8.512 -0.9691  0.5667  0.5314
  173SAPI  H15Y19673   3.250   1.285   8.569  0.0353  0.9647 -0.7174
  173SAPI  C31619674   3.412   1.153   8.645  0.5759  0.2940  0.2007
  173SAPI  H16X19675   3.364   1.098   8.729  0.2343 -3.9372 -2.4943
  173SAPI  H16Y19676   3.522   1.170   8.648  0.4046  2.3825 -1.8353
  173SAPI  C31719677   3.372   1.054   8.528 -0.1380 -0.2218  0.1065
  173SAPI  H17X19678   3.402   1.085   8.426 -1.5999  0.9478 -0.0046
  173SAPI  H17Y19679   3.261   1.062   8.531 -0.0779  0.5771  0.8765
  173SAPI  C31819680   3.411   0.909   8.551  0.3580  0.2067 -0.2135
  173SAPI  H18X19681   3.521   0.897   8.565  1.5775  5.6069 -2.7677
  173SAPI  H18Y19682   3.372   0.853   8.463 -2.9850  1.5985  0.2609
  173SAPI  H18Z19683   3.358   0.864   8.637 -0.6066 -0.1172 -0.9573
  174SAPI   C1219684   0.639   3.590  10.767  0.0797 -0.2470  0.4042
  174SAPI    H219685   0.545   3.639  10.800  0.2205  1.4944 -1.6023
  174SAPI    O219686   0.687   3.520  10.879  0.0730 -0.1609  0.1978
  174SAPI   HO219687   0.617   3.517  10.945  1.1376 -0.0839  1.3617
  174SAPI   C1319688   0.589   3.502  10.652 -0.1293 -0.8225  0.1285
  174SAPI    H319689   0.549   3.571  10.575  2.8268  0.3630 -0.4733
  174SAPI    O319690   0.481   3.413  10.686  0.1441  0.4958 -0.3177
  174SAPI   HO319691   0.506   3.333  10.732 -1.7243 -0.4669 -0.8418
  174SAPI   C1419692   0.700   3.429  10.583 -1.1091  0.5191 -0.3784
  174SAPI    H419693   0.736   3.365  10.667 -0.1065  1.3270 -0.1660
  174SAPI    O419694   0.659   3.356  10.476 -0.2395 -0.5203 -0.1364
  174SAPI   HO419695   0.566   3.334  10.486 -0.5832 -0.5567 -2.8148
  174SAPI   C1519696   0.824   3.520  10.544  0.2776 -0.0237 -0.2082
  174SAPI    H519697   0.789   3.593  10.467 -0.8119  0.3076  0.5779
  174SAPI    O519698   0.931   3.442  10.494  0.5124  0.0791  0.3757
  174SAPI   HO519699   0.885   3.409  10.416 -1.5944 -1.8423  2.2803
  174SAPI   C1619700   0.863   3.617  10.663  0.3251  0.1334  0.4643
  174SAPI    H619701   0.911   3.560  10.745  1.8684 -1.5070 -1.4850
  174SAPI    O619702   0.958   3.707  10.620 -0.6847 -0.3655  0.5480
  174SAPI   HO619703   0.989   3.741  10.704 -0.4943  0.7025  0.0738
  174SAPI   C1119704   0.741   3.690  10.716 -0.2395  0.0555 -0.1260
  174SAPI    H119705   0.696   3.745  10.631  0.2168  0.8606  0.1512
  174SAPI     P19706   0.690   3.913  10.861 -0.4495 -0.2935 -0.2502
  174SAPI   O1319707   0.722   3.964  11.002 -0.1977 -0.2687 -0.0703
  174SAPI   O1419708   0.548   3.874  10.850  0.7662 -0.3567 -1.0473
  174SAPI   O1219709   0.780   3.787  10.819 -0.2514 -0.2217 -0.1073
  174SAPI   O1119710   0.720   4.037  10.757  0.6009 -0.1846 -0.4564
  174SAPI    C119711   0.855   4.087  10.756 -0.3138  0.3799 -0.9471
  174SAPI    HA19712   0.867   4.165  10.835  0.3151 -1.0610  0.4386
  174SAPI    HB19713   0.929   4.005  10.755 -2.2217 -1.5426  1.3237
  174SAPI    C219714   0.876   4.155  10.619 -0.1324  0.4759 -0.7248
  174SAPI    HS19715   0.804   4.237  10.597 -0.1822  0.6506  0.0416
  174SAPI   O2119716   0.876   4.055  10.520 -0.1315 -0.4831  0.2232
  174SAPI   C2119717   0.762   4.028  10.471  0.1576 -0.4992  0.3194
  174SAPI   O2219718   0.653   4.086  10.487  0.4562 -0.4057  0.1094
  174SAPI   C2219719   0.770   3.920  10.362  0.4914 -0.1437 -1.1853
  174SAPI   H2R19720   0.839   3.946  10.278  1.2741 -0.0432 -0.5265
  174SAPI   H2S19721   0.839   3.845  10.408  0.5215 -0.3748 -1.6001
  174SAPI    C319722   1.013   4.230  10.613 -0.4098 -1.2368 -0.4688
  174SAPI    HX19723   1.098   4.160  10.602  0.3013 -0.1766 -2.0056
  174SAPI    HY19724   1.039   4.295  10.699 -1.7417  1.2831 -1.8470
  174SAPI   O3119725   1.009   4.321  10.497  0.1184 -0.0008  0.2108
  174SAPI   C3119726   1.090   4.320  10.400  0.3288 -0.3138  0.7566
  174SAPI   O3219727   1.188   4.243  10.391 -0.0974  0.0493  0.1255
  174SAPI   C3219728   1.047   4.432  10.306  0.3670  0.1358 -0.1174
  174SAPI   H2X19729   1.089   4.517  10.363  1.0529 -1.0589  1.2419
  174SAPI   H2Y19730   0.939   4.437  10.284  0.3193 -0.2828  0.0090
  174SAPI   C2319731   0.639   3.883  10.302  0.5982 -0.0687 -0.2461
  174SAPI   H3R19732   0.600   3.981  10.267  3.9208  0.7266 -2.1756
  174SAPI   H3S19733   0.565   3.851  10.379  0.4593 -2.5148 -1.3001
  174SAPI   C2419734   0.655   3.775  10.203  0.2726  0.0978 -0.3812
  174SAPI   H4R19735   0.673   3.677  10.253  1.1090  0.6301  0.3801
  174SAPI   H4S19736   0.747   3.796  10.144 -0.5818  1.6019 -1.2238
  174SAPI   C2519737   0.537   3.764  10.109  0.1062  1.0341  0.3942
  174SAPI   H5R19738   0.443   3.744  10.163 -0.4794  0.9876 -0.6304
  174SAPI   C2619739   0.528   3.795   9.980 -0.0402 -0.5013  0.0023
  174SAPI   H6R19740   0.431   3.799   9.930  0.5159  1.3452 -1.0614
  174SAPI   C2719741   0.635   3.832   9.886 -0.5472  0.1525 -0.4252
  174SAPI   H7R19742   0.714   3.883   9.945 -1.2106  0.1097  0.5051
  174SAPI   H7S19743   0.598   3.904   9.810 -1.2123 -0.9713 -1.2063
  174SAPI   C2819744   0.700   3.715   9.822 -0.3946 -0.3371  0.9067
  174SAPI   H8R19745   0.743   3.640   9.890 -0.4268 -0.6856  0.5470
  174SAPI   C2919746   0.712   3.692   9.683 -0.1300  0.3217  0.2706
  174SAPI   H9R19747   0.755   3.600   9.643  0.5331  0.9855 -0.5864
  174SAPI  C21019748   0.658   3.782   9.572  0.0009  0.3549  0.1618
  174SAPI  H10R19749   0.732   3.863   9.557 -0.8334  1.4010  1.4514
  174SAPI  H10S19750   0.572   3.848   9.596  0.4901  2.4102 -3.1192
  174SAPI  C21119751   0.611   3.710   9.442  0.2820 -0.5809  0.5637
  174SAPI  H11R19752   0.562   3.615   9.470  0.4402 -0.8312 -0.0001
  174SAPI  C21219753   0.608   3.759   9.315  0.3761  0.2105 -0.0711
  174SAPI  H12R19754   0.572   3.705   9.225 -1.0627  1.8192 -0.5170
  174SAPI  C21319755   0.670   3.897   9.282 -0.1947 -0.6836 -0.3382
  174SAPI  H13R19756   0.690   3.964   9.368 -0.9061  0.2350 -0.8617
  174SAPI  H13S19757   0.603   3.962   9.221  0.9364  0.5087 -0.3537
  174SAPI  C21419758   0.797   3.883   9.200  0.1863  0.0344 -0.1402
  174SAPI  H14R19759   0.873   3.823   9.252 -0.0121 -1.5618 -1.6103
  174SAPI  C21519760   0.818   3.923   9.070 -0.4444 -0.1298 -0.1820
  174SAPI  H15R19761   0.910   3.903   9.014 -0.7508  0.6029 -0.9669
  174SAPI  C21619762   0.715   3.991   8.978  0.2628  0.4416  0.5416
  174SAPI  H16R19763   0.709   4.101   8.996 -2.0019  0.1868  1.7101
  174SAPI  H16S19764   0.613   3.949   8.990  0.1825  0.7562  1.0182
  174SAPI  C21719765   0.745   3.957   8.831 -0.5568 -0.7378  0.4792
  174SAPI  H17R19766   0.700   3.856   8.815  0.3899 -1.7097  3.3156
  174SAPI  H17S19767   0.852   3.935   8.812 -0.8703 -1.8137 -0.1456
  174SAPI  C21819768   0.699   4.066   8.726 -0.0971 -0.3535 -0.9826
  174SAPI  H18R19769   0.729   4.035   8.623 -1.9564 -0.1251 -1.6479
  174SAPI  H18S19770   0.736   4.165   8.760 -0.4377 -0.3860 -0.5170
  174SAPI  C21919771   0.547   4.072   8.718  0.1221  0.0176  0.2543
  174SAPI  H19R19772   0.501   4.156   8.661 -1.2365  0.3039  1.7026
  174SAPI  H19S19773   0.502   4.096   8.817 -0.9526  1.6751 -0.5693
  174SAPI  C22019774   0.498   3.939   8.653  0.6334  0.1265 -0.0335
  174SAPI  H20R19775   0.550   3.920   8.557 -0.7709  2.2623 -1.3288
  174SAPI  H20S19776   0.394   3.965   8.621  0.4359 -0.8585 -0.2344
  174SAPI  H20T19777   0.489   3.850   8.718 -0.4862  0.6622  0.5814
  174SAPI   C3319778   1.114   4.413  10.171 -0.2501 -0.5100  0.6566
  174SAPI   H3X19779   1.221   4.382  10.171  1.1600  3.6174 -0.9697
  174SAPI   H3Y19780   1.118   4.515  10.129  1.0253  0.4203  2.8493
  174SAPI   C3419781   1.039   4.319  10.078  0.5257  0.4952  0.1469
  174SAPI   H4X19782   0.931   4.346  10.088  0.4626  0.8820 -1.3250
  174SAPI   H4Y19783   1.058   4.211  10.096  3.9855  1.1893  1.3438
  174SAPI   C3519784   1.076   4.344   9.931 -0.1258  0.4428 -0.2935
  174SAPI   H5X19785   1.175   4.301   9.904 -1.7164 -2.0645 -2.7260
  174SAPI   H5Y19786   1.087   4.454   9.922  2.1123  0.2713 -0.0769
  174SAPI   C3619787   0.968   4.287   9.838  0.7044  0.1796 -0.8138
  174SAPI   H6X19788   0.864   4.323   9.844  0.1121 -0.5087 -4.3408
  174SAPI   H6Y19789   0.958   4.179   9.861  1.9390  0.0951 -0.6152
  174SAPI   C3719790   1.005   4.292   9.690 -0.3603  0.1078 -0.0781
  174SAPI   H7X19791   1.096   4.233   9.669  0.7689  1.4567  0.7888
  174SAPI   H7Y19792   1.037   4.397   9.673  1.4307 -0.6830 -2.0340
  174SAPI   C3819793   0.891   4.262   9.596 -0.1631 -0.2463  0.3004
  174SAPI   H8X19794   0.793   4.309   9.619 -0.5987 -0.5583 -0.8579
  174SAPI   H8Y19795   0.871   4.153   9.598  0.4548 -0.3517  1.1646
  174SAPI   C3919796   0.927   4.298   9.449  0.0258 -0.4162  0.2496
  174SAPI   H9X19797   1.025   4.260   9.413  1.0590  2.9260 -0.8264
  174SAPI   H9Y19798   0.935   4.408   9.433 -1.7433 -0.3679 -0.5562
  174SAPI  C31019799   0.823   4.247   9.346  0.1654 -0.9012 -0.7588
  174SAPI  H10X19800   0.768   4.166   9.398  0.8419 -0.0159  1.4459
  174SAPI  H10Y19801   0.861   4.194   9.255 -1.7035 -2.1402 -0.8642
  174SAPI  C31119802   0.717   4.355   9.307 -0.7324 -0.1891  0.0547
  174SAPI  H11X19803   0.749   4.458   9.281 -0.1743  0.1971  2.0697
  174SAPI  H11Y19804   0.660   4.366   9.402  1.1697  0.8242  1.1511
  174SAPI  C31219805   0.626   4.304   9.198 -0.1789  0.1568 -0.2055
  174SAPI  H12X19806   0.583   4.208   9.236 -0.3075  0.0436 -0.6334
  174SAPI  H12Y19807   0.689   4.284   9.109  1.7657 -3.3651  1.7379
  174SAPI  C31319808   0.505   4.398   9.179 -0.6518  0.4631 -0.0957
  174SAPI  H13X19809   0.539   4.502   9.191  0.3740 -0.0861  2.3156
  174SAPI  H13Y19810   0.438   4.384   9.267  0.1847  0.8835  0.6125
  174SAPI  C31419811   0.432   4.379   9.045  0.0702  0.3670  0.1421
  174SAPI  H14X19812   0.358   4.460   9.032  1.1737  1.1714 -1.4913
  174SAPI  H14Y19813   0.385   4.279   9.052  0.9941 -0.1758 -1.1891
  174SAPI  C31519814   0.520   4.402   8.927 -0.3255  0.4354  0.4237
  174SAPI  H15X19815   0.455   4.407   8.836 -2.8978  1.7965  2.2175
  174SAPI  H15Y19816   0.601   4.327   8.921  2.6941  3.4836  0.1158
  174SAPI  C31619817   0.594   4.537   8.931 -0.3668  0.2232 -0.1209
  174SAPI  H16X19818   0.662   4.528   9.018 -0.1626  0.0229 -0.2999
  174SAPI  H16Y19819   0.523   4.621   8.948  1.0197  1.3427  0.2188
  174SAPI  C31719820   0.673   4.579   8.811 -0.2949  1.3606  0.3304
  174SAPI  H17X19821   0.741   4.499   8.774  3.7109  4.6848 -0.2765
  174SAPI  H17Y19822   0.745   4.661   8.832 -0.1791  1.3895 -0.1734
  174SAPI  C31819823   0.590   4.630   8.696 -0.5617 -0.2112  0.3049
  174SAPI  H18X19824   0.525   4.710   8.737  0.1813 -0.3394  1.7863
  174SAPI  H18Y19825   0.524   4.555   8.646 -3.1966 -0.0465  3.2777
  174SAPI  H18Z19826   0.659   4.667   8.618 -0.2936  0.2338  0.7515
  175SAPI   C1219827   1.747   2.484   6.294  0.3528  0.4676 -0.1311
  175SAPI    H219828   1.827   2.494   6.370 -2.5122  1.9411  2.9714
  175SAPI    O219829   1.632   2.442   6.363  0.4293 -0.4257 -0.2412
  175SAPI   HO219830   1.649   2.349   6.380 -0.2670 -0.2638  1.5874
  175SAPI   C1319831   1.727   2.623   6.227  0.2840 -0.5328 -0.9725
  175SAPI    H319832   1.827   2.660   6.195 -0.7021  1.4345 -1.9659
  175SAPI    O319833   1.680   2.717   6.332  0.4708 -0.4513  0.3102
  175SAPI   HO319834   1.594   2.676   6.350 -0.0164 -0.4060 -1.6442
  175SAPI   C1419835   1.634   2.623   6.114 -0.1603  0.3086  0.3026
  175SAPI    H419836   1.530   2.606   6.149 -1.1062  2.3888 -1.2824
  175SAPI    O419837   1.626   2.751   6.063  0.4428 -0.4519  0.4635
  175SAPI   HO419838   1.543   2.766   6.019  1.1124  1.1130 -0.3346
  175SAPI   C1519839   1.676   2.525   6.009  0.8793  0.2112 -0.5922
  175SAPI    H519840   1.785   2.540   5.991  1.6633 -1.2082  2.3570
  175SAPI    O519841   1.589   2.535   5.902  0.2492 -0.4376 -0.1683
  175SAPI   HO519842   1.615   2.608   5.846  1.2908  1.1636  2.2282
  175SAPI   C1619843   1.686   2.386   6.069  0.2472  0.2530  0.0548
  175SAPI    H619844   1.582   2.372   6.104  0.3270  0.6744  0.4739
  175SAPI    O619845   1.720   2.284   5.973 -0.0994 -0.0152  0.1282
  175SAPI   HO619846   1.810   2.291   5.941 -0.4708  2.4858 -0.6207
  175SAPI   C1119847   1.791   2.388   6.177 -0.0757  0.0964 -0.1501
  175SAPI    H119848   1.885   2.427   6.134  1.1396 -1.8845  0.6051
  175SAPI     P19849   1.949   2.170   6.206  0.1558 -0.0879  0.1535
  175SAPI   O1319850   2.051   2.235   6.115  0.3852  0.4257  0.3484
  175SAPI   O1419851   1.906   2.035   6.154 -0.0196 -0.1315  0.0008
  175SAPI   O1219852   1.813   2.256   6.236  0.4048 -0.1815 -0.3576
  175SAPI   O1119853   2.012   2.162   6.356 -0.0308 -0.2829  0.3731
  175SAPI    C119854   1.956   2.059   6.444  0.3661 -0.9207 -0.1229
  175SAPI    HA19855   1.850   2.082   6.469  0.6352 -0.8547  0.9674
  175SAPI    HB19856   1.972   1.961   6.395  1.4250 -0.9405  0.2494
  175SAPI    C219857   2.029   2.056   6.583  0.1981 -0.3091  0.7187
  175SAPI    HS19858   1.975   1.979   6.642 -1.4275  1.1777  1.2357
  175SAPI   O2119859   2.026   2.188   6.648  0.5456  0.2336  0.1803
  175SAPI   C2119860   1.905   2.215   6.696  0.0181 -0.1798 -0.0111
  175SAPI   O2219861   1.815   2.129   6.693 -0.1601 -0.3530  0.6761
  175SAPI   C2219862   1.891   2.359   6.737 -0.3998  0.0083  0.2060
  175SAPI   H2R19863   1.924   2.431   6.658  1.4526  1.4178  2.1340
  175SAPI   H2S19864   1.787   2.390   6.759 -0.3587  1.0441 -0.9689
  175SAPI    C319865   2.175   2.016   6.573  0.8856 -0.8936  0.5811
  175SAPI    HX19866   2.215   2.105   6.520  1.3085  0.4179  3.0031
  175SAPI    HY19867   2.173   1.919   6.518 -0.9910 -2.0395  2.5293
  175SAPI   O3119868   2.238   2.004   6.703  0.1920 -0.1729 -0.0432
  175SAPI   C3119869   2.371   2.023   6.704  0.7502  0.0599 -0.7891
  175SAPI   O3219870   2.445   2.071   6.622 -0.0007 -0.0095  0.0270
  175SAPI   C3219871   2.407   1.969   6.838 -0.0655 -0.4158  0.4207
  175SAPI   H2X19872   2.517   1.962   6.851 -0.0085 -1.3956 -0.5161
  175SAPI   H2Y19873   2.360   1.869   6.851  0.3671 -1.0282 -2.1881
  175SAPI   C2319874   1.992   2.388   6.851 -0.2046 -0.3690  0.1391
  175SAPI   H3R19875   1.995   2.497   6.869 -3.7077 -0.0363 -0.5845
  175SAPI   H3S19876   2.092   2.356   6.814 -0.8811 -2.8465  0.2764
  175SAPI   C2419877   1.948   2.319   6.985 -0.2224 -0.1257  0.2318
  175SAPI   H4R19878   1.840   2.345   6.988 -0.4609 -1.0824  0.4042
  175SAPI   H4S19879   2.008   2.370   7.063 -0.6125  0.1843  0.3309
  175SAPI   C2519880   1.969   2.167   7.002  0.2469 -0.1768 -0.5586
  175SAPI   H5R19881   2.006   2.108   6.917  1.6018  1.2572 -0.9994
  175SAPI   C2619882   1.983   2.112   7.122 -0.4763 -0.0026 -0.3162
  175SAPI   H6R19883   1.987   2.003   7.119 -1.3276 -0.0341 -2.3579
  175SAPI   C2719884   1.985   2.181   7.259  0.4688 -0.8016  0.5667
  175SAPI   H7R19885   1.934   2.280   7.261  0.6673 -0.6551 -0.6425
  175SAPI   H7S19886   2.094   2.200   7.271  1.1290 -0.6935 -3.8920
  175SAPI   C2819887   1.935   2.080   7.362  0.1802  0.5194  0.1915
  175SAPI   H8R19888   1.910   1.983   7.316 -0.7837  0.8559 -0.0222
  175SAPI   C2919889   1.898   2.109   7.494 -0.2867 -0.1143  0.3166
  175SAPI   H9R19890   1.855   2.032   7.560 -0.3022 -0.2103  0.1945
  175SAPI  C21019891   1.904   2.254   7.545 -0.0980 -0.0919  0.7331
  175SAPI  H10R19892   1.833   2.266   7.630  0.6919  1.2286  1.2233
  175SAPI  H10S19893   1.860   2.318   7.465  2.2843 -1.4048 -1.8152
  175SAPI  C21119894   2.041   2.310   7.583 -0.2571 -1.1382 -0.8319
  175SAPI  H11R19895   2.105   2.344   7.499  0.3079  2.1283  0.7394
  175SAPI  C21219896   2.087   2.302   7.711  0.5789 -0.4057  0.3286
  175SAPI  H12R19897   2.182   2.352   7.730 -0.2888  1.6272 -0.4475
  175SAPI  C21319898   2.022   2.245   7.835 -0.2547 -0.1741 -0.5894
  175SAPI  H13R19899   1.944   2.172   7.803 -0.3755 -0.1546 -0.3385
  175SAPI  H13S19900   1.965   2.322   7.892  2.7534  2.6447 -1.0820
  175SAPI  C21419901   2.113   2.164   7.928  0.2209  0.3828 -0.5461
  175SAPI  H14R19902   2.180   2.087   7.888  0.9279  0.6031  0.1938
  175SAPI  C21519903   2.090   2.164   8.065  0.1382 -0.0777 -0.4315
  175SAPI  H15R19904   2.158   2.102   8.125 -1.5121 -0.5472  1.0442
  175SAPI  C21619905   1.984   2.231   8.154 -0.6227 -0.0895  0.8140
  175SAPI  H16R19906   1.957   2.152   8.228 -2.0469 -0.7837 -0.3962
  175SAPI  H16S19907   1.890   2.262   8.103  0.1584  0.7520 -0.1484
  175SAPI  C21719908   2.041   2.360   8.225 -0.5653 -0.3257  0.1897
  175SAPI  H17R19909   1.973   2.398   8.303 -0.2663  1.4124 -0.3339
  175SAPI  H17S19910   2.054   2.448   8.157 -0.0305 -0.4499  0.1247
  175SAPI  C21819911   2.173   2.340   8.294  0.3413  0.4076 -0.2065
  175SAPI  H18R19912   2.258   2.329   8.224  0.2716 -1.1264 -0.0713
  175SAPI  H18S19913   2.179   2.247   8.355 -0.4659  0.5991  0.1769
  175SAPI  C21919914   2.196   2.461   8.390  0.3286  0.0704  0.3270
  175SAPI  H19R19915   2.137   2.443   8.483  0.3151 -1.5836  0.0230
  175SAPI  H19S19916   2.163   2.551   8.335 -1.1691  1.2732  2.9773
  175SAPI  C22019917   2.343   2.465   8.436  0.3120  0.0239 -0.3332
  175SAPI  H20R19918   2.354   2.548   8.509  0.9720  0.1124 -0.5306
  175SAPI  H20S19919   2.402   2.479   8.343 -0.6944 -2.0280 -1.3438
  175SAPI  H20T19920   2.364   2.372   8.492  0.7332 -0.5379 -1.3923
  175SAPI   C3319921   2.350   2.063   6.938  0.8691  0.1764 -0.2148
  175SAPI   H3X19922   2.241   2.076   6.919  0.2335 -0.5975  2.4860
  175SAPI   H3Y19923   2.383   2.166   6.915 -2.1193  1.2570 -0.0713
  175SAPI   C3419924   2.364   2.023   7.087 -0.7880 -0.1571 -0.0160
  175SAPI   H4X19925   2.340   2.102   7.160 -0.8777  1.1302 -1.3963
  175SAPI   H4Y19926   2.472   2.003   7.101 -0.3739 -0.2336 -2.7418
  175SAPI   C3519927   2.289   1.894   7.128 -0.3306  0.0836 -0.2196
  175SAPI   H5X19928   2.340   1.804   7.088 -0.1251  1.3989 -3.2374
  175SAPI   H5Y19929   2.193   1.905   7.073  0.4109  1.0470 -1.3834
  175SAPI   C3619930   2.253   1.888   7.278 -0.5421 -0.0000  0.3826
  175SAPI   H6X19931   2.210   1.988   7.301  0.6174  0.1536  2.1194
  175SAPI   H6Y19932   2.348   1.886   7.336 -0.1185  1.1322 -0.2660
  175SAPI   C3719933   2.164   1.770   7.314  0.4750  0.2222  0.1721
  175SAPI   H7X19934   2.215   1.677   7.281  0.0791 -0.5209  1.5798
  175SAPI   H7Y19935   2.075   1.783   7.249  0.6481 -1.8283 -0.5503
  175SAPI   C3819936   2.123   1.771   7.460 -0.1952 -0.1592 -0.3973
  175SAPI   H8X19937   2.086   1.870   7.495 -0.6002 -0.3519 -0.2798
  175SAPI   H8Y19938   2.216   1.750   7.517 -1.5908 -1.4926  1.5167
  175SAPI   C3919939   2.023   1.658   7.495  0.5405  0.3719  0.0939
  175SAPI   H9X19940   2.065   1.562   7.458  0.9348  0.2516  0.8461
  175SAPI   H9Y19941   1.932   1.672   7.433 -1.0087 -0.7520  2.0192
  175SAPI  C31019942   1.983   1.652   7.642  0.4790  0.2313  0.2258
  175SAPI  H10X19943   1.895   1.588   7.664  1.6353 -0.9961  1.4678
  175SAPI  H10Y19944   1.950   1.756   7.664 -0.4868 -0.2574  1.2080
  175SAPI  C31119945   2.094   1.627   7.740 -0.1421 -0.1781 -0.4125
  175SAPI  H11X19946   2.161   1.715   7.733 -0.6965  0.2961  0.0680
  175SAPI  H11Y19947   2.156   1.537   7.723 -0.6411 -0.3964 -1.1610
  175SAPI  C31219948   2.048   1.611   7.896  0.3800  0.3437  0.6002
  175SAPI  H12X19949   2.014   1.506   7.911 -2.4690  1.3364  1.9042
  175SAPI  H12Y19950   1.955   1.669   7.915 -0.5371 -1.1422  0.8871
  175SAPI  C31319951   2.147   1.641   8.004  0.6718  0.7339 -0.1356
  175SAPI  H13X19952   2.106   1.626   8.106 -0.3473  2.2754 -0.2848
  175SAPI  H13Y19953   2.183   1.746   7.995 -0.6606  1.2484  0.3124
  175SAPI  C31419954   2.270   1.541   7.987  0.2094  0.2122  0.5180
  175SAPI  H14X19955   2.311   1.558   7.886 -3.5275  1.9987 -0.9151
  175SAPI  H14Y19956   2.225   1.440   7.996 -0.7224  0.4552 -1.0882
  175SAPI  C31519957   2.366   1.571   8.099  0.4406  0.1411 -0.0640
  175SAPI  H15X19958   2.440   1.487   8.096  0.8786  0.5537 -0.9592
  175SAPI  H15Y19959   2.315   1.568   8.198  0.8822 -2.5483  0.1525
  175SAPI  C31619960   2.445   1.707   8.092  0.6106 -0.2252  0.6328
  175SAPI  H16X19961   2.532   1.712   8.160  2.8429 -0.4571 -2.0122
  175SAPI  H16Y19962   2.371   1.779   8.135 -0.1677  1.1945 -2.7105
  175SAPI  C31719963   2.496   1.751   7.949 -0.1316 -0.1368  0.4140
  175SAPI  H17X19964   2.547   1.849   7.962 -1.4891  0.4863  1.3660
  175SAPI  H17Y19965   2.412   1.764   7.877  1.1308 -0.7134 -1.2046
  175SAPI  C31819966   2.592   1.654   7.893 -0.4045  0.2721  0.1017
  175SAPI  H18X19967   2.550   1.552   7.906 -2.0944  0.9157 -0.0379
  175SAPI  H18Y19968   2.695   1.659   7.935 -0.3081 -2.3832  0.3703
  175SAPI  H18Z19969   2.612   1.681   7.787  0.6691  1.2997  0.5510
  176SAPI   C1219970   2.209   0.964   6.473 -0.2364  0.1283 -0.7048
  176SAPI    H219971   2.183   1.014   6.569 -1.5063 -0.5771 -0.6718
  176SAPI    O219972   2.297   1.045   6.393  0.6572 -0.0725  1.0912
  176SAPI   HO219973   2.332   1.108   6.456 -2.2608 -0.3637  3.1768
  176SAPI   C1319974   2.278   0.842   6.519  0.1253  0.1630 -0.5522
  176SAPI    H319975   2.210   0.786   6.586  0.4172  0.6909  0.2080
  176SAPI    O319976   2.399   0.854   6.597 -0.0246 -0.6176  0.4556
  176SAPI   HO319977   2.456   0.919   6.556  1.5841 -3.6944 -2.6842
  176SAPI   C1419978   2.302   0.747   6.400 -0.4676  0.4713 -0.3919
  176SAPI    H419979   2.378   0.800   6.338 -1.2343  0.2419 -1.5462
  176SAPI    O419980   2.356   0.620   6.440  0.8086 -0.5276 -0.1075
  176SAPI   HO419981   2.412   0.589   6.368  0.4402 -0.3860 -0.4564
  176SAPI   C1519982   2.180   0.726   6.306  0.3984 -0.4709 -0.6667
  176SAPI    H519983   2.109   0.661   6.362  1.0931 -0.4490  0.2562
  176SAPI    O519984   2.222   0.662   6.191  0.3896  0.0007 -0.1567
  176SAPI   HO519985   2.210   0.568   6.205  0.1595  0.0503 -0.0140
  176SAPI   C1619986   2.110   0.860   6.282  0.9911 -0.6146 -0.0802
  176SAPI    H619987   2.171   0.922   6.212  0.3036 -2.5273 -2.5320
  176SAPI    O619988   1.985   0.835   6.208  0.4989  0.1495  0.1396
  176SAPI   HO619989   1.979   0.903   6.141 -0.1829 -0.2785 -0.2395
  176SAPI   C1119990   2.077   0.941   6.405  0.1202 -0.1396  0.2020
  176SAPI    H119991   2.012   0.885   6.476  0.3659 -1.7535 -0.7909
  176SAPI     P19992   1.867   1.104   6.420  0.1144  0.3842 -0.0478
  176SAPI   O1319993   1.771   0.989   6.397  0.3093 -0.1859  0.0056
  176SAPI   O1419994   1.823   1.227   6.357  0.2775 -0.3670  0.4371
  176SAPI   O1219995   2.016   1.066   6.370 -0.4287 -0.0251 -0.7254
  176SAPI   O1119996   1.873   1.132   6.579  0.4306  0.3430  0.2618
  176SAPI    C119997   1.955   1.239   6.631  0.2340 -0.3721 -0.3271
  176SAPI    HA19998   2.056   1.253   6.588  0.3962  1.3530  0.5083
  176SAPI    HB19999   1.905   1.338   6.617  0.7964  0.6682  3.6001
  176SAPI    C220000   1.947   1.229   6.793 -0.0223  0.7293  0.4456
  176SAPI    HS20001   1.992   1.320   6.839  2.7839 -0.2550 -0.1913
  176SAPI   O2120002   2.023   1.119   6.842  0.4072 -0.5069  0.0004
  176SAPI   C2120003   2.157   1.130   6.822 -0.3369  0.2132  0.0312
  176SAPI   O2220004   2.219   1.221   6.764  0.1414  0.2484 -0.1155
  176SAPI   C2220005   2.224   1.009   6.883 -0.0119  1.1192 -0.0940
  176SAPI   H2R20006   2.159   0.974   6.966  0.0038 -0.0758 -0.5659
  176SAPI   H2S20007   2.207   0.932   6.805  1.1198  1.6512 -0.8833
  176SAPI    C320008   1.791   1.225   6.837  0.2524 -0.2143 -0.6738
  176SAPI    HX20009   1.746   1.138   6.785  3.8378 -1.1086 -2.6000
  176SAPI    HY20010   1.743   1.318   6.800 -0.5721 -0.9707 -1.5357
  176SAPI   O3120011   1.776   1.207   6.981 -0.4681 -0.2430  0.4808
  176SAPI   C3120012   1.775   1.079   7.027 -0.1734  0.0936  0.0621
  176SAPI   O3220013   1.799   0.981   6.958  0.1235  0.2105 -0.3396
  176SAPI   C3220014   1.743   1.078   7.168  0.3211  0.2643 -0.9659
  176SAPI   H2X20015   1.841   1.055   7.214  0.6475  3.6714  0.3357
  176SAPI   H2Y20016   1.675   0.993   7.191  0.6580 -0.7331 -3.3908
  176SAPI   C2320017   2.370   1.033   6.924  0.0006 -0.3275 -0.3449
  176SAPI   H3R20018   2.372   1.096   7.015  2.5726  1.4512 -1.5206
  176SAPI   H3S20019   2.418   1.094   6.845 -0.3508 -1.6190 -1.5948
  176SAPI   C2420020   2.442   0.898   6.949 -0.5868  0.2070  0.4417
  176SAPI   H4R20021   2.469   0.855   6.850  1.7451  1.4002  0.4913
  176SAPI   H4S20022   2.365   0.842   7.007 -0.3762 -0.2228  0.3103
  176SAPI   C2520023   2.571   0.910   7.023 -0.2433 -0.4442 -0.8509
  176SAPI   H5R20024   2.654   0.944   6.960  0.1932  1.8735  0.8296
  176SAPI   C2620025   2.582   0.898   7.162 -0.6803 -0.0207  0.2912
  176SAPI   H6R20026   2.684   0.906   7.202 -0.9527  0.5692  0.8903
  176SAPI   C2720027   2.475   0.859   7.253 -0.3794  0.3635 -0.6287
  176SAPI   H7R20028   2.517   0.818   7.348  0.6103 -2.0657 -2.0220
  176SAPI   H7S20029   2.418   0.778   7.201 -0.8241  0.0867  0.2588
  176SAPI   C2820030   2.380   0.961   7.298 -0.3909 -0.0813  0.6670
  176SAPI   H8R20031   2.422   1.057   7.330  1.4627 -0.3814 -0.6547
  176SAPI   C2920032   2.245   0.944   7.300  0.4977 -0.5360 -0.6419
  176SAPI   H9R20033   2.177   1.026   7.328  0.3942 -1.3278  1.6092
  176SAPI  C21020034   2.173   0.821   7.262  0.2212  0.4640  0.1889
  176SAPI  H10R20035   2.193   0.728   7.320 -0.4605  0.0204 -0.2638
  176SAPI  H10S20036   2.204   0.791   7.159 -0.8944 -0.1263 -0.0030
  176SAPI  C21120037   2.020   0.837   7.260  0.2053 -0.3509 -0.0809
  176SAPI  H11R20038   1.977   0.851   7.159  0.7495  0.5486 -0.1979
  176SAPI  C21220039   1.936   0.823   7.368  0.4456  0.4645  0.6900
  176SAPI  H12R20040   1.829   0.847   7.356  0.2605 -0.8942 -0.6893
  176SAPI  C21320041   1.989   0.786   7.507  0.5679  0.0828  0.3187
  176SAPI  H13R20042   1.950   0.862   7.579  0.7297  3.0634 -2.5035
  176SAPI  H13S20043   2.099   0.793   7.524  1.2975  1.3689 -3.7764
  176SAPI  C21420044   1.940   0.653   7.556  0.3849 -0.0059 -0.4122
  176SAPI  H14R20045   1.868   0.594   7.498  0.6732 -0.7393 -0.0370
  176SAPI  C21520046   1.968   0.608   7.678  0.4457 -0.9756 -0.5322
  176SAPI  H15R20047   1.936   0.507   7.708 -1.2983  0.4272  2.9791
  176SAPI  C21620048   2.052   0.682   7.784  0.3460  0.4181 -0.2116
  176SAPI  H16R20049   2.008   0.684   7.886 -4.2146  0.0117 -1.9572
  176SAPI  H16S20050   2.054   0.790   7.758  1.3411  1.0377  2.1813
  176SAPI  C21720051   2.200   0.631   7.788  0.0605  0.3030 -0.4170
  176SAPI  H17R20052   2.192   0.521   7.794 -2.1838  0.4726  0.7095
  176SAPI  H17S20053   2.258   0.663   7.878  0.6550  1.9932 -1.3536
  176SAPI  C21820054   2.277   0.682   7.678  0.0209 -0.0132 -0.5248
  176SAPI  H18R20055   2.278   0.793   7.686  3.1061  0.0061 -0.0920
  176SAPI  H18S20056   2.235   0.655   7.579  1.3084 -0.6461 -0.9241
  176SAPI  C21920057   2.425   0.628   7.668 -0.0106 -0.4684  0.0504
  176SAPI  H19R20058   2.469   0.655   7.569 -0.3928  0.5734  0.1531
  176SAPI  H19S20059   2.419   0.517   7.668  2.0750 -0.6473 -1.4059
  176SAPI  C22020060   2.522   0.674   7.776 -0.0920  0.0130  0.2419
  176SAPI  H20R20061   2.554   0.780   7.768  1.9665 -0.1035  4.2675
  176SAPI  H20S20062   2.613   0.612   7.773 -0.5710 -0.8686  2.2808
  176SAPI  H20T20063   2.462   0.672   7.870 -0.3753  1.0873  0.1020
  176SAPI   C3320064   1.673   1.213   7.221 -0.3479 -0.0500 -0.0196
  176SAPI   H3X20065   1.574   1.221   7.171 -0.3549 -0.3888 -0.0638
  176SAPI   H3Y20066   1.739   1.297   7.192  3.6022 -3.0939 -0.5647
  176SAPI   C3420067   1.663   1.223   7.376 -0.1334  0.1349  0.6614
  176SAPI   H4X20068   1.763   1.227   7.425 -1.6848 -0.1405  4.1761
  176SAPI   H4Y20069   1.614   1.138   7.428  1.0455 -0.9685  0.0457
  176SAPI   C3520070   1.589   1.350   7.411  0.3813 -0.4289  0.1243
  176SAPI   H5X20071   1.480   1.345   7.395  0.6976 -1.6608 -2.1814
  176SAPI   H5Y20072   1.628   1.431   7.345 -2.0108  0.8572  0.1933
  176SAPI   C3620073   1.601   1.383   7.558  0.8188 -0.3544  0.1728
  176SAPI   H6X20074   1.541   1.477   7.562  1.8545  0.3448 -0.1562
  176SAPI   H6Y20075   1.705   1.406   7.590  0.9363  1.5292 -1.3404
  176SAPI   C3720076   1.549   1.267   7.643 -0.4742 -0.5743  0.4951
  176SAPI   H7X20077   1.629   1.193   7.666 -0.6496 -1.0566 -0.4170
  176SAPI   H7Y20078   1.468   1.220   7.584  1.3956 -2.3409 -0.8230
  176SAPI   C3820079   1.505   1.310   7.784 -0.4255 -0.2416  0.2409
  176SAPI   H8X20080   1.419   1.381   7.780  0.6188  1.0187 -1.5002
  176SAPI   H8Y20081   1.588   1.369   7.828  0.9982  0.0159 -2.5860
  176SAPI   C3920082   1.464   1.185   7.868  0.1563  0.0433 -0.0250
  176SAPI   H9X20083   1.552   1.131   7.911 -1.4037 -2.9942 -0.3716
  176SAPI   H9Y20084   1.413   1.106   7.809 -1.6115  1.7690 -0.9035
  176SAPI  C31020085   1.370   1.230   7.983 -0.7277  0.0957 -0.7361
  176SAPI  H10X20086   1.284   1.289   7.946  1.1129  3.0470 -0.6098
  176SAPI  H10Y20087   1.417   1.302   8.053  1.8745  0.5750 -2.8069
  176SAPI  C31120088   1.319   1.108   8.067  0.6915  0.0459 -1.4349
  176SAPI  H11X20089   1.410   1.074   8.122  1.7486  2.3002 -1.7026
  176SAPI  H11Y20090   1.287   1.027   7.998  0.2416 -0.0659 -1.1000
  176SAPI  C31220091   1.214   1.147   8.166 -0.1908 -0.3756  0.5813
  176SAPI  H12X20092   1.126   1.186   8.112  0.8860 -1.6121 -2.2740
  176SAPI  H12Y20093   1.251   1.218   8.243  0.3012  0.5536 -0.4903
  176SAPI  C31320094   1.164   1.019   8.251  0.4918 -0.4545  0.4422
  176SAPI  H13X20095   1.249   0.964   8.299  0.8229 -1.8110 -1.5823
  176SAPI  H13Y20096   1.108   0.958   8.177 -0.6451 -0.9945  1.7137
  176SAPI  C31420097   1.064   1.059   8.365  0.1099  0.0574  0.1557
  176SAPI  H14X20098   0.975   1.116   8.332 -1.0568 -1.3177  0.7998
  176SAPI  H14Y20099   1.123   1.129   8.428  1.2708 -0.7938  0.0436
  176SAPI  C31520100   1.021   0.948   8.469  0.0922 -0.1406  0.2468
  176SAPI  H15X20101   0.988   1.011   8.555  2.0756  0.4733  0.5995
  176SAPI  H15Y20102   1.109   0.886   8.498  1.8927  2.6982  1.3165
  176SAPI  C31620103   0.891   0.866   8.422 -1.1745 -0.5407 -0.0882
  176SAPI  H16X20104   0.858   0.906   8.324  0.6964  2.0268  0.2385
  176SAPI  H16Y20105   0.816   0.881   8.503 -0.4473  0.1859  0.4718
  176SAPI  C31720106   0.945   0.714   8.430  0.4020  0.0034  0.1660
  176SAPI  H17X20107   1.005   0.701   8.523  0.5846 -0.7173 -0.0428
  176SAPI  H17Y20108   1.005   0.694   8.339 -0.9866 -2.7530 -0.2650
  176SAPI  C31820109   0.842   0.606   8.430  0.4047  0.6135 -0.6321
  176SAPI  H18X20110   0.781   0.606   8.522  0.5443 -1.6438 -0.4818
  176SAPI  H18Y20111   0.882   0.503   8.421 -0.0881  0.3290  0.3614
  176SAPI  H18Z20112   0.773   0.628   8.345  0.9357  1.6268 -0.8245
  177SLPC     N20113   1.735   5.918  11.071  0.1279  0.0259  0.2060
  177SLPC   C1320114   1.849   5.871  11.158 -0.5887 -0.1471 -0.4799
  177SLPC  H13A20115   1.841   5.886  11.264  1.3634 -2.3785  0.0577
  177SLPC  H13B20116   1.873   5.769  11.135  0.4396  0.2342 -1.2050
  177SLPC  H13C20117   1.937   5.929  11.136  0.0388 -1.2466 -0.9105
  177SLPC   C1420118   1.696   6.057  11.102 -0.4931 -1.2490 -0.5372
  177SLPC  H14A20119   1.657   6.058  11.203 -2.4590 -3.5938 -1.1816
  177SLPC  H14B20120   1.774   6.127  11.075 -0.8413 -1.4690 -2.2194
  177SLPC  H14C20121   1.612   6.092  11.044  1.1833  0.5643 -2.0215
  177SLPC   C1520122   1.618   5.835  11.115  0.2140 -0.2183 -0.9484
  177SLPC  H15A20123   1.538   5.848  11.043  0.0415  1.6730 -0.4623
  177SLPC  H15B20124   1.638   5.728  11.117  0.9530 -0.1431 -2.5623
  177SLPC  H15C20125   1.582   5.862  11.213  0.6229 -0.6568 -0.6677
  177SLPC   C1220126   1.763   5.908  10.927 -0.6750 -0.2455 -0.3645
  177SLPC  H12A20127   1.842   5.977  10.902 -1.6041  1.3014  0.8219
  177SLPC  H12B20128   1.679   5.944  10.871  0.2870  2.3239 -0.2847
  177SLPC   C1120129   1.793   5.774  10.864  0.0732  0.2122 -0.0522
  177SLPC  H11A20130   1.800   5.790  10.755  1.6830 -0.2785 -0.0439
  177SLPC  H11B20131   1.709   5.702  10.875  1.3593 -1.5275 -1.0312
  177SLPC     P20132   2.049   5.748  10.863 -0.2264 -0.0919  0.0256
  177SLPC   O1320133   2.083   5.896  10.849  0.3497  0.0804 -0.2221
  177SLPC   O1420134   2.156   5.671  10.939  0.1519 -0.4522 -0.1613
  177SLPC   O1220135   1.908   5.722  10.922  0.7279 -0.7225 -0.4544
  177SLPC   O1120136   2.040   5.691  10.715  0.0236  0.1080 -0.1357
  177SLPC    C120137   2.116   5.574  10.677  0.1488  0.0551 -0.1277
  177SLPC    HA20138   2.114   5.488  10.748 -1.8412  0.5611  0.5101
  177SLPC    HB20139   2.071   5.526  10.588  0.9821 -0.1075 -0.4686
  177SLPC    C220140   2.264   5.610  10.633  0.9316 -0.2429 -1.5218
  177SLPC    HS20141   2.324   5.651  10.717  0.3782  1.5350 -1.9611
  177SLPC   O2120142   2.272   5.712  10.532  0.7249  0.2727  0.0152
  177SLPC   C2120143   2.386   5.783  10.531  0.6476 -0.4819  1.2225
  177SLPC   O2220144   2.477   5.763  10.607  0.2449 -0.2653  0.2122
  177SLPC   C2220145   2.351   5.889  10.431 -0.4385 -0.4015 -0.7719
  177SLPC   H2R20146   2.269   5.868  10.359 -0.0428  0.2933 -1.4424
  177SLPC   H2S20147   2.305   5.973  10.486  1.8868  0.8060 -0.5336
  177SLPC    C320148   2.351   5.483  10.595 -0.2456  0.1118  0.0026
  177SLPC    HX20149   2.346   5.409  10.678 -0.2591 -0.4535 -0.4912
  177SLPC    HY20150   2.454   5.522  10.579 -0.0125 -0.8715 -1.0911
  177SLPC   O3120151   2.291   5.428  10.475  0.2750  0.3588 -0.1238
  177SLPC   C3120152   2.364   5.427  10.366 -0.6923  0.5309  0.1410
  177SLPC   O3220153   2.484   5.452  10.364 -0.4900  0.9126  0.0195
  177SLPC   C3220154   2.286   5.380  10.245  0.2478 -0.5839  0.0114
  177SLPC   H2X20155   2.190   5.437  10.239  0.0652 -0.2069  3.9680
  177SLPC   H2Y20156   2.251   5.277  10.268  0.5736 -0.9339 -1.0011
  177SLPC   C2320157   2.486   5.928  10.367  0.0790  0.5196 -0.1016
  177SLPC   H3R20158   2.569   5.914  10.440  0.7570 -2.2499 -1.2585
  177SLPC   H3S20159   2.481   6.030  10.323  1.7011  1.3687  1.5767
  177SLPC   C2420160   2.522   5.840  10.249  0.6172 -0.6767  0.1718
  177SLPC   H4R20161   2.432   5.829  10.184 -1.2910  2.0590  2.1441
  177SLPC   H4S20162   2.548   5.735  10.273  0.4034 -0.7717 -0.0037
  177SLPC   C2520163   2.632   5.914  10.170  0.4331  0.1595 -0.3988
  177SLPC   H5R20164   2.731   5.910  10.221  0.2180  0.8821  0.1025
  177SLPC   H5S20165   2.616   6.024  10.164  3.2159  0.8071  1.7183
  177SLPC   C2620166   2.637   5.860  10.027  0.5762  0.4176 -0.2190
  177SLPC   H6R20167   2.552   5.899   9.967 -0.2740 -0.0972  0.6252
  177SLPC   H6S20168   2.609   5.752  10.029  0.8146  0.3514 -0.4488
  177SLPC   C2720169   2.762   5.893   9.962 -0.0939  0.1351 -0.1045
  177SLPC   H7R20170   2.839   5.816   9.986 -0.5183 -0.7541 -1.4762
  177SLPC   H7S20171   2.799   5.987  10.009  0.3513 -0.6558  1.1813
  177SLPC   C2820172   2.759   5.894   9.810 -0.2014  0.4548  0.5329
  177SLPC   H8R20173   2.715   5.799   9.772 -2.4861  1.4561  0.4819
  177SLPC   H8S20174   2.866   5.898   9.778 -0.3708 -0.2050 -0.1351
  177SLPC   C2920175   2.671   5.998   9.741 -0.5000 -0.0430  0.1034
  177SLPC   H9R20176   2.624   6.070   9.809 -0.7884  1.5436 -1.6993
  177SLPC  C21020177   2.654   6.011   9.606 -0.2438  0.0248 -0.3545
  177SLPC  H10R20178   2.578   6.077   9.562 -1.6240  0.0965  1.9626
  177SLPC  C21120179   2.717   5.932   9.497 -0.1323  0.1168  0.0645
  177SLPC  H11R20180   2.789   5.861   9.542 -0.3763  0.8932  1.7400
  177SLPC  H11S20181   2.649   5.861   9.446  2.4832 -1.7282 -1.0389
  177SLPC  C21220182   2.796   6.018   9.404 -0.5987  0.0337 -0.2116
  177SLPC  H12R20183   2.851   6.098   9.457 -0.3294  0.5765 -1.2721
  177SLPC  C21320184   2.813   5.998   9.269  0.3575 -0.5011  0.4337
  177SLPC  H13R20185   2.876   6.066   9.210  0.9162 -1.6623 -0.3379
  177SLPC  C21420186   2.754   5.888   9.184  1.0524  0.5727 -0.0999
  177SLPC  H14R20187   2.653   5.913   9.146  0.3024 -0.0341  1.4079
  177SLPC  H14S20188   2.753   5.795   9.246  3.1257 -1.1054 -2.4057
  177SLPC  C21520189   2.839   5.856   9.058 -0.4643 -0.1368  0.5516
  177SLPC  H15R20190   2.946   5.843   9.086 -0.1809 -0.0985 -0.4848
  177SLPC  H15S20191   2.861   5.945   8.996  3.3099 -1.3833 -0.2301
  177SLPC  C21620192   2.788   5.730   8.993 -0.0594  0.3085  0.2919
  177SLPC  H16R20193   2.678   5.741   8.981 -0.0781  2.1894  1.6974
  177SLPC  H16S20194   2.818   5.641   9.052 -0.2733 -1.2209 -1.8207
  177SLPC  C21720195   2.859   5.713   8.855 -0.6312 -0.4980 -0.2388
  177SLPC  H17R20196   2.968   5.703   8.870 -0.0361 -1.5924 -4.2512
  177SLPC  H17S20197   2.857   5.797   8.783 -0.5182 -0.8733 -0.6805
  177SLPC  C21820198   2.797   5.578   8.798  0.7914  0.3692 -0.1495
  177SLPC  H18R20199   2.686   5.575   8.788  0.3900 -2.0930  3.3275
  177SLPC  H18S20200   2.824   5.484   8.851  0.1712  0.5083  0.4248
  177SLPC  H18T20201   2.829   5.570   8.692 -1.1641  2.0872 -0.9397
  177SLPC   C3320202   2.371   5.370  10.116  0.5791  0.0482  1.1656
  177SLPC   H3X20203   2.318   5.319  10.033  0.7932 -1.6924  2.0657
  177SLPC   H3Y20204   2.463   5.312  10.138  1.6323  0.4612 -1.7344
  177SLPC   C3420205   2.413   5.504  10.057  0.2652  0.0485  0.0507
  177SLPC   H4X20206   2.519   5.484  10.030  0.2695  0.2731 -0.1001
  177SLPC   H4Y20207   2.420   5.585  10.133  3.4454  1.4253 -1.5453
  177SLPC   C3520208   2.332   5.551   9.937 -0.5524  0.5118 -0.3790
  177SLPC   H5X20209   2.223   5.553   9.959 -0.5934 -1.0344 -0.3312
  177SLPC   H5Y20210   2.354   5.473   9.860  0.3672  0.2414  0.1418
  177SLPC   C3620211   2.381   5.685   9.886  0.6453  0.2880  0.4814
  177SLPC   H6X20212   2.491   5.690   9.876  0.7158  1.7409  1.6934
  177SLPC   H6Y20213   2.356   5.770   9.953  0.8297  0.9741 -0.3058
  177SLPC   C3720214   2.327   5.720   9.742 -0.9679  0.8092 -0.1104
  177SLPC   H7X20215   2.338   5.830   9.735  0.3859  0.8634  1.9065
  177SLPC   H7Y20216   2.218   5.703   9.727 -0.7200  1.2311 -2.7904
  177SLPC   C3820217   2.408   5.651   9.631  0.0601 -0.0688 -0.0364
  177SLPC   H8X20218   2.391   5.541   9.628  0.1464 -0.1379  1.3672
  177SLPC   H8Y20219   2.514   5.683   9.637 -0.2748  1.1625 -0.4206
  177SLPC   C3920220   2.361   5.698   9.495  0.1063  0.1661 -0.2287
  177SLPC   H9X20221   2.369   5.809   9.487  0.9353  0.1142 -0.1888
  177SLPC   H9Y20222   2.253   5.672   9.493 -0.0697  0.8209  0.3432
  177SLPC  C31020223   2.428   5.641   9.376  0.1770 -0.3556  0.1543
  177SLPC  H10X20224   2.390   5.538   9.360 -2.7089  0.3160  1.9442
  177SLPC  H10Y20225   2.537   5.635   9.396  0.4497 -0.4737 -1.2378
  177SLPC  C31120226   2.405   5.716   9.249  0.5551  0.1299 -0.5224
  177SLPC  H11X20227   2.461   5.811   9.263  1.2457 -0.2549 -0.6035
  177SLPC  H11Y20228   2.298   5.743   9.236  0.4144 -1.3630 -3.3736
  177SLPC  C31220229   2.462   5.655   9.118  0.3986 -0.1606  0.0981
  177SLPC  H12X20230   2.565   5.617   9.133  0.7979  1.1139  0.7748
  177SLPC  H12Y20231   2.464   5.737   9.043 -0.5358  1.1175  1.4201
  177SLPC  C31320232   2.378   5.546   9.051  0.1995 -0.6179 -1.4222
  177SLPC  H13X20233   2.290   5.591   9.000  0.5220  2.9793  0.8818
  177SLPC  H13Y20234   2.342   5.462   9.114  0.1266 -0.8010 -1.7054
  177SLPC  C31420235   2.451   5.476   8.932 -0.4134 -0.6067  0.0051
  177SLPC  H14X20236   2.501   5.387   8.975  1.1605 -0.9828 -2.4231
  177SLPC  H14Y20237   2.511   5.552   8.878 -3.6316  0.6030 -2.2215
  177SLPC  C31520238   2.347   5.423   8.827  0.6286 -0.9794 -0.1033
  177SLPC  H15X20239   2.300   5.504   8.767 -0.9630  0.1019  2.4209
  177SLPC  H15Y20240   2.266   5.383   8.891 -0.7138  0.8728 -0.5633
  177SLPC  C31620241   2.393   5.308   8.735 -1.2775  0.0850 -0.1608
  177SLPC  H16X20242   2.315   5.279   8.661 -1.6037  0.4814  0.0220
  177SLPC  H16Y20243   2.412   5.213   8.788  3.8621  0.1737 -1.3359
  177SLPC  C31720244   2.522   5.342   8.654 -0.0038 -1.2191 -1.0084
  177SLPC  H17X20245   2.609   5.321   8.719 -1.1450  0.1215  1.0590
  177SLPC  H17Y20246   2.535   5.451   8.637  1.7258 -1.1103  0.7570
  177SLPC  C31820247   2.536   5.275   8.522 -0.5447 -0.9951  0.1971
  177SLPC  H18X20248   2.520   5.165   8.528  0.5881 -1.1455  0.7350
  177SLPC  H18Y20249   2.640   5.280   8.482 -0.4839  1.4429  0.5080
  177SLPC  H18Z20250   2.467   5.311   8.443 -1.3031  1.5914  1.8931
  178SLPC     N20251   4.456   4.710  11.002 -0.4395  0.1492  0.4578
  178SLPC   C1320252   4.476   4.583  11.086  0.0109  0.2111 -0.1641
  178SLPC  H13A20253   4.579   4.563  11.108 -0.4100 -1.5415  0.4178
  178SLPC  H13B20254   4.426   4.581  11.181 -0.9013 -1.3884 -0.6295
  178SLPC  H13C20255   4.429   4.495  11.042 -0.6633  0.2693  0.4274
  178SLPC   C1420256   4.533   4.823  11.072  0.2206  0.3120 -0.0330
  178SLPC  H14A20257   4.640   4.807  11.072  0.8426  3.5128 -2.4832
  178SLPC  H14B20258   4.527   4.900  10.997  0.8718  0.7200  0.3297
  178SLPC  H14C20259   4.501   4.848  11.172 -1.5502 -1.9215  0.0675
  178SLPC   C1520260   4.311   4.747  11.005 -0.5451 -0.8020 -0.4831
  178SLPC  H15A20261   4.252   4.667  10.963 -0.8631 -1.0586  0.4226
  178SLPC  H15B20262   4.283   4.767  11.107 -0.6347  1.3772 -0.8926
  178SLPC  H15C20263   4.297   4.831  10.939 -1.4435 -2.9861 -3.2981
  178SLPC   C1220264   4.513   4.689  10.860  0.4088 -0.7427  0.3379
  178SLPC  H12A20265   4.459   4.609  10.811  0.5839 -0.6350 -0.0399
  178SLPC  H12B20266   4.617   4.660  10.867  0.1725 -1.2602  2.4463
  178SLPC   C1120267   4.514   4.814  10.759  0.5859  0.4591  0.3603
  178SLPC  H11A20268   4.416   4.866  10.765 -0.4842 -1.5207  1.4224
  178SLPC  H11B20269   4.533   4.773  10.657  0.3101  0.4551  0.3096
  178SLPC     P20270   4.765   4.888  10.777  0.2313 -0.3260  0.0722
  178SLPC   O1320271   4.841   4.991  10.858  0.1083  0.3775 -0.1044
  178SLPC   O1420272   4.792   4.747  10.818 -0.8258  0.0216  0.1859
  178SLPC   O1220273   4.606   4.911  10.793 -0.5129  0.2740 -0.5941
  178SLPC   O1120274   4.801   4.905  10.628  0.5086  0.7483 -0.8887
  178SLPC    C120275   4.780   5.028  10.556  0.4841 -0.0743  0.4671
  178SLPC    HA20276   4.743   5.114  10.616 -1.1923 -1.1549  1.0681
  178SLPC    HB20277   4.879   5.058  10.516  0.4613 -0.0605  0.4213
  178SLPC    C220278   4.697   5.006  10.420  0.1350 -0.2695 -0.8536
  178SLPC    HS20279   4.596   4.974  10.455 -0.9506  3.2612 -0.2982
  178SLPC   O2120280   4.758   4.893  10.354  0.1205 -0.5132  0.0640
  178SLPC   C2120281   4.683   4.822  10.270 -0.0884  0.1350 -0.2587
  178SLPC   O2220282   4.560   4.839  10.252 -0.2810 -0.4628  0.4065
  178SLPC   C2220283   4.763   4.713  10.203  0.2832 -0.0002 -0.6193
  178SLPC   H2R20284   4.870   4.743  10.200  1.3681 -2.9283  2.4777
  178SLPC   H2S20285   4.754   4.621  10.263  0.1336 -1.3040 -2.5494
  178SLPC    C320286   4.688   5.139  10.337  0.4457 -0.3467 -0.0517
  178SLPC    HX20287   4.631   5.212  10.399  0.9886  0.3766 -0.3981
  178SLPC    HY20288   4.626   5.112  10.249 -0.0068 -2.0665  0.7577
  178SLPC   O3120289   4.812   5.210  10.296  0.3457  0.1794 -0.7820
  178SLPC   C3120290   4.864   5.174  10.181  0.0184 -0.2298 -0.2635
  178SLPC   O3220291   4.806   5.102  10.099 -0.6036  0.3574 -0.3206
  178SLPC   C3220292   4.991   5.242  10.173 -0.2703 -0.5483  0.5045
  178SLPC   H2X20293   5.054   5.215  10.260  2.2007 -1.4335 -1.4585
  178SLPC   H2Y20294   4.981   5.353  10.171  0.8318 -0.4361 -1.6315
  178SLPC   C2320295   4.716   4.672  10.054 -0.7516 -0.4034 -0.0218
  178SLPC   H3R20296   4.608   4.644  10.060 -1.5124  2.4035  0.7333
  178SLPC   H3S20297   4.772   4.585  10.014  0.2772  0.3716 -0.3160
  178SLPC   C2420298   4.763   4.780   9.961  0.5855  0.3715 -0.5136
  178SLPC   H4R20299   4.873   4.799   9.958  0.9664 -1.6693 -0.5636
  178SLPC   H4S20300   4.715   4.870  10.006  0.4215 -0.4857  1.0859
  178SLPC   C2520301   4.692   4.769   9.820 -0.0669 -0.1607 -0.4063
  178SLPC   H5R20302   4.584   4.743   9.824 -0.1190  0.2327  1.9293
  178SLPC   H5S20303   4.739   4.692   9.755  0.6804  0.5705 -0.7460
  178SLPC   C2620304   4.701   4.897   9.740 -0.1598 -0.4549  0.0406
  178SLPC   H6R20305   4.799   4.950   9.733  0.8217 -1.9796  1.4966
  178SLPC   H6S20306   4.625   4.960   9.792 -0.8043 -1.5153  0.4187
  178SLPC   C2720307   4.650   4.875   9.593 -0.0858 -0.3395 -0.5006
  178SLPC   H7R20308   4.544   4.841   9.591 -0.1117 -0.2422 -0.7762
  178SLPC   H7S20309   4.711   4.798   9.542  1.7224  0.9085 -0.3141
  178SLPC   C2820310   4.657   5.009   9.518 -0.0976  0.5744  0.2104
  178SLPC   H8R20311   4.672   4.982   9.411 -0.0091 -0.3774  0.4504
  178SLPC   H8S20312   4.752   5.063   9.532  0.0037  0.8725 -1.3845
  178SLPC   C2920313   4.539   5.094   9.558  0.0534  0.5102  0.1935
  178SLPC   H9R20314   4.543   5.125   9.663 -2.7675  0.5423  0.3879
  178SLPC  C21020315   4.432   5.124   9.488  0.0332  0.2087  0.3368
  178SLPC  H10R20316   4.353   5.185   9.536 -0.2310  1.0096 -1.0694
  178SLPC  C21120317   4.389   5.090   9.348  0.7553 -0.1770 -0.3748
  178SLPC  H11R20318   4.479   5.049   9.297  1.1329  1.6323 -1.2436
  178SLPC  H11S20319   4.381   5.189   9.299  1.6275  0.2513  0.3129
  178SLPC  C21220320   4.259   5.024   9.335  0.7991  0.1483  0.2466
  178SLPC  H12R20321   4.200   5.006   9.426 -1.6565 -0.5300 -1.4053
  178SLPC  C21320322   4.205   4.986   9.216  0.6730  0.1003 -0.4405
  178SLPC  H13R20323   4.097   4.968   9.212  0.3552  1.6453  0.3877
  178SLPC  C21420324   4.276   5.003   9.083  0.3116  0.5566  0.2668
  178SLPC  H14R20325   4.263   4.911   9.023 -2.2634 -0.1050  1.7040
  178SLPC  H14S20326   4.387   5.006   9.092  0.4496 -1.1197 -0.5900
  178SLPC  C21520327   4.230   5.113   8.990  0.8813 -0.1258 -0.2586
  178SLPC  H15R20328   4.310   5.133   8.916  0.5056  2.3751 -0.0693
  178SLPC  H15S20329   4.235   5.205   9.052  1.6929  0.4449 -1.1550
  178SLPC  C21620330   4.091   5.096   8.923  0.1063  0.4134 -0.2053
  178SLPC  H16R20331   4.011   5.104   8.999  0.8246 -0.1823  0.6406
  178SLPC  H16S20332   4.086   4.991   8.887  2.4432  0.5957 -1.2580
  178SLPC  C21720333   4.068   5.192   8.800 -0.0287 -0.1853 -0.6612
  178SLPC  H17R20334   4.102   5.290   8.841  1.7551 -0.9001 -0.3087
  178SLPC  H17S20335   3.959   5.194   8.783  0.0995 -0.8882 -1.6507
  178SLPC  C21820336   4.146   5.159   8.673 -0.6368  0.6416 -0.0458
  178SLPC  H18R20337   4.113   5.066   8.622 -3.1337  2.0529 -1.1686
  178SLPC  H18S20338   4.253   5.143   8.700 -0.7148 -2.0446 -1.0521
  178SLPC  H18T20339   4.148   5.243   8.600  1.0348  0.2030 -0.5563
  178SLPC   C3320340   5.062   5.208  10.041 -0.3168 -0.7075 -0.1370
  178SLPC   H3X20341   5.090   5.101  10.034 -0.1785 -0.8170  1.6875
  178SLPC   H3Y20342   5.163   5.253  10.033  0.5856 -2.1831  2.1041
  178SLPC   C3420343   4.978   5.258   9.919 -0.4838 -0.1630  0.0568
  178SLPC   H4X20344   4.940   5.359   9.945 -0.4656 -0.3204  0.7044
  178SLPC   H4Y20345   4.887   5.195   9.911 -1.2165  0.7279  1.1050
  178SLPC   C3520346   5.057   5.244   9.786  0.2243  0.2083 -0.5392
  178SLPC   H5X20347   5.106   5.144   9.791 -0.2036  0.0590  1.3826
  178SLPC   H5Y20348   5.133   5.325   9.776  1.3492 -0.3977  2.0714
  178SLPC   C3620349   4.968   5.256   9.663  0.5701 -0.6371 -0.2707
  178SLPC   H6X20350   4.930   5.360   9.657 -2.0520 -1.5492 -0.8790
  178SLPC   H6Y20351   4.879   5.189   9.667 -0.7017  0.9405 -0.8966
  178SLPC   C3720352   5.015   5.215   9.529  0.1951 -0.1218 -0.0721
  178SLPC   H7X20353   5.074   5.301   9.492 -1.6338  1.3881  0.3761
  178SLPC   H7Y20354   4.944   5.212   9.444  0.8172 -0.0995 -0.5997
  178SLPC   C3820355   5.085   5.081   9.524  0.7808  0.5907 -0.5381
  178SLPC   H8X20356   5.012   5.003   9.555 -0.0165  1.6431  0.3010
  178SLPC   H8Y20357   5.166   5.071   9.600 -0.3203  2.2839  0.9436
  178SLPC   C3920358   5.118   5.048   9.376 -0.3447 -0.5582  0.0151
  178SLPC   H9X20359   5.022   5.057   9.323 -0.5579 -1.0637  0.3068
  178SLPC   H9Y20360   5.171   4.953   9.355  2.9196  1.1710 -0.2568
  178SLPC  C31020361   5.210   5.149   9.311 -0.0248  0.5467 -0.1624
  178SLPC  H10X20362   5.291   5.174   9.382  0.7703 -0.8175 -0.5476
  178SLPC  H10Y20363   5.153   5.236   9.272  1.1230  1.9510  1.1672
  178SLPC  C31120364   5.289   5.096   9.189 -0.7695 -0.0566  0.1483
  178SLPC  H11X20365   5.345   5.007   9.224  0.3548  0.7223  0.3579
  178SLPC  H11Y20366   5.361   5.167   9.144 -0.3565 -0.9132 -0.5523
  178SLPC  C31220367   5.189   5.086   9.075 -0.4665  0.4220 -0.0989
  178SLPC  H12X20368   5.143   5.180   9.041 -1.2908 -0.3295 -1.1198
  178SLPC  H12Y20369   5.110   5.015   9.106  0.3093  0.1353  1.3299
  178SLPC  C31320370   5.257   5.027   8.942 -0.4180  0.0942 -0.2128
  178SLPC  H13X20371   5.172   5.013   8.871  1.4289 -0.2455 -2.4661
  178SLPC  H13Y20372   5.296   4.927   8.972 -1.2580  0.0417  0.7566
  178SLPC  C31420373   5.368   5.108   8.885 -0.9326 -0.1920 -0.1222
  178SLPC  H14X20374   5.456   5.111   8.953  0.1328  2.1683 -1.4678
  178SLPC  H14Y20375   5.339   5.216   8.890  0.5422  0.1977  0.5221
  178SLPC  C31520376   5.407   5.055   8.743 -0.3773  0.0285 -0.2539
  178SLPC  H15X20377   5.464   4.960   8.745  0.9147  0.7294 -1.5442
  178SLPC  H15Y20378   5.314   5.033   8.686  0.7460  0.0920 -2.1957
  178SLPC  C31620379   5.482   5.167   8.671 -0.6489  0.2877 -0.4329
  178SLPC  H16X20380   5.561   5.196   8.744  0.6068 -0.3976 -1.4735
  178SLPC  H16Y20381   5.406   5.248   8.665  0.0063  0.9932  0.4507
  178SLPC  C31720382   5.539   5.128   8.527 -0.6234 -0.6441  0.2731
  178SLPC  H17X20383   5.460   5.073   8.472 -0.0266 -2.0956  0.7853
  178SLPC  H17Y20384   5.626   5.059   8.540  0.0707 -0.6993 -3.5495
  178SLPC  C31820385   5.577   5.247   8.437  0.2948  0.7890 -0.1499
  178SLPC  H18X20386   5.484   5.303   8.414 -0.3268 -0.4401 -0.7349
  178SLPC  H18Y20387   5.615   5.211   8.339  0.1582  1.1054 -0.3199
  178SLPC  H18Z20388   5.658   5.314   8.472  0.4167 -0.0028  1.1883
  179SLPC     N20389   6.319   2.021  10.591 -0.0521 -0.5440 -0.5236
  179SLPC   C1320390   6.459   1.967  10.602 -0.7918  0.3427 -0.9908
  179SLPC  H13A20391   6.453   1.860  10.587 -1.9078  0.3291 -0.5566
  179SLPC  H13B20392   6.525   2.014  10.531  0.4612  1.5874  0.9045
  179SLPC  H13C20393   6.501   1.988  10.700 -0.2388 -0.3389 -1.0708
  179SLPC   C1420394   6.335   2.164  10.620  0.2404 -0.4970  0.1162
  179SLPC  H14A20395   6.392   2.213  10.543  2.0552 -1.3043  0.8849
  179SLPC  H14B20396   6.238   2.209  10.635 -0.4605 -2.0756  0.5180
  179SLPC  H14C20397   6.385   2.172  10.716 -0.7012  0.8386  0.5293
  179SLPC   C1520398   6.224   1.960  10.694 -0.2664 -0.1688  0.5232
  179SLPC  H15A20399   6.248   1.981  10.797 -2.3471 -2.7772  1.6600
  179SLPC  H15B20400   6.125   2.003  10.686 -0.4992 -0.9825 -1.5153
  179SLPC  H15C20401   6.228   1.852  10.691  1.9593 -0.1562 -3.1496
  179SLPC   C1220402   6.256   1.997  10.451 -0.5937  0.3371 -0.4165
  179SLPC  H12A20403   6.156   2.036  10.444 -0.3183  0.8007 -3.1514
  179SLPC  H12B20404   6.260   1.890  10.439 -0.0815  0.2964  0.0684
  179SLPC   C1120405   6.321   2.055  10.317 -0.3543 -0.5346  0.0828
  179SLPC  H11A20406   6.268   2.029  10.223  1.5154 -0.0370 -1.1747
  179SLPC  H11B20407   6.420   2.005  10.307  0.6315  1.4839 -0.9456
  179SLPC     P20408   6.232   2.292  10.272  0.1746  0.3766 -0.1648
  179SLPC   O1320409   6.100   2.258  10.338 -0.8053 -0.3764 -0.1055
  179SLPC   O1420410   6.284   2.430  10.288 -0.1441  0.3296 -0.2069
  179SLPC   O1220411   6.343   2.190  10.327  0.6467  0.3595  0.8931
  179SLPC   O1120412   6.227   2.261  10.116 -0.0576  0.1597  0.2269
  179SLPC    C120413   6.325   2.318  10.032 -0.3549  0.5036  0.6576
  179SLPC    HA20414   6.422   2.345  10.078  0.8914 -1.8921 -0.4123
  179SLPC    HB20415   6.348   2.243   9.954 -2.0681  1.4125 -0.8179
  179SLPC    C220416   6.266   2.455   9.971 -0.7394  0.5127  0.4088
  179SLPC    HS20417   6.253   2.527  10.055  0.3772 -0.2981  1.3092
  179SLPC   O2120418   6.154   2.423   9.891 -0.0619 -0.0658  0.2263
  179SLPC   C2120419   6.051   2.506   9.896 -0.3912  0.3421  0.4934
  179SLPC   O2220420   6.042   2.586   9.984 -0.5217 -0.3392 -0.0312
  179SLPC   C2220421   5.942   2.489   9.780 -0.6575 -0.6143 -0.5637
  179SLPC   H2R20422   5.858   2.561   9.793 -0.7677 -0.3542 -2.4992
  179SLPC   H2S20423   6.004   2.531   9.699 -0.9053 -0.0558 -0.4659
  179SLPC    C320424   6.387   2.520   9.886  0.5464 -0.1832 -0.0049
  179SLPC    HX20425   6.472   2.551   9.951 -1.7587  1.4981  2.3944
  179SLPC    HY20426   6.339   2.609   9.839  1.1612 -0.4577 -1.2024
  179SLPC   O3120427   6.439   2.427   9.793 -0.0511 -0.0947  0.3414
  179SLPC   C3120428   6.395   2.433   9.671 -0.9005 -0.4229 -0.6082
  179SLPC   O3220429   6.301   2.500   9.633 -0.9175 -0.5526 -0.0550
  179SLPC   C3220430   6.484   2.329   9.594 -0.1995  0.1768 -0.5883
  179SLPC   H2X20431   6.489   2.234   9.651  0.1106  0.4150 -0.2096
  179SLPC   H2Y20432   6.592   2.354   9.589 -0.3422  0.9139 -0.1435
  179SLPC   C2320433   5.895   2.343   9.764  0.1899  0.5473 -0.4681
  179SLPC   H3R20434   5.831   2.316   9.851  1.6207  0.9332  0.7395
  179SLPC   H3S20435   5.984   2.277   9.770  0.5083  0.7784 -2.2886
  179SLPC   C2420436   5.799   2.341   9.640 -0.5569 -0.6899 -0.1466
  179SLPC   H4R20437   5.710   2.392   9.681  0.1439  2.5758 -2.3206
  179SLPC   H4S20438   5.796   2.234   9.610  0.9384 -0.5686 -0.8560
  179SLPC   C2520439   5.859   2.415   9.521  0.2888 -0.1609  0.3784
  179SLPC   H5R20440   5.969   2.399   9.517  0.3848  0.5293  0.0376
  179SLPC   H5S20441   5.840   2.525   9.528 -2.7199 -0.5854  0.0501
  179SLPC   C2620442   5.794   2.375   9.396  0.1983  0.3723  0.4379
  179SLPC   H6R20443   5.688   2.387   9.424  0.5921 -1.2738  3.0099
  179SLPC   H6S20444   5.809   2.265   9.386 -3.3272 -0.2113  0.5577
  179SLPC   C2720445   5.852   2.432   9.269 -0.5538 -0.5223  0.5250
  179SLPC   H7R20446   5.960   2.414   9.284 -0.3271  0.2661 -0.1177
  179SLPC   H7S20447   5.842   2.542   9.280  0.6240 -0.3268 -0.1412
  179SLPC   C2820448   5.807   2.355   9.143  0.5464 -0.5327  0.4981
  179SLPC   H8R20449   5.698   2.335   9.151  0.6903 -1.2144  0.7984
  179SLPC   H8S20450   5.855   2.255   9.139  2.9037  0.4364  1.9936
  179SLPC   C2920451   5.850   2.436   9.026 -1.2488  0.2302 -0.1291
  179SLPC   H9R20452   5.955   2.427   8.994 -1.5436  0.6966 -1.2890
  179SLPC  C21020453   5.766   2.508   8.943  0.1040  0.0681 -0.2176
  179SLPC  H10R20454   5.812   2.561   8.858 -0.3752  2.5697  0.9858
  179SLPC  C21120455   5.612   2.522   8.957  0.3713 -0.0076 -0.4644
  179SLPC  H11R20456   5.568   2.522   9.059  0.8048  0.2536 -0.2762
  179SLPC  H11S20457   5.565   2.438   8.902  0.8549 -0.3001 -0.4320
  179SLPC  C21220458   5.575   2.663   8.899  0.5464  0.2259 -0.8958
  179SLPC  H12R20459   5.551   2.733   8.980  0.5984  0.3278 -0.9689
  179SLPC  C21320460   5.571   2.694   8.777 -0.2668 -0.3044  0.4791
  179SLPC  H13R20461   5.566   2.798   8.741  2.4608 -1.0653 -2.6452
  179SLPC  C21420462   5.615   2.606   8.664 -0.7392  0.5802 -0.0454
  179SLPC  H14R20463   5.642   2.501   8.688 -1.2978 -0.1116 -2.2179
  179SLPC  H14S20464   5.701   2.651   8.611  0.6993 -0.6944  1.0902
  179SLPC  C21520465   5.496   2.576   8.569 -0.5187 -0.4071 -0.4082
  179SLPC  H15R20466   5.409   2.527   8.617 -3.5202  1.3288 -3.6112
  179SLPC  H15S20467   5.531   2.516   8.482 -0.7968  1.4583 -1.8663
  179SLPC  C21620468   5.442   2.709   8.505 -0.3776 -0.2852  0.4133
  179SLPC  H16R20469   5.530   2.745   8.450 -1.2300  0.5818 -0.4218
  179SLPC  H16S20470   5.417   2.790   8.577 -2.7612 -0.3231 -0.2757
  179SLPC  C21720471   5.324   2.681   8.407  0.2663 -0.2899 -0.4801
  179SLPC  H17R20472   5.252   2.619   8.464  1.3707 -2.4886 -1.3651
  179SLPC  H17S20473   5.371   2.620   8.327  2.9273  1.1551 -0.1588
  179SLPC  C21820474   5.255   2.796   8.344 -0.2721 -0.0473  0.2401
  179SLPC  H18R20475   5.218   2.861   8.427 -1.3419 -0.5056  0.1326
  179SLPC  H18S20476   5.173   2.755   8.281 -0.0102 -1.1774  0.6082
  179SLPC  H18T20477   5.321   2.855   8.277  0.8359 -0.3430  1.0446
  179SLPC   C3320478   6.440   2.313   9.445  0.2356  0.1942  0.4301
  179SLPC   H3X20479   6.417   2.412   9.400 -1.7236 -0.5731 -0.3621
  179SLPC   H3Y20480   6.347   2.253   9.441  0.1524  0.3876 -1.3045
  179SLPC   C3420481   6.536   2.237   9.352 -0.2246  0.0649  0.5594
  179SLPC   H4X20482   6.544   2.131   9.384  1.5604 -0.6073 -1.8845
  179SLPC   H4Y20483   6.637   2.280   9.368 -0.6822  1.2114  0.4513
  179SLPC   C3520484   6.497   2.244   9.203 -0.4849 -0.1501  0.9903
  179SLPC   H5X20485   6.508   2.351   9.176  1.0294 -0.3046  0.9015
  179SLPC   H5Y20486   6.393   2.207   9.189 -0.0641 -0.8091 -0.6590
  179SLPC   C3620487   6.586   2.158   9.119  0.0422 -1.0472  0.9109
  179SLPC   H6X20488   6.587   2.058   9.166 -2.7298 -1.5625  0.0418
  179SLPC   H6Y20489   6.689   2.199   9.114  0.2453 -1.6669 -0.3081
  179SLPC   C3720490   6.531   2.144   8.980 -0.1087 -0.1129  0.5568
  179SLPC   H7X20491   6.421   2.155   8.981  0.0020  1.2813  0.2374
  179SLPC   H7Y20492   6.550   2.037   8.959  1.6811  0.5874 -1.9089
  179SLPC   C3820493   6.608   2.221   8.878 -0.8162  0.4436  0.8314
  179SLPC   H8X20494   6.718   2.204   8.889 -0.3047  2.0818 -1.0843
  179SLPC   H8Y20495   6.599   2.327   8.910 -0.0737 -0.0395  2.7572
  179SLPC   C3920496   6.585   2.181   8.728  0.3288  0.2667  0.5613
  179SLPC   H9X20497   6.567   2.072   8.721  0.5505  0.0850  2.4833
  179SLPC   H9Y20498   6.675   2.210   8.670  0.6220 -1.5590  0.0413
  179SLPC  C31020499   6.463   2.250   8.672  0.5966  0.4776 -0.1004
  179SLPC  H10X20500   6.384   2.279   8.744 -1.1264  3.2110 -2.8359
  179SLPC  H10Y20501   6.425   2.185   8.591  1.5324 -1.2814  0.8204
  179SLPC  C31120502   6.498   2.384   8.596  0.4391  0.1977 -0.1192
  179SLPC  H11X20503   6.403   2.418   8.550  0.2689  0.3035  0.3054
  179SLPC  H11Y20504   6.571   2.359   8.517  1.5416  1.4078  0.4652
  179SLPC  C31220505   6.562   2.496   8.680 -0.3482  0.1903  0.3468
  179SLPC  H12X20506   6.670   2.473   8.685 -0.4582 -0.4022  0.1460
  179SLPC  H12Y20507   6.533   2.491   8.787  0.8896  2.9141  0.8976
  179SLPC  C31320508   6.519   2.634   8.631 -0.1209 -0.2750  0.0599
  179SLPC  H13X20509   6.569   2.709   8.695 -0.1807  0.8296 -1.1570
  179SLPC  H13Y20510   6.408   2.634   8.645  0.0267 -0.3640  1.3374
  179SLPC  C31420511   6.562   2.661   8.490  0.1838 -0.5366 -0.1099
  179SLPC  H14X20512   6.503   2.598   8.419 -1.1591 -0.3598  0.8234
  179SLPC  H14Y20513   6.671   2.652   8.470  0.4078  1.9281 -0.3474
  179SLPC  C31520514   6.546   2.810   8.454  0.6777 -0.2814  0.3337
  179SLPC  H15X20515   6.603   2.866   8.532 -1.1465  1.6418  0.3875
  179SLPC  H15Y20516   6.440   2.845   8.457  0.6773 -0.1258 -0.9957
  179SLPC  C31620517   6.600   2.835   8.311  0.9010  0.3464  0.0614
  179SLPC  H16X20518   6.543   2.786   8.229  1.8259 -0.2282 -0.2597
  179SLPC  H16Y20519   6.703   2.793   8.305  1.0341  0.5667  0.7534
  179SLPC  C31720520   6.612   2.983   8.269  0.0731 -0.0463  0.4731
  179SLPC  H17X20521   6.663   3.044   8.346  0.5855 -1.6408  1.4420
  179SLPC  H17Y20522   6.510   3.025   8.254 -0.2558 -0.5698  1.1361
  179SLPC  C31820523   6.688   2.996   8.134 -0.3320 -0.2823  0.3064
  179SLPC  H18X20524   6.789   2.951   8.134  0.7639  2.0262 -0.2209
  179SLPC  H18Y20525   6.708   3.097   8.092  1.2898 -0.8940 -0.4740
  179SLPC  H18Z20526   6.640   2.946   8.048  0.4159  0.0319 -0.3006
  180SLPC     N20527   1.411   2.106  10.703  0.7178 -0.8299  0.3557
  180SLPC   C1320528   1.497   2.017  10.621  0.5257 -0.8865 -0.2808
  180SLPC  H13A20529   1.521   2.060  10.525 -2.2379 -0.2710 -0.7682
  180SLPC  H13B20530   1.580   1.986  10.682 -0.3179  2.3200  2.8609
  180SLPC  H13C20531   1.437   1.929  10.604 -1.5725  0.1865  1.1051
  180SLPC   C1420532   1.304   2.170  10.613 -0.2938 -0.8326 -0.1299
  180SLPC  H14A20533   1.349   2.240  10.544 -2.1815  1.5608  0.9245
  180SLPC  H14B20534   1.262   2.092  10.550  0.1446  0.3386 -1.9702
  180SLPC  H14C20535   1.232   2.225  10.671  0.4476 -1.4525  1.4275
  180SLPC   C1520536   1.501   2.213  10.753 -0.3754  0.6420 -0.5977
  180SLPC  H15A20537   1.575   2.166  10.816 -1.5216  2.5697  2.4544
  180SLPC  H15B20538   1.549   2.270  10.675  1.8016 -0.5735 -0.2099
  180SLPC  H15C20539   1.459   2.285  10.822  0.9579  0.4897  0.3971
  180SLPC   C1220540   1.355   2.036  10.816  0.5542 -0.6798  0.6320
  180SLPC  H12A20541   1.286   2.103  10.864  1.5721 -0.7666  2.3202
  180SLPC  H12B20542   1.442   2.023  10.879  2.9491  2.8357 -1.5792
  180SLPC   C1120543   1.294   1.900  10.792 -0.2661 -0.1937  0.7179
  180SLPC  H11A20544   1.276   1.858  10.893  4.1288 -1.6518  1.1008
  180SLPC  H11B20545   1.373   1.832  10.753  0.7088  0.6714  1.1228
  180SLPC     P20546   1.044   1.952  10.730 -0.0182  0.0245 -0.3142
  180SLPC   O1320547   0.988   1.898  10.853  0.2086  0.0772 -0.2027
  180SLPC   O1420548   1.031   2.098  10.715 -0.0439 -0.0908 -0.4689
  180SLPC   O1220549   1.188   1.898  10.701 -0.1663 -0.4225  0.3078
  180SLPC   O1120550   0.970   1.877  10.610  0.4155 -0.0866 -0.2934
  180SLPC    C120551   0.964   1.923  10.473  0.5855 -0.4123  0.2470
  180SLPC    HA20552   0.857   1.934  10.444  0.2352 -1.2131  1.1726
  180SLPC    HB20553   1.008   2.024  10.458  0.9985 -0.6241  0.0029
  180SLPC    C220554   1.013   1.818  10.372  0.1828 -1.1211  0.8340
  180SLPC    HS20555   0.942   1.734  10.386 -1.5065  0.2319  0.6989
  180SLPC   O2120556   1.138   1.766  10.403 -0.1445 -0.4496 -0.3660
  180SLPC   C2120557   1.237   1.852  10.390  0.3952 -0.7292  0.2091
  180SLPC   O2220558   1.235   1.974  10.363  0.3431  0.1724  0.7017
  180SLPC   C2220559   1.359   1.762  10.413 -0.5305  0.1652  0.5472
  180SLPC   H2R20560   1.441   1.836  10.420 -0.9848  0.5484  1.9844
  180SLPC   H2S20561   1.354   1.699  10.504  0.6657  1.2835  1.4175
  180SLPC    C320562   1.006   1.854  10.222 -1.1099 -0.2560  0.2077
  180SLPC    HX20563   1.069   1.941  10.193 -3.7578  1.7082 -0.0333
  180SLPC    HY20564   0.908   1.897  10.193 -0.1538 -0.6241 -4.4025
  180SLPC   O3120565   1.052   1.748  10.142 -0.3548 -0.4443 -0.0697
  180SLPC   C3120566   0.959   1.654  10.103  0.8709 -0.3097 -0.4354
  180SLPC   O3220567   0.843   1.660  10.139  0.5826 -0.4546  0.9050
  180SLPC   C3220568   1.021   1.554  10.012 -0.3585 -0.4151 -0.1948
  180SLPC   H2X20569   1.124   1.529  10.045 -1.0217 -0.4588  1.9557
  180SLPC   H2Y20570   1.027   1.598   9.910  0.5884  1.2072  0.5275
  180SLPC   C2320571   1.402   1.675  10.288 -0.5599  0.1600  0.6673
  180SLPC   H3R20572   1.334   1.589  10.275  1.3757 -1.6467  1.6923
  180SLPC   H3S20573   1.501   1.635  10.320 -1.4512 -2.4597  0.3663
  180SLPC   C2420574   1.417   1.754  10.164 -0.1114 -0.5788  0.6924
  180SLPC   H4R20575   1.488   1.830  10.203 -0.1344 -0.2877  0.1832
  180SLPC   H4S20576   1.321   1.804  10.138 -0.8097 -2.5364 -0.7256
  180SLPC   C2520577   1.472   1.673  10.049  0.0985  0.1415 -0.2146
  180SLPC   H5R20578   1.407   1.585  10.029  1.5373 -0.2430 -4.2929
  180SLPC   H5S20579   1.569   1.633  10.085  1.3834  1.4844 -2.0224
  180SLPC   C2620580   1.483   1.745   9.913  0.1944  0.0907  0.1665
  180SLPC   H6R20581   1.528   1.846   9.920 -1.8761  1.0692  0.1515
  180SLPC   H6S20582   1.382   1.767   9.872 -0.2169 -0.4467  0.8765
  180SLPC   C2720583   1.570   1.669   9.809 -0.2309 -0.5443  0.4168
  180SLPC   H7R20584   1.521   1.579   9.766  0.2369 -0.8600  0.5435
  180SLPC   H7S20585   1.655   1.635   9.871  0.8749 -1.3388 -1.4502
  180SLPC   C2820586   1.636   1.754   9.700 -0.6044  0.1124 -0.4251
  180SLPC   H8R20587   1.696   1.682   9.641 -2.0693 -0.3616 -1.4239
  180SLPC   H8S20588   1.711   1.829   9.734 -0.0617  0.4515 -2.2679
  180SLPC   C2920589   1.536   1.826   9.612  0.8076  0.2970  0.4822
  180SLPC   H9R20590   1.460   1.880   9.670 -0.6096 -0.5906 -0.4921
  180SLPC  C21020591   1.528   1.815   9.477  0.4291 -0.6084 -0.0219
  180SLPC  H10R20592   1.460   1.884   9.424  0.1603 -1.1107 -0.3333
  180SLPC  C21120593   1.627   1.730   9.391  0.1800 -0.2225 -0.6105
  180SLPC  H11R20594   1.568   1.681   9.311 -0.8796  0.5799 -0.3415
  180SLPC  H11S20595   1.662   1.642   9.448  2.0237  0.8597  0.0217
  180SLPC  C21220596   1.744   1.813   9.337 -0.0544 -0.5312  0.6813
  180SLPC  H12R20597   1.814   1.837   9.418 -2.7979  2.1056  2.5260
  180SLPC  C21320598   1.773   1.848   9.208  0.3457  0.6326 -0.1507
  180SLPC  H13R20599   1.850   1.925   9.200  2.0336 -1.0783 -1.0709
  180SLPC  C21420600   1.696   1.811   9.083  0.0871 -0.1860  0.1245
  180SLPC  H14R20601   1.645   1.713   9.095  0.8267 -0.6476 -0.3774
  180SLPC  H14S20602   1.761   1.793   8.995 -1.3362 -0.2288 -0.9374
  180SLPC  C21520603   1.601   1.920   9.043  0.1794 -0.7622 -0.2207
  180SLPC  H15R20604   1.558   1.964   9.135  1.7621  1.1060 -0.3188
  180SLPC  H15S20605   1.530   1.900   8.960  1.5317  1.9933 -2.2023
  180SLPC  C21620606   1.681   2.039   8.992  0.0686  0.0403  0.3091
  180SLPC  H16R20607   1.743   2.005   8.906 -1.4151  0.5133 -1.0122
  180SLPC  H16S20608   1.740   2.078   9.077 -1.2326 -2.1870  2.3556
  180SLPC  C21720609   1.589   2.151   8.950 -0.1555 -0.4493 -0.0210
  180SLPC  H17R20610   1.492   2.156   9.003  0.4117  1.3467  0.9463
  180SLPC  H17S20611   1.578   2.138   8.840  2.6061 -0.8661 -0.3229
  180SLPC  C21820612   1.658   2.287   8.956 -0.3185 -0.0046 -0.4813
  180SLPC  H18R20613   1.652   2.329   9.059 -1.6729 -2.3370  0.4668
  180SLPC  H18S20614   1.609   2.351   8.880 -1.7709 -0.0354  0.4013
  180SLPC  H18T20615   1.764   2.285   8.923 -0.0666  1.2138  0.1769
  180SLPC   C3320616   0.939   1.423  10.010 -0.2974 -0.5532  0.6130
  180SLPC   H3X20617   0.919   1.386  10.113 -1.6250 -0.1752  0.4995
  180SLPC   H3Y20618   0.999   1.339   9.970  1.5207  0.6654  0.6571
  180SLPC   C3420619   0.807   1.419   9.928 -0.0615 -0.4492  0.0037
  180SLPC   H4X20620   0.735   1.492   9.972 -0.6655 -0.8005 -0.3936
  180SLPC   H4Y20621   0.767   1.316   9.938 -1.4010  0.2080  2.1635
  180SLPC   C3520622   0.838   1.441   9.773 -0.1869 -0.3292 -0.4347
  180SLPC   H5X20623   0.769   1.371   9.721 -0.5211 -0.7508  0.5533
  180SLPC   H5Y20624   0.938   1.407   9.738 -1.1885 -1.2854 -2.5553
  180SLPC   C3620625   0.801   1.581   9.717  0.0189  0.0473 -0.6230
  180SLPC   H6X20626   0.815   1.662   9.792 -0.1933 -1.0095  0.5821
  180SLPC   H6Y20627   0.694   1.577   9.688 -0.4101  1.0341  0.6856
  180SLPC   C3720628   0.890   1.623   9.606 -0.5133  0.1599  0.2892
  180SLPC   H7X20629   0.996   1.610   9.636  0.3479  2.0996 -1.6559
  180SLPC   H7Y20630   0.876   1.731   9.582 -1.3126 -0.4082 -2.0856
  180SLPC   C3820631   0.863   1.538   9.488 -0.0636  0.4981  0.3366
  180SLPC   H8X20632   0.755   1.536   9.461  0.1218 -2.2853 -0.4735
  180SLPC   H8Y20633   0.893   1.434   9.509 -1.3424  0.1157  0.3950
  180SLPC   C3920634   0.941   1.574   9.353 -0.1876  0.3499  0.2465
  180SLPC   H9X20635   1.049   1.555   9.369 -0.2126  0.4295  0.5106
  180SLPC   H9Y20636   0.922   1.681   9.329  1.6561  1.0306  1.5444
  180SLPC  C31020637   0.899   1.488   9.234 -0.7188  0.2207 -0.1475
  180SLPC  H10X20638   0.789   1.473   9.232 -0.9043  1.4010  0.3677
  180SLPC  H10Y20639   0.943   1.387   9.250 -1.4178 -0.0700 -0.0023
  180SLPC  C31120640   0.934   1.555   9.102  0.0675  0.2480  0.0806
  180SLPC  H11X20641   1.041   1.582   9.104  0.1675 -0.1287 -0.1178
  180SLPC  H11Y20642   0.888   1.656   9.097  0.7633  0.5115 -1.6851
  180SLPC  C31220643   0.913   1.478   8.971 -0.0440 -0.6298 -0.3969
  180SLPC  H12X20644   0.805   1.494   8.951 -0.3719 -1.3584  0.6982
  180SLPC  H12Y20645   0.934   1.370   8.986 -1.2376 -1.0802 -1.8394
  180SLPC  C31320646   1.004   1.545   8.861  0.4534 -0.9634  0.3618
  180SLPC  H13X20647   1.110   1.544   8.894  1.1860 -2.3194 -1.8336
  180SLPC  H13Y20648   0.982   1.654   8.859 -0.0448 -1.0214  1.5374
  180SLPC  C31420649   0.987   1.489   8.722 -0.2335  0.1740  0.3596
  180SLPC  H14X20650   0.882   1.509   8.690 -0.0269 -0.9055 -1.1226
  180SLPC  H14Y20651   0.998   1.380   8.705  0.7585  0.3296 -0.0715
  180SLPC  C31520652   1.087   1.550   8.619 -0.1460 -0.1879 -0.0404
  180SLPC  H15X20653   1.193   1.517   8.629  0.6263  1.9669 -0.6102
  180SLPC  H15Y20654   1.092   1.658   8.644  0.1051 -0.0595 -0.6118
  180SLPC  C31620655   1.061   1.532   8.473 -0.0317 -0.2606 -0.3257
  180SLPC  H16X20656   1.060   1.424   8.449 -0.2099 -0.6429  1.2905
  180SLPC  H16Y20657   1.144   1.583   8.420  2.0199 -2.6883  0.3517
  180SLPC  C31720658   0.928   1.595   8.425  0.6401 -0.6564 -0.1780
  180SLPC  H17X20659   0.845   1.538   8.473 -0.2602  1.4354  0.8363
  180SLPC  H17Y20660   0.910   1.576   8.316  0.4812  0.3636 -0.3374
  180SLPC  C31820661   0.914   1.746   8.446  0.2474  0.4889 -0.1707
  180SLPC  H18X20662   0.813   1.785   8.420 -0.8649  0.5157  3.5991
  180SLPC  H18Y20663   0.991   1.793   8.380  0.9572 -2.4383 -1.6108
  180SLPC  H18Z20664   0.927   1.780   8.551  1.6284 -1.0905  0.2151
  181SLPC     N20665   2.679   4.284  10.928 -0.3307  0.0221  0.2832
  181SLPC   C1320666   2.594   4.361  11.029  0.7481 -0.1427 -0.0917
  181SLPC  H13A20667   2.635   4.460  11.045 -0.3075  0.2087  0.4795
  181SLPC  H13B20668   2.496   4.380  10.987  1.3413  4.1072 -0.0058
  181SLPC  H13C20669   2.590   4.309  11.124  0.0478 -1.8238 -0.9845
  181SLPC   C1420670   2.659   4.353  10.793 -0.1014  0.2608  0.0477
  181SLPC  H14A20671   2.727   4.312  10.719  1.3023  1.8603  0.3818
  181SLPC  H14B20672   2.564   4.340  10.744  0.0273  0.7760 -0.3395
  181SLPC  H14C20673   2.666   4.460  10.797  0.3963  0.1998  1.5885
  181SLPC   C1520674   2.646   4.141  10.942  0.3395  0.3672  0.1347
  181SLPC  H15A20675   2.699   4.076  10.874 -1.3393 -0.8348 -0.0718
  181SLPC  H15B20676   2.668   4.101  11.040 -1.6007  1.9503  1.3060
  181SLPC  H15C20677   2.546   4.118  10.909  0.9991 -0.5539 -1.3102
  181SLPC   C1220678   2.827   4.287  10.969 -0.3312 -0.3010 -0.8335
  181SLPC  H12A20679   2.897   4.248  10.897  0.6649  0.6255 -0.3882
  181SLPC  H12B20680   2.825   4.230  11.061 -3.0968  1.2277  0.1983
  181SLPC   C1120681   2.901   4.422  10.999 -0.0710  0.8135 -0.7430
  181SLPC  H11A20682   3.002   4.402  11.041  0.3477  3.9641  0.0414
  181SLPC  H11B20683   2.839   4.470  11.078  0.0642 -0.1585 -0.0232
  181SLPC     P20684   3.042   4.492  10.794  0.1199 -0.2563 -0.0657
  181SLPC   O1320685   3.156   4.450  10.875 -0.5252  0.4132  0.2463
  181SLPC   O1420686   3.003   4.409  10.679  0.0466  0.1252 -0.0752
  181SLPC   O1220687   2.915   4.503  10.887  0.0598 -0.4140  0.1485
  181SLPC   O1120688   3.049   4.647  10.751  0.6204 -0.1610  0.2912
  181SLPC    C120689   2.983   4.715  10.649  1.0050  0.4020  0.0646
  181SLPC    HA20690   2.874   4.690  10.653  1.3342 -0.9833  1.1299
  181SLPC    HB20691   2.986   4.824  10.669 -2.6622  0.8738 -1.1110
  181SLPC    C220692   3.041   4.698  10.509 -0.2494 -0.4934 -0.4735
  181SLPC    HS20693   3.024   4.596  10.467 -1.3314 -0.5345  0.0176
  181SLPC   O2120694   3.186   4.727  10.529  0.2522 -0.1798 -0.1160
  181SLPC   C2120695   3.272   4.692  10.438 -0.1966 -0.4061 -0.2982
  181SLPC   O2220696   3.243   4.611  10.351  0.2114 -0.2066 -0.5894
  181SLPC   C2220697   3.405   4.754  10.455 -0.6228  0.6233  0.3481
  181SLPC   H2R20698   3.448   4.733  10.555 -0.2855  0.2156  0.1240
  181SLPC   H2S20699   3.475   4.707  10.382  0.3016 -0.3468  1.8025
  181SLPC    C320700   2.975   4.809  10.420 -0.0982  0.6004  0.2416
  181SLPC    HX20701   2.991   4.909  10.465  0.4023  1.2961 -1.4027
  181SLPC    HY20702   2.865   4.793  10.423 -0.4898  2.6091 -1.4446
  181SLPC   O3120703   3.030   4.820  10.290  0.4098  0.2122  0.9380
  181SLPC   C3120704   2.963   4.758  10.190  0.5992  0.2647  0.5204
  181SLPC   O3220705   2.846   4.712  10.199 -1.0234  0.2024 -0.5054
  181SLPC   C3220706   3.065   4.738  10.074 -0.5123  0.0885 -0.6394
  181SLPC   H2X20707   3.025   4.647  10.025  0.4713 -1.3450  1.0628
  181SLPC   H2Y20708   3.167   4.718  10.116  0.0022  0.8764 -1.4801
  181SLPC   C2320709   3.417   4.910  10.416  0.1045 -0.2189  0.4206
  181SLPC   H3R20710   3.512   4.949  10.458 -0.0518  2.1046 -1.2334
  181SLPC   H3S20711   3.330   4.956  10.467 -0.9359  1.8560 -2.8741
  181SLPC   C2420712   3.413   4.926  10.265 -0.4675 -0.8189 -0.5468
  181SLPC   H4R20713   3.399   5.035  10.246 -0.9156 -0.3356  2.1573
  181SLPC   H4S20714   3.331   4.874  10.213 -0.5817 -1.3497  0.1505
  181SLPC   C2520715   3.547   4.897  10.190  0.3527 -0.1663  0.4986
  181SLPC   H5R20716   3.554   4.788  10.170 -0.7613 -0.3590  1.0810
  181SLPC   H5S20717   3.632   4.935  10.251  1.5366  0.9523 -1.6744
  181SLPC   C2620718   3.561   4.978  10.059  1.0539 -0.2665  0.7170
  181SLPC   H6R20719   3.665   5.003  10.029  0.7137 -1.1853 -1.3950
  181SLPC   H6S20720   3.514   5.077  10.075 -2.9405 -2.4178  4.1622
  181SLPC   C2720721   3.494   4.906   9.944  0.2491 -0.0883 -0.0874
  181SLPC   H7R20722   3.386   4.903   9.970  0.0479 -0.0764 -0.8867
  181SLPC   H7S20723   3.540   4.806   9.934 -1.1124 -0.7641  0.1403
  181SLPC   C2820724   3.518   4.986   9.813 -0.6431  0.7556  0.7312
  181SLPC   H8R20725   3.492   5.094   9.820  1.2242  1.7832 -4.2972
  181SLPC   H8S20726   3.455   4.935   9.738  1.6989 -1.2700 -0.0071
  181SLPC   C2920727   3.662   4.983   9.769 -0.7981 -0.7831 -0.6161
  181SLPC   H9R20728   3.730   5.043   9.831 -1.7368 -1.5053  1.1858
  181SLPC  C21020729   3.704   4.927   9.653 -0.7612  0.2863  0.2024
  181SLPC  H10R20730   3.811   4.941   9.630 -0.7688  1.4263  0.7648
  181SLPC  C21120731   3.620   4.857   9.547 -0.2020  0.4363 -0.1590
  181SLPC  H11R20732   3.548   4.789   9.597 -0.8965  0.6335 -0.8692
  181SLPC  H11S20733   3.689   4.787   9.496 -1.6053 -0.9368 -0.2347
  181SLPC  C21220734   3.561   4.966   9.459  0.3523  0.4021 -0.6789
  181SLPC  H12R20735   3.491   5.039   9.501 -1.0306 -0.8619 -0.7154
  181SLPC  C21320736   3.595   4.977   9.332  0.8137 -0.1604 -0.6070
  181SLPC  H13R20737   3.550   5.061   9.277  1.5471  0.1392 -0.7549
  181SLPC  C21420738   3.706   4.898   9.271 -0.6415 -0.2680  0.8120
  181SLPC  H14R20739   3.663   4.799   9.247 -0.1228 -0.8873  2.3339
  181SLPC  H14S20740   3.795   4.889   9.338  1.3806  2.8280 -1.1897
  181SLPC  C21520741   3.769   4.957   9.141  0.0744  0.2341  0.0252
  181SLPC  H15R20742   3.863   4.901   9.120  0.1992  0.7116 -0.7271
  181SLPC  H15S20743   3.798   5.063   9.162  0.2288  0.3027 -0.5253
  181SLPC  C21620744   3.676   4.950   9.019  0.9472 -0.6590  0.7736
  181SLPC  H16R20745   3.605   5.034   9.003  0.4400 -0.8134  2.0327
  181SLPC  H16S20746   3.616   4.858   9.031 -0.8246  0.3621  0.0340
  181SLPC  C21720747   3.744   4.933   8.880  0.1344  0.4384  0.0675
  181SLPC  H17R20748   3.797   4.835   8.870 -0.4211  0.1302  0.1245
  181SLPC  H17S20749   3.814   5.019   8.869  1.4371 -0.4717  0.9437
  181SLPC  C21820750   3.648   4.944   8.762 -0.3106  0.6621 -0.4410
  181SLPC  H18R20751   3.711   4.969   8.674 -1.9896  1.9808 -1.3475
  181SLPC  H18S20752   3.562   5.012   8.778 -0.3235  0.6793 -0.5764
  181SLPC  H18T20753   3.611   4.840   8.747  2.7668 -0.7121  0.6456
  181SLPC   C3320754   3.062   4.859   9.976  0.8632 -0.4940  0.3919
  181SLPC   H3X20755   3.121   4.943  10.018  0.6832 -0.2844  0.2271
  181SLPC   H3Y20756   2.958   4.897   9.968  1.5440  1.2556 -0.4288
  181SLPC   C3420757   3.125   4.836   9.840  0.1351 -0.0614  0.3455
  181SLPC   H4X20758   3.069   4.755   9.789 -1.2182  0.4608  0.9539
  181SLPC   H4Y20759   3.234   4.814   9.849  0.3720  0.8950 -0.0378
  181SLPC   C3520760   3.102   4.965   9.756 -0.4940 -0.0205 -0.7578
  181SLPC   H5X20761   3.143   5.054   9.809 -0.6134 -0.0400 -0.6312
  181SLPC   H5Y20762   2.991   4.973   9.757 -0.7836 -2.6283  1.8612
  181SLPC   C3620763   3.158   4.964   9.612 -0.0361  0.8955 -0.7468
  181SLPC   H6X20764   3.120   4.872   9.562  0.0999  0.1532  0.4890
  181SLPC   H6Y20765   3.268   4.958   9.599 -0.2112  1.2541 -2.6895
  181SLPC   C3720766   3.120   5.086   9.529  0.1297 -0.3890  0.6071
  181SLPC   H7X20767   3.201   5.162   9.532  2.4955 -2.7293 -0.5225
  181SLPC   H7Y20768   3.039   5.139   9.583 -2.1707 -1.1645 -1.8333
  181SLPC   C3820769   3.076   5.057   9.383  0.6717  0.0548 -0.2572
  181SLPC   H8X20770   2.995   5.128   9.355  0.0570  0.4036  2.1588
  181SLPC   H8Y20771   3.026   4.958   9.390  2.0775 -0.6246  0.8295
  181SLPC   C3920772   3.193   5.053   9.286  0.0760  1.0632  0.5054
  181SLPC   H9X20773   3.275   4.997   9.335  0.6683  1.2528 -0.2541
  181SLPC   H9Y20774   3.234   5.153   9.261  1.4419 -0.0677 -2.1256
  181SLPC  C31020775   3.164   4.986   9.158  0.1066  0.2326  0.6913
  181SLPC  H10X20776   3.126   5.064   9.089  2.5020  2.2261  1.4781
  181SLPC  H10Y20777   3.089   4.905   9.169 -1.4725  1.5208 -0.0900
  181SLPC  C31120778   3.290   4.914   9.115 -0.0367  0.4367  0.3785
  181SLPC  H11X20779   3.356   4.874   9.195  0.9658  0.7082 -0.2882
  181SLPC  H11Y20780   3.355   4.985   9.060  0.8984  0.1475  1.0851
  181SLPC  C31220781   3.264   4.797   9.017 -0.4028  0.4237 -0.0692
  181SLPC  H12X20782   3.195   4.725   9.066 -1.3974  0.2977 -1.5968
  181SLPC  H12Y20783   3.351   4.737   8.985 -1.6979 -0.6375 -1.7400
  181SLPC  C31320784   3.193   4.833   8.890  0.4139 -0.1500 -0.3640
  181SLPC  H13X20785   3.260   4.900   8.832  0.9104 -1.9420 -1.9679
  181SLPC  H13Y20786   3.102   4.887   8.922  0.0497 -0.2231 -1.2565
  181SLPC  C31420787   3.150   4.730   8.789 -0.5030  0.0352 -0.6290
  181SLPC  H14X20788   3.051   4.684   8.812 -0.0060 -0.3292  0.8668
  181SLPC  H14Y20789   3.235   4.662   8.768  1.9557  2.8850 -0.5739
  181SLPC  C31520790   3.135   4.792   8.644  0.0339 -0.4427  0.2895
  181SLPC  H15X20791   3.097   4.896   8.650 -0.0651 -0.3374 -1.6403
  181SLPC  H15Y20792   3.061   4.728   8.591 -0.4917  0.2590  0.1628
  181SLPC  C31620793   3.267   4.781   8.565 -0.6873 -0.0546 -0.1173
  181SLPC  H16X20794   3.302   4.676   8.578 -1.3281 -0.0023  2.8972
  181SLPC  H16Y20795   3.335   4.849   8.622  0.1250 -0.5173 -0.5130
  181SLPC  C31720796   3.248   4.829   8.420 -0.3377 -1.3677 -0.0625
  181SLPC  H17X20797   3.234   4.940   8.419  0.5261 -1.1765 -3.2775
  181SLPC  H17Y20798   3.155   4.787   8.374 -0.6194  0.0265 -0.8438
  181SLPC  C31820799   3.371   4.798   8.324 -0.4644 -0.2790  0.9139
  181SLPC  H18X20800   3.364   4.696   8.282 -0.0861  1.4472 -3.9387
  181SLPC  H18Y20801   3.467   4.817   8.377  0.7178  1.6401 -1.6885
  181SLPC  H18Z20802   3.362   4.879   8.248  0.1318  0.3087  1.4470
  182SLPC     N20803   0.621   6.484  11.002 -0.3256  0.3171  0.4655
  182SLPC   C1320804   0.643   6.479  11.153 -0.2710 -0.8362  0.2896
  182SLPC  H13A20805   0.707   6.399  11.185 -0.1224 -1.1628 -0.7817
  182SLPC  H13B20806   0.674   6.572  11.198  0.0747 -0.7230 -0.1717
  182SLPC  H13C20807   0.547   6.456  11.197  1.1229 -0.1676  4.0431
  182SLPC   C1420808   0.544   6.605  10.972 -0.0066  0.4709  0.0925
  182SLPC  H14A20809   0.523   6.620  10.867 -1.9551  1.2832  0.5603
  182SLPC  H14B20810   0.454   6.596  11.031  1.0865 -0.0031  1.7587
  182SLPC  H14C20811   0.600   6.692  11.003  1.9794 -1.3020  1.8833
  182SLPC   C1520812   0.543   6.355  10.963 -0.0032 -0.1465 -0.5198
  182SLPC  H15A20813   0.596   6.265  10.990 -0.0182  0.4180  1.6076
  182SLPC  H15B20814   0.456   6.349  11.026 -0.0687  0.6825 -0.5138
  182SLPC  H15C20815   0.525   6.364  10.857  1.9906  0.3109 -0.8692
  182SLPC   C1220816   0.751   6.479  10.925 -0.4673 -0.3733 -0.9678
  182SLPC  H12A20817   0.801   6.385  10.943  1.9190  0.5138 -2.5255
  182SLPC  H12B20818   0.816   6.560  10.954  1.6498 -1.8123 -1.4736
  182SLPC   C1120819   0.738   6.470  10.766 -0.2713 -0.1593  0.2967
  182SLPC  H11A20820   0.829   6.515  10.720  0.3734  1.1055  2.6113
  182SLPC  H11B20821   0.667   6.548  10.732  0.0435  0.0106  0.0233
  182SLPC     P20822   0.825   6.242  10.677 -0.3814  0.1494  0.0419
  182SLPC   O1320823   0.953   6.312  10.696  0.2666 -0.0017  0.4411
  182SLPC   O1420824   0.808   6.114  10.751 -0.6955 -0.5799 -0.4889
  182SLPC   O1220825   0.709   6.340  10.715  0.7059 -0.3346  0.2671
  182SLPC   O1120826   0.808   6.217  10.526  0.1301 -0.2549 -0.0614
  182SLPC    C120827   0.757   6.317  10.434 -0.8775  0.2919 -0.0505
  182SLPC    HA20828   0.681   6.265  10.372 -2.7095  0.9696  1.5032
  182SLPC    HB20829   0.701   6.398  10.486  2.0001  2.1248  0.3824
  182SLPC    C220830   0.861   6.393  10.336 -0.1573  0.1490 -0.3648
  182SLPC    HS20831   0.806   6.456  10.263 -1.6111 -1.0173 -0.3437
  182SLPC   O2120832   0.949   6.294  10.275 -0.3911 -0.3624 -0.7944
  182SLPC   C2120833   0.905   6.248  10.164  0.3255  0.5344  0.3395
  182SLPC   O2220834   0.791   6.270  10.118 -0.0983  0.0738  0.2979
  182SLPC   C2220835   1.009   6.159  10.095  0.5083  1.0230  0.6058
  182SLPC   H2R20836   1.108   6.187  10.135  1.0584 -1.3683  1.0604
  182SLPC   H2S20837   0.979   6.053  10.106  1.7190  0.2750 -2.5066
  182SLPC    C320838   0.961   6.487  10.418  0.0312 -0.2587  1.0704
  182SLPC    HX20839   1.012   6.406  10.474  0.0151 -1.4680 -0.5802
  182SLPC    HY20840   0.910   6.544  10.498  2.5142  0.5293  2.1889
  182SLPC   O3120841   1.054   6.566  10.327 -0.2800  0.2816  0.0158
  182SLPC   C3120842   1.180   6.531  10.336 -0.2655  0.1282  0.2851
  182SLPC   O3220843   1.226   6.436  10.396 -0.0817 -0.1545  0.4425
  182SLPC   C3220844   1.256   6.612  10.235 -0.3720 -0.9969 -0.0827
  182SLPC   H2X20845   1.285   6.712  10.273 -1.0525 -1.0984  0.7515
  182SLPC   H2Y20846   1.184   6.627  10.153 -1.2891  1.5395  1.0907
  182SLPC   C2320847   1.006   6.180   9.940 -0.7990 -0.6513 -0.1988
  182SLPC   H3R20848   1.062   6.271   9.910 -0.2572 -1.8248 -3.0805
  182SLPC   H3S20849   0.902   6.203   9.905  0.2078  2.1001 -1.6696
  182SLPC   C2420850   1.064   6.059   9.850 -0.0752  0.5278 -0.2553
  182SLPC   H4R20851   1.006   5.967   9.875  0.6411 -0.5424 -2.3119
  182SLPC   H4S20852   1.164   6.034   9.892  0.0714  0.1884 -0.8069
  182SLPC   C2520853   1.072   6.084   9.698 -0.1486 -0.2570  0.4526
  182SLPC   H5R20854   1.121   5.995   9.653  0.8101  0.6885 -0.4536
  182SLPC   H5S20855   1.135   6.174   9.682 -0.2678 -0.1445  0.6239
  182SLPC   C2620856   0.939   6.090   9.629  0.6820 -0.1837  0.3337
  182SLPC   H6R20857   0.869   6.161   9.679  0.7323  0.1755 -0.1050
  182SLPC   H6S20858   0.888   5.993   9.647  1.1339 -0.3829  0.5742
  182SLPC   C2720859   0.954   6.129   9.483 -0.4111 -0.6599  0.0658
  182SLPC   H7R20860   1.037   6.079   9.429  0.2139 -0.8890  1.1895
  182SLPC   H7S20861   0.981   6.237   9.482 -0.5150 -0.6007 -2.7587
  182SLPC   C2820862   0.820   6.119   9.404 -0.6423 -0.1043 -0.7535
  182SLPC   H8R20863   0.750   6.183   9.461 -1.9228 -1.9292 -0.1806
  182SLPC   H8S20864   0.788   6.014   9.422  0.5873 -0.7865 -2.3488
  182SLPC   C2920865   0.830   6.157   9.261 -0.0542 -0.1383  0.1235
  182SLPC   H9R20866   0.863   6.260   9.237 -1.9349  0.2630 -0.9059
  182SLPC  C21020867   0.808   6.068   9.162 -0.0419 -0.0108 -0.1537
  182SLPC  H10R20868   0.816   6.104   9.058  1.4132  0.1772  0.0079
  182SLPC  C21120869   0.774   5.923   9.167  0.8873 -0.1236  0.6175
  182SLPC  H11R20870   0.785   5.880   9.269 -0.4206 -3.3912 -0.4754
  182SLPC  H11S20871   0.846   5.866   9.105 -0.5474 -0.9772 -0.3078
  182SLPC  C21220872   0.633   5.901   9.130  0.1253 -0.3089  0.2030
  182SLPC  H12R20873   0.558   5.916   9.210  0.9820  0.6245  0.8419
  182SLPC  C21320874   0.587   5.857   9.013 -0.3091  0.2392  0.2088
  182SLPC  H13R20875   0.478   5.844   9.006 -0.6300  0.4752  3.2065
  182SLPC  C21420876   0.672   5.824   8.887  0.0334 -0.3512 -0.2231
  182SLPC  H14R20877   0.779   5.806   8.911  0.3852  4.2715  2.9355
  182SLPC  H14S20878   0.695   5.921   8.837  0.4510  0.4750  1.4986
  182SLPC  C21520879   0.617   5.719   8.788 -0.1401  0.3456 -0.6555
  182SLPC  H15R20880   0.653   5.739   8.685 -0.4896 -1.3636 -1.1268
  182SLPC  H15S20881   0.507   5.718   8.782 -0.6641  0.2910  4.3508
  182SLPC  C21620882   0.676   5.581   8.836  0.4339 -0.8583  0.5103
  182SLPC  H16R20883   0.631   5.551   8.932  0.1990  0.1338  0.7252
  182SLPC  H16S20884   0.786   5.592   8.847  0.6279  1.1531 -2.3613
  182SLPC  C21720885   0.660   5.483   8.717  0.1232  0.2239 -0.0897
  182SLPC  H17R20886   0.706   5.386   8.746 -2.1840 -0.5542  1.2685
  182SLPC  H17S20887   0.716   5.526   8.631 -0.1742 -2.2474 -1.5902
  182SLPC  C21820888   0.519   5.467   8.669 -0.1319  0.0417 -0.0466
  182SLPC  H18R20889   0.521   5.372   8.612  1.8983 -0.0513  0.1034
  182SLPC  H18S20890   0.479   5.550   8.606 -2.6141 -1.0513 -0.0406
  182SLPC  H18T20891   0.451   5.455   8.756 -0.6282  0.8570 -0.2997
  182SLPC   C3320892   1.380   6.527  10.198 -0.2484 -0.2326 -0.2178
  182SLPC   H3X20893   1.351   6.426  10.160  0.5881 -0.5019 -0.1536
  182SLPC   H3Y20894   1.449   6.510  10.283  1.8909  1.9655 -1.4045
  182SLPC   C3420895   1.472   6.583  10.088 -0.3969 -0.1398  0.5478
  182SLPC   H4X20896   1.535   6.499  10.051 -0.3388 -0.2508  0.9010
  182SLPC   H4Y20897   1.546   6.652  10.133  0.8511 -0.1195 -1.4069
  182SLPC   C3520898   1.403   6.631   9.958  0.0586  0.3097  0.4557
  182SLPC   H5X20899   1.353   6.729   9.972 -2.0299 -0.7519  0.9815
  182SLPC   H5Y20900   1.320   6.560   9.935 -0.0322  0.9210 -1.2105
  182SLPC   C3620901   1.494   6.648   9.834  0.0698 -0.0343  0.2551
  182SLPC   H6X20902   1.536   6.551   9.801  1.3559  0.6701 -0.2575
  182SLPC   H6Y20903   1.587   6.703   9.859  0.0174  0.2302 -0.1239
  182SLPC   C3720904   1.428   6.718   9.712  0.4018  0.4553 -0.2834
  182SLPC   H7X20905   1.368   6.800   9.757  1.0245  0.2430  0.9863
  182SLPC   H7Y20906   1.357   6.646   9.667  0.6824  0.7624 -1.2575
  182SLPC   C3820907   1.530   6.772   9.609  0.4020 -0.0475  0.3849
  182SLPC   H8X20908   1.583   6.682   9.571 -2.8879 -1.4242 -1.3970
  182SLPC   H8Y20909   1.609   6.828   9.664 -1.7876  0.5089  3.2205
  182SLPC   C3920910   1.464   6.851   9.491 -0.7939 -0.0394  0.4059
  182SLPC   H9X20911   1.470   6.958   9.521  0.5638 -0.5713  2.1953
  182SLPC   H9Y20912   1.356   6.832   9.478 -1.8969  4.4291  1.2485
  182SLPC  C31020913   1.520   6.808   9.353 -0.3276 -0.1344  0.4839
  182SLPC  H10X20914   1.503   6.699   9.344  1.3155 -0.4628  1.0846
  182SLPC  H10Y20915   1.629   6.818   9.370 -0.4406 -0.6660  1.5792
  182SLPC  C31120916   1.464   6.877   9.236  0.2961  0.0367  0.2032
  182SLPC  H11X20917   1.464   6.985   9.262 -2.8415 -0.1038  1.3200
  182SLPC  H11Y20918   1.357   6.852   9.218 -0.8680  3.8472  1.0134
  182SLPC  C31220919   1.547   6.856   9.101 -0.4479 -0.0177  0.0988
  182SLPC  H12X20920   1.571   6.748   9.091 -0.4359 -0.1645  1.4332
  182SLPC  H12Y20921   1.638   6.918   9.111 -1.4744  1.4686  0.4184
  182SLPC  C31320922   1.464   6.904   8.984  0.7361  0.8315 -0.1553
  182SLPC  H13X20923   1.450   7.014   8.996 -0.1942  0.8621 -1.2905
  182SLPC  H13Y20924   1.366   6.852   8.995  0.0216  2.4132  1.6603
  182SLPC  C31420925   1.523   6.893   8.845 -0.5003 -0.1462  0.0788
  182SLPC  H14X20926   1.617   6.950   8.834 -0.2408 -0.9628 -2.8256
  182SLPC  H14Y20927   1.459   6.953   8.777 -0.9990 -0.5057  0.2252
  182SLPC  C31520928   1.542   6.746   8.798  0.4487  0.0640 -0.4980
  182SLPC  H15X20929   1.446   6.693   8.820  0.0483  1.1650  0.5624
  182SLPC  H15Y20930   1.630   6.701   8.848  0.4498 -0.2022 -0.7389
  182SLPC  C31620931   1.558   6.740   8.642 -0.6150  0.7058 -0.3928
  182SLPC  H16X20932   1.625   6.826   8.622 -1.8767  2.2083  1.5405
  182SLPC  H16Y20933   1.462   6.761   8.590 -0.3318  1.8229 -0.4861
  182SLPC  C31720934   1.592   6.590   8.607 -0.8028 -0.6830  0.0608
  182SLPC  H17X20935   1.524   6.519   8.658  0.4475 -1.4101  0.7768
  182SLPC  H17Y20936   1.693   6.563   8.646 -0.8339  2.1119  2.3980
  182SLPC  C31820937   1.570   6.554   8.458  0.0030 -0.3299 -0.5579
  182SLPC  H18X20938   1.635   6.607   8.384 -0.9232  1.0092 -0.4486
  182SLPC  H18Y20939   1.468   6.585   8.427  0.1804 -1.2411 -2.1431
  182SLPC  H18Z20940   1.575   6.443   8.454 -2.8443 -0.6787  2.1859
  183SLPC     N20941   3.343   0.783  10.668  0.2087 -0.4293  0.8456
  183SLPC   C1320942   3.376   0.921  10.609  0.3480  0.5321 -0.1102
  183SLPC  H13A20943   3.451   0.917  10.532  0.5621  1.3915  0.0495
  183SLPC  H13B20944   3.288   0.966  10.566  0.8477  1.1642 -0.4882
  183SLPC  H13C20945   3.437   0.967  10.686  0.5016  0.8331 -0.4118
  183SLPC   C1420946   3.244   0.813  10.780 -0.0789  0.4559 -0.4054
  183SLPC  H14A20947   3.209   0.717  10.813  1.7618 -1.5467 -3.7504
  183SLPC  H14B20948   3.295   0.853  10.867 -0.4129 -2.1594  1.0800
  183SLPC  H14C20949   3.161   0.878  10.756  0.1320  0.9730  0.2115
  183SLPC   C1520950   3.459   0.718  10.725 -0.2493  0.0747 -0.1863
  183SLPC  H15A20951   3.536   0.689  10.655 -1.5639 -1.4308 -1.0958
  183SLPC  H15B20952   3.500   0.774  10.807 -2.2752 -0.2317  1.0927
  183SLPC  H15C20953   3.420   0.627  10.769 -2.8791  0.9717 -0.5094
  183SLPC   C1220954   3.284   0.697  10.548  0.4314  0.4078 -0.0166
  183SLPC  H12A20955   3.288   0.591  10.568  0.1575  0.0863 -1.5327
  183SLPC  H12B20956   3.353   0.714  10.467  0.4802  1.3685  0.2092
  183SLPC   C1120957   3.137   0.719  10.505 -0.7650  0.1022  0.2446
  183SLPC  H11A20958   3.118   0.664  10.411 -0.6244 -0.0319  0.2954
  183SLPC  H11B20959   3.115   0.823  10.474  2.1782  0.2498 -1.6553
  183SLPC     P20960   3.046   0.529  10.648 -0.3019  0.2504 -0.4881
  183SLPC   O1320961   3.120   0.443  10.548  0.7596  0.2855  0.3339
  183SLPC   O1420962   3.090   0.523  10.794 -0.1426 -0.4192  0.3699
  183SLPC   O1220963   3.039   0.674  10.599 -0.1386  0.4342 -0.0357
  183SLPC   O1120964   2.899   0.487  10.648  0.7145 -0.2973 -0.2968
  183SLPC    C120965   2.850   0.398  10.541  0.2209  0.3455 -0.6391
  183SLPC    HA20966   2.928   0.327  10.507 -0.2617  0.1653 -1.3855
  183SLPC    HB20967   2.764   0.340  10.581  1.2840 -0.3950  0.6371
  183SLPC    C220968   2.794   0.470  10.412 -0.2546  1.0707  0.2386
  183SLPC    HS20969   2.724   0.400  10.361  1.8371 -0.7406 -0.2639
  183SLPC   O2120970   2.902   0.517  10.322  0.2167  0.7451 -0.3631
  183SLPC   C2120971   2.969   0.416  10.264 -0.2232 -0.8085 -0.4305
  183SLPC   O2220972   2.939   0.299  10.277 -0.3535 -0.0901  0.2519
  183SLPC   C2220973   3.077   0.484  10.179 -0.7680  0.2410  0.3117
  183SLPC   H2R20974   3.070   0.595  10.181 -0.2462  0.2838 -0.1809
  183SLPC   H2S20975   3.169   0.446  10.230  0.0004  2.8726  1.0553
  183SLPC    C320976   2.713   0.597  10.454 -0.3645  1.0237 -0.1160
  183SLPC    HX20977   2.774   0.662  10.521  1.3378 -0.0866 -0.5431
  183SLPC    HY20978   2.628   0.567  10.519  1.2921 -2.5542  0.6072
  183SLPC   O3120979   2.666   0.680  10.347 -0.4913  0.1639 -0.4247
  183SLPC   C3120980   2.748   0.778  10.303 -0.7188  0.2475 -0.0526
  183SLPC   O3220981   2.837   0.833  10.366 -0.2718  0.2547 -0.3630
  183SLPC   C3220982   2.725   0.812  10.155  0.1680  0.8228  0.1204
  183SLPC   H2X20983   2.615   0.829  10.148 -0.1729 -1.0415  0.4384
  183SLPC   H2Y20984   2.759   0.724  10.096  0.3699  0.6416  0.4991
  183SLPC   C2320985   3.064   0.434  10.029  0.4400 -0.2348  0.2900
  183SLPC   H3R20986   3.011   0.338  10.011 -0.6133  0.5823 -1.1807
  183SLPC   H3S20987   3.162   0.421   9.979  0.1634 -1.6761  0.0728
  183SLPC   C2420988   2.980   0.532   9.938 -0.1043 -0.0990 -0.2612
  183SLPC   H4R20989   3.043   0.623   9.930 -0.7918  0.4871  0.8712
  183SLPC   H4S20990   2.879   0.552   9.980 -0.6717 -1.4720 -0.8743
  183SLPC   C2520991   2.969   0.484   9.789  0.0795 -0.4425 -0.4121
  183SLPC   H5R20992   3.071   0.479   9.747 -1.3246  2.6860 -4.9615
  183SLPC   H5S20993   2.917   0.565   9.734 -0.3235 -0.7146 -0.4394
  183SLPC   C2620994   2.899   0.349   9.759  0.4279 -0.0687 -0.2283
  183SLPC   H6R20995   2.792   0.355   9.789  0.4142 -1.8489  0.2243
  183SLPC   H6S20996   2.952   0.267   9.812 -0.4521 -1.6755 -1.7362
  183SLPC   C2720997   2.907   0.319   9.607  0.5350 -0.6123 -1.0045
  183SLPC   H7R20998   3.010   0.345   9.577  1.0441 -1.1232  0.2318
  183SLPC   H7S20999   2.838   0.395   9.564  1.9670  1.1497 -0.3175
  183SLPC   C2821000   2.886   0.183   9.567 -0.2532  0.5334  0.3143
  183SLPC   H8R21001   2.780   0.166   9.594  0.3931 -1.8324  1.6637
  183SLPC   H8S21002   2.945   0.111   9.629 -0.8580 -0.7082 -0.5080
  183SLPC   C2921003   2.925   0.168   9.419  0.0526  0.0364 -0.2290
  183SLPC   H9R21004   3.025   0.201   9.386 -0.6277  0.6852 -1.7669
  183SLPC  C21021005   2.837   0.129   9.323 -0.1830  0.7012  0.1930
  183SLPC  H10R21006   2.873   0.108   9.221 -1.3067  2.6755 -0.6469
  183SLPC  C21121007   2.692   0.091   9.350  0.0054 -0.2826  0.5042
  183SLPC  H11R21008   2.685  -0.003   9.409 -1.0772 -0.9172 -0.5911
  183SLPC  H11S21009   2.640   0.069   9.254 -1.3032  0.5406  0.9895
  183SLPC  C21221010   2.614   0.206   9.405  0.6237  0.4100  0.2597
  183SLPC  H12R21011   2.651   0.299   9.362  0.9328 -0.1104 -0.6249
  183SLPC  C21321012   2.504   0.201   9.477 -0.1500 -0.2412  0.3376
  183SLPC  H13R21013   2.443   0.289   9.503 -0.7805 -0.6009  0.0905
  183SLPC  C21421014   2.442   0.083   9.533  0.0699 -0.0455  0.0291
  183SLPC  H14R21015   2.493  -0.006   9.489 -1.2276  0.0918 -1.8493
  183SLPC  H14S21016   2.339   0.073   9.493  0.0992 -0.8022  0.1215
  183SLPC  C21521017   2.449   0.076   9.682  0.8563  0.4325 -0.0662
  183SLPC  H15R21018   2.404   0.173   9.713  0.1378 -0.1286  0.7003
  183SLPC  H15S21019   2.555   0.085   9.715  0.4522  2.5151  0.8207
  183SLPC  C21621020   2.386  -0.046   9.743 -0.2402  0.3074 -0.3460
  183SLPC  H16R21021   2.433  -0.144   9.722 -1.4342 -0.4984  0.6243
  183SLPC  H16S21022   2.280  -0.051   9.710 -0.8184 -4.7479  1.4033
  183SLPC  C21721023   2.390  -0.036   9.897 -0.3173 -0.8595  0.1107
  183SLPC  H17R21024   2.344   0.058   9.934  0.3288  0.2940 -1.9117
  183SLPC  H17S21025   2.497  -0.035   9.927 -0.5182  1.3696  0.9246
  183SLPC  C21821026   2.322  -0.158   9.971 -0.0102 -0.0317 -0.0363
  183SLPC  H18R21027   2.211  -0.162   9.974 -0.0436  0.8060  2.8965
  183SLPC  H18S21028   2.376  -0.186  10.064  0.3192  1.0377  0.1042
  183SLPC  H18T21029   2.353  -0.243   9.906  2.4333  1.6135 -1.1833
  183SLPC   C3321030   2.808   0.931  10.112 -0.1198 -0.5200 -0.2502
  183SLPC   H3X21031   2.916   0.922  10.135 -0.1573  1.9486  1.2171
  183SLPC   H3Y21032   2.772   1.016  10.173  2.0642  0.4950 -0.2835
  183SLPC   C3421033   2.784   0.974   9.963  0.0670  0.6707  0.3336
  183SLPC   H4X21034   2.842   1.066   9.943 -1.2783  1.3380 -0.6720
  183SLPC   H4Y21035   2.676   0.994   9.946  0.1624  2.6585  1.7512
  183SLPC   C3521036   2.837   0.880   9.855  0.0952  0.5469  0.4957
  183SLPC   H5X21037   2.761   0.799   9.848  0.6257  0.1071 -0.2632
  183SLPC   H5Y21038   2.932   0.837   9.894 -0.8550 -2.0491  0.1457
  183SLPC   C3621039   2.857   0.947   9.717  0.0718 -0.6349  1.4256
  183SLPC   H6X21040   2.926   1.033   9.727  2.1446 -1.5332 -2.7517
  183SLPC   H6Y21041   2.762   0.991   9.680  1.7397  0.4639 -2.0335
  183SLPC   C3721042   2.911   0.859   9.598  0.1139 -0.3444 -0.3589
  183SLPC   H7X21043   2.923   0.922   9.507 -1.5263 -0.4285 -0.6745
  183SLPC   H7Y21044   2.832   0.782   9.582  1.7885 -2.3079  0.3789
  183SLPC   C3821045   3.042   0.793   9.620 -0.3358  0.0831 -0.3836
  183SLPC   H8X21046   3.032   0.733   9.713 -1.5615  0.8651  0.0177
  183SLPC   H8Y21047   3.119   0.872   9.630 -0.7228  0.2480  1.9354
  183SLPC   C3921048   3.084   0.696   9.510 -0.0602 -0.1486  0.2571
  183SLPC   H9X21049   3.000   0.627   9.491 -0.8218  0.4911  1.2065
  183SLPC   H9Y21050   3.158   0.633   9.566 -0.8429  0.3231  1.8809
  183SLPC  C31021051   3.139   0.750   9.381 -0.0746  0.2105 -0.2351
  183SLPC  H10X21052   3.220   0.822   9.408  0.6932 -0.1159 -1.5462
  183SLPC  H10Y21053   3.061   0.802   9.320 -0.5357 -1.0943 -0.7824
  183SLPC  C31121054   3.199   0.651   9.282  0.3325  0.3883  0.1757
  183SLPC  H11X21055   3.296   0.619   9.325  0.6574  1.4408  0.2311
  183SLPC  H11Y21056   3.222   0.707   9.189 -0.3389  3.0356  1.5062
  183SLPC  C31221057   3.119   0.533   9.234  0.7162 -0.4423 -0.0175
  183SLPC  H12X21058   3.024   0.562   9.184  0.1051 -2.0691  0.1573
  183SLPC  H12Y21059   3.095   0.462   9.317 -1.4635  1.0154  0.6942
  183SLPC  C31321060   3.190   0.457   9.118  0.3510 -0.5652 -0.0239
  183SLPC  H13X21061   3.213   0.525   9.033 -0.0137 -0.8675 -0.3650
  183SLPC  H13Y21062   3.113   0.395   9.069 -0.3921  0.6561 -0.4540
  183SLPC  C31421063   3.311   0.376   9.161  0.1510 -0.2889  0.1568
  183SLPC  H14X21064   3.276   0.321   9.251  0.0238  0.2323  0.4265
  183SLPC  H14Y21065   3.389   0.453   9.181 -2.4714  1.8045  3.5314
  183SLPC  C31521066   3.351   0.269   9.051 -0.7807 -0.4018  0.0863
  183SLPC  H15X21067   3.362   0.320   8.953  0.7490 -1.6310 -0.4159
  183SLPC  H15Y21068   3.277   0.187   9.044 -2.5343  1.1607 -0.3007
  183SLPC  C31621069   3.485   0.194   9.087  0.8482  0.0945  0.1645
  183SLPC  H16X21070   3.477   0.132   9.179 -1.0771  0.3816  0.2304
  183SLPC  H16Y21071   3.556   0.273   9.118  0.9387 -0.1897  0.6864
  183SLPC  C31721072   3.545   0.118   8.968  0.5390  0.0957 -0.0289
  183SLPC  H17X21073   3.467   0.045   8.939  1.4536 -0.7264 -0.4754
  183SLPC  H17Y21074   3.631   0.056   9.001 -0.2366 -1.3572 -0.6893
  183SLPC  C31821075   3.583   0.202   8.848  0.1062 -0.1651 -0.9601
  183SLPC  H18X21076   3.636   0.145   8.769 -1.5870  0.2307 -2.4506
  183SLPC  H18Y21077   3.659   0.276   8.881  0.2960  0.1057 -1.9513
  183SLPC  H18Z21078   3.492   0.238   8.796 -0.7784 -0.7633  0.1500
  184SLPC     N21079   6.335   2.959  10.514 -0.3451 -0.3346  0.7322
  184SLPC   C1321080   6.328   2.996  10.664  0.0181  0.7625  0.1366
  184SLPC  H13A21081   6.398   2.941  10.725  1.3897  0.9985 -1.1704
  184SLPC  H13B21082   6.348   3.102  10.677  0.3867  0.6659  0.3570
  184SLPC  H13C21083   6.226   2.979  10.696  0.7082 -1.9844  1.0902
  184SLPC   C1421084   6.335   2.806  10.520  0.1539 -0.2094 -0.5583
  184SLPC  H14A21085   6.338   2.764  10.421  2.8567  0.0300 -0.6609
  184SLPC  H14B21086   6.418   2.769  10.579 -1.5598 -1.4067  1.2635
  184SLPC  H14C21087   6.258   2.766  10.585  1.4941 -1.6145  0.2552
  184SLPC   C1521088   6.469   2.997  10.449  0.6887 -0.3197  0.3457
  184SLPC  H15A21089   6.542   2.959  10.519 -0.5696 -2.6011  0.5077
  184SLPC  H15B21090   6.483   2.936  10.361 -1.0863 -1.2069  0.6230
  184SLPC  H15C21091   6.486   3.103  10.432  1.2272 -0.5283 -0.4838
  184SLPC   C1221092   6.213   3.008  10.444 -0.6980 -0.4558 -0.1850
  184SLPC  H12A21093   6.220   2.968  10.344 -1.0048 -2.0428  0.3937
  184SLPC  H12B21094   6.207   3.115  10.433 -1.9098 -0.7005 -2.5151
  184SLPC   C1121095   6.078   2.954  10.505  0.6793  0.0194 -0.4082
  184SLPC  H11A21096   6.084   2.843  10.504 -0.3217 -0.0647  0.5480
  184SLPC  H11B21097   5.991   2.961  10.437  2.1219 -1.5748 -2.5339
  184SLPC     P21098   6.001   3.152  10.663  0.0185 -0.0509 -0.1042
  184SLPC   O1321099   6.019   3.184  10.808 -0.2001 -0.3447 -0.4106
  184SLPC   O1421100   6.068   3.246  10.565 -0.9552  0.0149 -0.0321
  184SLPC   O1221101   6.047   3.001  10.639 -0.1371 -0.6208  0.2447
  184SLPC   O1121102   5.848   3.160  10.647 -0.2353  0.3435  0.3376
  184SLPC    C121103   5.757   3.058  10.608  0.5201 -0.0171  0.0541
  184SLPC    HA21104   5.800   2.958  10.586 -1.1934 -1.5011  2.8961
  184SLPC    HB21105   5.680   3.040  10.686  0.9371 -0.7014  0.3164
  184SLPC    C221106   5.681   3.094  10.474 -0.2263 -0.4366 -0.0442
  184SLPC    HS21107   5.594   3.026  10.456 -0.2521  0.1431 -2.5171
  184SLPC   O2121108   5.779   3.086  10.363 -0.6228  0.1251 -0.2060
  184SLPC   C2121109   5.740   3.053  10.242 -0.0727 -0.0830  0.5197
  184SLPC   O2221110   5.626   3.021  10.217  0.2753 -0.9951  0.4985
  184SLPC   C2221111   5.855   3.074  10.146  1.1052 -0.1445 -1.2852
  184SLPC   H2R21112   5.861   3.183  10.129  0.2807  0.0646 -0.3457
  184SLPC   H2S21113   5.949   3.040  10.195  0.0984 -0.4892  0.5256
  184SLPC    C321114   5.627   3.235  10.486  0.0840 -0.1445 -0.1640
  184SLPC    HX21115   5.717   3.298  10.499  0.6908 -1.0948  0.2925
  184SLPC    HY21116   5.578   3.253  10.584  0.3069  3.9876 -0.6332
  184SLPC   O3121117   5.541   3.278  10.378  0.1170 -0.5174  0.1621
  184SLPC   C3121118   5.414   3.263  10.391  0.4500 -0.2846  0.2818
  184SLPC   O3221119   5.357   3.205  10.484 -0.4747 -0.3932 -0.3571
  184SLPC   C3221120   5.343   3.350  10.282  0.8064  0.7719  0.0581
  184SLPC   H2X21121   5.374   3.456  10.290 -0.9739  1.4431 -1.1485
  184SLPC   H2Y21122   5.236   3.346  10.309  0.2255  0.1305 -2.1041
  184SLPC   C2321123   5.836   2.995  10.016  0.5547 -0.2905  0.3517
  184SLPC   H3R21124   5.748   3.042   9.968  0.5807 -0.6925 -0.0924
  184SLPC   H3S21125   5.812   2.889  10.038 -1.0657 -0.3859 -1.6360
  184SLPC   C2421126   5.965   3.006   9.925 -0.1642  0.1555 -0.2400
  184SLPC   H4R21127   6.046   2.967   9.990 -0.9044 -0.0241  0.5902
  184SLPC   H4S21128   5.975   3.115   9.905  0.6779 -0.1622 -1.6721
  184SLPC   C2521129   5.940   2.918   9.803 -0.1445  0.5686 -0.7380
  184SLPC   H5R21130   5.929   2.812   9.832 -0.3378  0.9592  0.6996
  184SLPC   H5S21131   6.041   2.923   9.756  1.0792  1.4064  1.7843
  184SLPC   C2621132   5.819   2.960   9.713 -0.2622 -0.0650  0.3927
  184SLPC   H6R21133   5.836   3.063   9.674  0.9057 -0.4911 -0.2789
  184SLPC   H6S21134   5.724   2.959   9.771  0.0474  0.0890  0.9144
  184SLPC   C2721135   5.798   2.855   9.596 -0.2284 -0.3420 -0.1334
  184SLPC   H7R21136   5.746   2.774   9.651 -1.9896  2.1095  2.0945
  184SLPC   H7S21137   5.898   2.817   9.567 -0.3925 -0.6888 -0.2470
  184SLPC   C2821138   5.733   2.911   9.470 -0.0222  0.0255 -0.2298
  184SLPC   H8R21139   5.787   3.008   9.458 -0.6535  0.1885 -2.1326
  184SLPC   H8S21140   5.627   2.930   9.497  0.3663 -0.5414  1.8353
  184SLPC   C2921141   5.750   2.829   9.344  0.5354 -0.3004 -0.2569
  184SLPC   H9R21142   5.854   2.797   9.326 -0.0747 -1.8147 -1.3329
  184SLPC  C21021143   5.654   2.780   9.264 -0.5175 -0.2154 -0.2242
  184SLPC  H10R21144   5.673   2.718   9.175  2.1952 -0.6944  0.5980
  184SLPC  C21121145   5.502   2.800   9.280  0.5069 -0.5585 -0.0320
  184SLPC  H11R21146   5.463   2.850   9.189  0.3855 -0.5448  0.0279
  184SLPC  H11S21147   5.468   2.871   9.359 -0.1570 -1.3789  0.4412
  184SLPC  C21221148   5.423   2.675   9.290  0.1310  0.4188 -0.1743
  184SLPC  H12R21149   5.390   2.645   9.190 -1.8936 -0.5716  0.7338
  184SLPC  C21321150   5.368   2.610   9.396 -0.0501 -0.2960 -0.3672
  184SLPC  H13R21151   5.314   2.515   9.380  0.8797 -0.7138 -1.1292
  184SLPC  C21421152   5.371   2.649   9.539 -0.1070  0.0752 -0.8360
  184SLPC  H14R21153   5.267   2.649   9.577  0.3342  1.8444  0.5283
  184SLPC  H14S21154   5.396   2.757   9.547  4.2827 -0.8451  1.0555
  184SLPC  C21521155   5.456   2.577   9.643  0.0427 -0.9896 -0.0864
  184SLPC  H15R21156   5.563   2.578   9.611  0.0892  2.6321 -0.1962
  184SLPC  H15S21157   5.429   2.469   9.635 -2.7267 -0.3684  0.1226
  184SLPC  C21621158   5.424   2.624   9.781 -0.1349  0.2830  0.3539
  184SLPC  H16R21159   5.494   2.570   9.848  0.9650  1.2449  0.0202
  184SLPC  H16S21160   5.323   2.593   9.813  0.2363 -1.8170 -0.3794
  184SLPC  C21721161   5.461   2.769   9.826 -0.1954 -0.8256  0.4498
  184SLPC  H17R21162   5.368   2.828   9.812  0.1728 -0.7993 -2.3143
  184SLPC  H17S21163   5.537   2.816   9.760  0.1566 -0.1294  1.3285
  184SLPC  C21821164   5.527   2.789   9.964 -0.6777 -0.3664 -0.0815
  184SLPC  H18R21165   5.442   2.758  10.029  0.1744 -0.6647  0.9015
  184SLPC  H18S21166   5.531   2.899   9.976 -2.7239 -0.4732  2.3596
  184SLPC  H18T21167   5.622   2.732   9.972 -0.4141  0.3159  2.2489
  184SLPC   C3321168   5.365   3.307  10.133  0.4112 -0.0142 -0.1607
  184SLPC   H3X21169   5.470   3.330  10.104  1.2591 -0.2560  2.4369
  184SLPC   H3Y21170   5.311   3.383  10.073  3.6370  1.9970 -0.7854
  184SLPC   C3421171   5.317   3.170  10.086  0.1375  0.0837 -0.2528
  184SLPC   H4X21172   5.230   3.134  10.145  0.9104 -1.7164 -0.1540
  184SLPC   H4Y21173   5.401   3.097  10.080  1.1486  1.0938  0.9604
  184SLPC   C3521174   5.277   3.169   9.940 -0.1220  0.0981  0.0296
  184SLPC   H5X21175   5.187   3.231   9.921  0.1560  0.7412  0.7593
  184SLPC   H5Y21176   5.258   3.063   9.914 -2.0969  0.8485 -1.9183
  184SLPC   C3621177   5.392   3.226   9.857  0.3300 -0.3134 -0.5565
  184SLPC   H6X21178   5.486   3.174   9.887 -0.1719  0.3139  2.4515
  184SLPC   H6Y21179   5.404   3.335   9.872 -0.3485 -0.5821  2.5800
  184SLPC   C3721180   5.371   3.198   9.703 -0.7373  0.5134  0.2576
  184SLPC   H7X21181   5.266   3.217   9.674 -1.2463  0.2646  1.8679
  184SLPC   H7Y21182   5.401   3.094   9.677  0.8667  0.9543  0.2387
  184SLPC   C3821183   5.461   3.281   9.613  0.7590  0.0282  0.3281
  184SLPC   H8X21184   5.565   3.252   9.637  1.0809 -1.6196 -2.5946
  184SLPC   H8Y21185   5.442   3.389   9.633  1.3643  0.2164 -0.1135
  184SLPC   C3921186   5.432   3.237   9.471  0.0969 -0.2061 -0.0101
  184SLPC   H9X21187   5.342   3.292   9.439 -0.2148 -0.4477  0.4260
  184SLPC   H9Y21188   5.399   3.131   9.478  0.0252 -0.1552  0.4503
  184SLPC  C31021189   5.541   3.254   9.368  0.2758 -0.0658 -0.3641
  184SLPC  H10X21190   5.627   3.187   9.390  0.8157  0.7899  0.2165
  184SLPC  H10Y21191   5.590   3.352   9.388  1.9110 -0.7489 -0.7973
  184SLPC  C31121192   5.496   3.257   9.228 -0.0348  0.6625 -0.2480
  184SLPC  H11X21193   5.444   3.351   9.200 -1.4937 -0.9585 -3.4760
  184SLPC  H11Y21194   5.435   3.166   9.210  0.7088  0.5432 -2.4248
  184SLPC  C31221195   5.611   3.240   9.129 -0.2721 -0.2475 -0.0433
  184SLPC  H12X21196   5.683   3.320   9.159 -0.1189 -0.4096  0.0255
  184SLPC  H12Y21197   5.567   3.258   9.029 -0.6620  3.4519  0.6541
  184SLPC  C31321198   5.677   3.099   9.117  0.0220 -0.3226 -0.1864
  184SLPC  H13X21199   5.602   3.020   9.137  0.9510 -1.4137 -0.8607
  184SLPC  H13Y21200   5.755   3.077   9.194 -1.8736  0.8502  2.1946
  184SLPC  C31421201   5.735   3.072   8.970  0.2935 -0.0367  0.1044
  184SLPC  H14X21202   5.795   3.164   8.949  0.6006 -0.1912  0.3095
  184SLPC  H14Y21203   5.663   3.059   8.886 -0.4573  1.5929  0.4409
  184SLPC  C31521204   5.830   2.953   8.959  0.0833  0.0551 -0.4805
  184SLPC  H15X21205   5.758   2.868   8.947 -0.4796  0.6844 -1.7816
  184SLPC  H15Y21206   5.889   2.948   9.052 -4.1588 -2.9757  2.4792
  184SLPC  C31621207   5.924   2.958   8.841  0.6100 -0.1733  0.1995
  184SLPC  H16X21208   5.959   2.856   8.816 -2.0059 -0.3062 -4.0871
  184SLPC  H16Y21209   6.010   3.026   8.858 -0.6439  1.2354  1.1951
  184SLPC  C31721210   5.864   2.996   8.707 -0.0812 -0.2669 -0.1076
  184SLPC  H17X21211   5.823   3.099   8.720 -0.3994 -0.5239  1.0375
  184SLPC  H17Y21212   5.788   2.918   8.684 -0.3920 -0.0123  0.0352
  184SLPC  C31821213   5.971   3.010   8.604 -0.6147 -0.5847  0.1790
  184SLPC  H18X21214   6.045   2.927   8.599  0.0454 -0.1463  2.1501
  184SLPC  H18Y21215   6.026   3.100   8.638 -0.0341 -0.9549  0.2327
  184SLPC  H18Z21216   5.929   3.032   8.503 -0.2354 -1.8303 -0.2823
  185SLPC     N21217   3.052   6.662   6.328 -0.4969 -0.3976 -0.7623
  185SLPC   C1321218   2.933   6.600   6.259 -0.2506 -0.4693  0.1130
  185SLPC  H13A21219   2.966   6.504   6.219  1.3694  0.5865 -1.2182
  185SLPC  H13B21220   2.846   6.579   6.318  0.5181 -1.7861  0.8403
  185SLPC  H13C21221   2.913   6.659   6.170  0.6592 -0.4113 -0.0649
  185SLPC   C1421222   3.170   6.676   6.241  0.1988 -0.2379 -0.6412
  185SLPC  H14A21223   3.154   6.755   6.170  0.5557 -0.3455 -0.8451
  185SLPC  H14B21224   3.261   6.704   6.292 -0.7056  1.5223  0.0949
  185SLPC  H14C21225   3.191   6.578   6.201 -0.5802 -1.0007  0.7179
  185SLPC   C1521226   3.085   6.584   6.457  0.1723 -0.6259  0.0359
  185SLPC  H15A21227   3.185   6.606   6.490 -0.1601  0.5772  0.2690
  185SLPC  H15B21228   3.015   6.615   6.533 -0.5591  0.2099 -0.9537
  185SLPC  H15C21229   3.087   6.477   6.444  1.2461 -0.5140 -0.8356
  185SLPC   C1221230   3.012   6.808   6.377 -0.7110 -0.0558  0.2434
  185SLPC  H12A21231   3.103   6.843   6.423  1.4730 -4.3237 -0.2736
  185SLPC  H12B21232   2.936   6.801   6.453 -1.1413  0.8433 -0.0899
  185SLPC   C1121233   2.969   6.916   6.272 -0.6950 -0.2362 -0.0283
  185SLPC  H11A21234   2.914   6.993   6.330 -1.9444 -0.9708 -0.2083
  185SLPC  H11B21235   2.904   6.858   6.202  0.7038 -4.5898  1.9223
  185SLPC     P21236   3.161   7.086   6.279  0.1003 -0.1428  0.1766
  185SLPC   O1321237   3.292   7.108   6.215 -0.1786 -0.1591 -0.0113
  185SLPC   O1421238   3.069   7.203   6.290 -0.1356 -0.0532  0.0464
  185SLPC   O1221239   3.079   6.977   6.198  0.3003 -0.3254  0.3270
  185SLPC   O1121240   3.182   7.013   6.416 -0.3400  0.3228  0.2142
  185SLPC    C121241   3.267   7.081   6.505  0.2178 -0.0863  0.3386
  185SLPC    HA21242   3.368   7.097   6.462  0.8122  2.9675  2.5136
  185SLPC    HB21243   3.232   7.182   6.536  0.8081  0.2126  0.0615
  185SLPC    C221244   3.282   7.002   6.637 -0.1061 -0.0829  0.0774
  185SLPC    HS21245   3.300   6.895   6.617 -0.8610 -0.0486 -0.8166
  185SLPC   O2121246   3.157   7.007   6.711 -0.2805  0.3737 -0.6871
  185SLPC   C2121247   3.115   6.896   6.766 -0.0222 -0.2678  0.1761
  185SLPC   O2221248   3.159   6.783   6.744 -0.6127 -0.0934 -0.3786
  185SLPC   C2221249   3.015   6.931   6.878 -0.2521 -0.0941  0.2654
  185SLPC   H2R21250   2.954   7.017   6.842  1.4707  0.7470 -0.7965
  185SLPC   H2S21251   2.951   6.841   6.889  1.5571 -1.5320 -0.4180
  185SLPC    C321252   3.401   7.052   6.728 -0.4735  0.1914 -0.7362
  185SLPC    HX21253   3.393   7.163   6.732  0.1390  0.2018  0.3215
  185SLPC    HY21254   3.492   7.029   6.668  0.0204  0.4140 -0.0809
  185SLPC   O3121255   3.413   6.978   6.855  0.7333 -0.6874 -0.4545
  185SLPC   C3121256   3.490   7.034   6.946 -1.1678 -0.3456 -0.0846
  185SLPC   O3221257   3.526   7.149   6.948 -0.1424 -0.2834  0.0181
  185SLPC   C3221258   3.506   6.933   7.065  0.5495 -0.3582  0.8032
  185SLPC   H2X21259   3.602   6.878   7.065  0.1758 -1.3306 -3.1549
  185SLPC   H2Y21260   3.426   6.856   7.055  0.8825 -0.4387 -1.9715
  185SLPC   C2321261   3.077   6.977   7.012  0.1224  0.5708  0.1326
  185SLPC   H3R21262   3.101   7.083   6.991 -1.7648  1.2170  1.0541
  185SLPC   H3S21263   3.162   6.913   7.043  1.0472  0.6619 -2.0356
  185SLPC   C2421264   2.965   6.962   7.109  0.2859 -0.3360 -0.0371
  185SLPC   H4R21265   2.969   6.852   7.126 -0.9709 -0.2863  0.7059
  185SLPC   H4S21266   2.869   6.981   7.057  1.7378  0.0445 -2.7624
  185SLPC   C2521267   2.982   7.060   7.229  0.6246  0.1945  0.2232
  185SLPC   H5R21268   2.965   7.163   7.191 -1.1492 -0.3586 -0.5798
  185SLPC   H5S21269   3.087   7.054   7.265  0.6042  0.5918  0.3474
  185SLPC   C2621270   2.894   7.037   7.362 -1.1135  0.4536 -0.1325
  185SLPC   H6R21271   2.812   7.113   7.360  0.0217  1.7505 -2.9977
  185SLPC   H6S21272   2.951   7.056   7.456 -2.0599  0.7312  0.4105
  185SLPC   C2721273   2.848   6.891   7.374  0.0742 -0.1845  0.3094
  185SLPC   H7R21274   2.932   6.819   7.377  1.4495  1.2616 -1.3967
  185SLPC   H7S21275   2.794   6.863   7.281  0.8167 -0.6043 -0.0018
  185SLPC   C2821276   2.768   6.851   7.501  0.4695  0.1821  0.0376
  185SLPC   H8R21277   2.712   6.757   7.484 -2.1735  1.8396 -1.1330
  185SLPC   H8S21278   2.692   6.931   7.511  2.2818  1.8801  0.8753
  185SLPC   C2921279   2.852   6.832   7.625  0.5931 -0.0478  0.4969
  185SLPC   H9R21280   2.942   6.770   7.619  0.0762 -0.6770 -2.5157
  185SLPC  C21021281   2.818   6.881   7.749 -0.9993 -0.0866  0.1146
  185SLPC  H10R21282   2.883   6.857   7.833  1.8820  0.3662 -1.8476
  185SLPC  C21121283   2.690   6.963   7.786  0.3927 -0.6051  0.4445
  185SLPC  H11R21284   2.638   6.901   7.863  1.2248  0.8173  2.2230
  185SLPC  H11S21285   2.624   6.961   7.697  1.2987 -1.6076 -0.2287
  185SLPC  C21221286   2.704   7.111   7.817 -0.4312 -0.0426  0.2602
  185SLPC  H12R21287   2.797   7.158   7.782 -1.1513  0.2298 -1.3724
  185SLPC  C21321288   2.624   7.179   7.900 -0.9099 -0.0984  0.3317
  185SLPC  H13R21289   2.644   7.286   7.916 -1.4919  0.0231  0.2623
  185SLPC  C21421290   2.496   7.132   7.972  0.5606  0.8095 -0.1475
  185SLPC  H14R21291   2.464   7.030   7.944  1.7846  0.6275 -0.9828
  185SLPC  H14S21292   2.420   7.211   7.957  0.4766  0.9326  0.8618
  185SLPC  C21521293   2.532   7.117   8.118  0.2620 -0.5641 -0.6792
  185SLPC  H15R21294   2.582   7.208   8.157 -0.0928 -0.0245 -1.4461
  185SLPC  H15S21295   2.608   7.036   8.126 -0.0901 -0.8156  0.1423
  185SLPC  C21621296   2.415   7.065   8.208  0.1531 -0.2837 -0.7184
  185SLPC  H16R21297   2.381   6.964   8.175  3.1935 -2.8543  3.0071
  185SLPC  H16S21298   2.334   7.140   8.205  0.7545  0.4675  0.6835
  185SLPC  C21721299   2.459   7.057   8.357 -0.6176  0.1749 -0.1248
  185SLPC  H17R21300   2.468   7.159   8.402 -0.1849 -0.6541  1.7997
  185SLPC  H17S21301   2.555   7.001   8.354 -1.9763 -2.4386  1.4667
  185SLPC  C21821302   2.357   6.980   8.444  0.0822 -0.1117 -0.3973
  185SLPC  H18R21303   2.332   6.887   8.388 -1.0403 -0.8274  1.2259
  185SLPC  H18S21304   2.273   7.050   8.462  2.0501  1.8119  2.0154
  185SLPC  H18T21305   2.407   6.980   8.543  0.3684  1.4232 -0.5084
  185SLPC   C3321306   3.499   7.011   7.201  0.2118  0.7248 -0.0064
  185SLPC   H3X21307   3.402   7.062   7.220 -0.2510 -0.2562  0.3063
  185SLPC   H3Y21308   3.580   7.086   7.207 -0.1701  1.1440 -0.0498
  185SLPC   C3421309   3.511   6.907   7.313  0.4708 -0.6833  0.9307
  185SLPC   H4X21310   3.615   6.867   7.321  1.8006  1.7758 -1.9235
  185SLPC   H4Y21311   3.442   6.820   7.307  1.1024 -1.1164 -3.4312
  185SLPC   C3521312   3.497   6.982   7.449  0.4490 -0.6604  0.3385
  185SLPC   H5X21313   3.411   7.053   7.447  0.6496 -0.2958  2.5495
  185SLPC   H5Y21314   3.585   7.045   7.473 -0.8700  0.9188  1.2773
  185SLPC   C3621315   3.455   6.903   7.572  0.2224 -0.5904 -0.7015
  185SLPC   H6X21316   3.534   6.842   7.621  1.1438  0.0729 -1.2968
  185SLPC   H6Y21317   3.374   6.841   7.530 -0.7220  0.1169  0.0435
  185SLPC   C3721318   3.392   6.985   7.695  0.1993 -0.3274  0.9042
  185SLPC   H7X21319   3.313   7.051   7.655  0.4225 -1.4787 -1.6590
  185SLPC   H7Y21320   3.477   7.037   7.746 -0.7866  2.1695  0.1366
  185SLPC   C3821321   3.308   6.905   7.796  0.6148  0.2680  0.2928
  185SLPC   H8X21322   3.377   6.842   7.856  0.7362 -0.7656 -0.8892
  185SLPC   H8Y21323   3.249   6.834   7.735  2.1932 -1.7651  1.0193
  185SLPC   C3921324   3.221   6.991   7.886 -0.3889  0.3395 -0.2755
  185SLPC   H9X21325   3.143   7.042   7.827 -0.7015 -1.0192 -1.0807
  185SLPC   H9Y21326   3.292   7.063   7.933  0.9087 -1.3381  0.4386
  185SLPC  C31021327   3.148   6.904   7.986 -0.0870  0.1346  0.3239
  185SLPC  H10X21328   3.210   6.870   8.071 -1.0072  1.2930  1.4928
  185SLPC  H10Y21329   3.104   6.819   7.928  2.1228  1.3208 -3.4141
  185SLPC  C31121330   3.041   6.991   8.043  0.9838 -0.4904 -0.2772
  185SLPC  H11X21331   2.982   7.058   7.978 -0.9465 -1.6612  0.1783
  185SLPC  H11Y21332   3.084   7.052   8.126 -2.2550 -1.3461  2.2755
  185SLPC  C31221333   2.934   6.914   8.116  0.6260  0.2193  0.0470
  185SLPC  H12X21334   2.986   6.827   8.163 -0.3249 -0.0400  0.6393
  185SLPC  H12Y21335   2.871   6.865   8.039 -0.8972 -0.2563  1.5427
  185SLPC  C31321336   2.850   6.992   8.222  0.6965  0.5967 -0.2752
  185SLPC  H13X21337   2.769   6.923   8.253  0.9850 -0.0457 -0.9071
  185SLPC  H13Y21338   2.823   7.089   8.174  2.9383  0.0156 -2.9643
  185SLPC  C31421339   2.925   7.000   8.356  0.1228  0.0896 -0.4054
  185SLPC  H14X21340   3.013   7.066   8.341 -0.6272  1.4624  0.8623
  185SLPC  H14Y21341   2.956   6.898   8.386 -1.7084 -0.4786 -0.3306
  185SLPC  C31521342   2.845   7.053   8.480 -0.2467 -0.1317  0.5147
  185SLPC  H15X21343   2.745   7.006   8.493 -2.1896  3.1130 -1.4036
  185SLPC  H15Y21344   2.819   7.159   8.460 -3.3457 -0.8934 -0.0619
  185SLPC  C31621345   2.935   7.046   8.602  0.4559  0.2235 -0.1387
  185SLPC  H16X21346   3.028   7.104   8.584 -0.8408  2.9972  1.3135
  185SLPC  H16Y21347   2.975   6.943   8.614  0.8783  0.2958 -0.8894
  185SLPC  C31721348   2.856   7.098   8.727  0.0329  0.4774 -0.5258
  185SLPC  H17X21349   2.780   7.024   8.761  0.3221  0.6645  0.5841
  185SLPC  H17Y21350   2.791   7.183   8.699  1.8929  2.3225  0.4693
  185SLPC  C31821351   2.955   7.140   8.835 -0.0205  0.4167 -0.3540
  185SLPC  H18X21352   3.052   7.086   8.834 -1.1251 -1.6879 -1.6405
  185SLPC  H18Y21353   2.909   7.113   8.933 -2.3617 -0.8526 -1.7137
  185SLPC  H18Z21354   2.987   7.245   8.821 -0.3258  0.7881  1.4609
  186SLPC     N21355   3.938   3.365   6.057 -0.2436 -0.2246 -0.1234
  186SLPC   C1321356   3.969   3.491   5.976  0.5532  0.6472 -0.8049
  186SLPC  H13A21357   3.926   3.583   6.012  1.7073  1.2842 -1.0347
  186SLPC  H13B21358   4.076   3.502   5.980  0.6713 -0.4980 -0.3364
  186SLPC  H13C21359   3.936   3.466   5.876 -1.4048  0.6066 -0.2052
  186SLPC   C1421360   3.787   3.342   6.064 -0.3711  0.0775 -0.0649
  186SLPC  H14A21361   3.744   3.405   6.141 -2.7624 -1.2359 -0.2575
  186SLPC  H14B21362   3.732   3.333   5.972 -0.3068 -0.8077 -0.0294
  186SLPC  H14C21363   3.767   3.246   6.109  0.2128  0.8628  2.0130
  186SLPC   C1521364   3.985   3.387   6.190 -0.5167  0.1831  0.1598
  186SLPC  H15A21365   3.922   3.452   6.250  0.1494 -0.4501  1.5942
  186SLPC  H15B21366   3.979   3.290   6.237  1.3595 -0.5592 -1.0302
  186SLPC  H15C21367   4.087   3.423   6.192 -0.0189 -1.1261 -0.7028
  186SLPC   C1221368   3.999   3.240   5.993  0.0966  1.0322  0.1655
  186SLPC  H12A21369   3.956   3.228   5.894 -0.7914 -0.0312  0.6716
  186SLPC  H12B21370   3.969   3.149   6.042  0.4397 -0.2448 -1.8723
  186SLPC   C1121371   4.151   3.230   5.980  0.3020 -0.2262 -0.2397
  186SLPC  H11A21372   4.202   3.328   5.977  0.4312 -0.1971  1.6094
  186SLPC  H11B21373   4.181   3.165   5.895  1.4883 -1.8005  1.3034
  186SLPC     P21374   4.352   3.171   6.145  0.0055 -0.6587  0.0129
  186SLPC   O1321375   4.411   3.041   6.189  0.3006  0.1584  0.2608
  186SLPC   O1421376   4.427   3.263   6.052  0.1779  0.1580 -0.6009
  186SLPC   O1221377   4.206   3.158   6.091  0.5120 -0.1429  0.1511
  186SLPC   O1121378   4.341   3.251   6.284 -0.0731 -0.2119  0.5334
  186SLPC    C121379   4.247   3.217   6.389 -0.7716 -0.5810 -0.0866
  186SLPC    HA21380   4.148   3.265   6.373 -0.5464 -0.1158 -0.1153
  186SLPC    HB21381   4.235   3.107   6.395  0.8508 -0.9620 -2.6718
  186SLPC    C221382   4.290   3.277   6.529  0.9794 -0.3868  0.5376
  186SLPC    HS21383   4.273   3.387   6.518 -2.9886 -0.8020  0.7789
  186SLPC   O2121384   4.422   3.233   6.558 -0.0117 -0.1453 -0.4440
  186SLPC   C2121385   4.513   3.323   6.523  0.8378  0.6346 -0.6005
  186SLPC   O2221386   4.498   3.431   6.475 -0.0477 -0.1622  0.5711
  186SLPC   C2221387   4.646   3.255   6.538  0.0568  0.2711 -0.9094
  186SLPC   H2R21388   4.631   3.145   6.540 -0.5832  0.3676  0.0772
  186SLPC   H2S21389   4.710   3.276   6.449 -0.0885  0.8137 -0.8874
  186SLPC    C321390   4.193   3.239   6.645  0.2393 -0.5037 -0.8023
  186SLPC    HX21391   4.203   3.131   6.666  0.9065 -0.1396  0.9115
  186SLPC    HY21392   4.092   3.271   6.610 -0.1058  0.4938  0.9767
  186SLPC   O3121393   4.218   3.331   6.759  0.2541 -0.3262  0.2381
  186SLPC   C3121394   4.299   3.291   6.847  0.1027 -0.1371 -0.6416
  186SLPC   O3221395   4.355   3.182   6.864 -0.0814  0.9989 -0.0674
  186SLPC   C3221396   4.335   3.411   6.932 -0.3063  0.6594  0.2978
  186SLPC   H2X21397   4.239   3.461   6.958 -1.1805 -1.0651  0.5468
  186SLPC   H2Y21398   4.402   3.474   6.870 -1.0950  1.4847  0.2492
  186SLPC   C2321399   4.715   3.309   6.665  0.6770  0.0109 -0.4917
  186SLPC   H3R21400   4.672   3.283   6.765  0.6834 -1.1345 -0.7697
  186SLPC   H3S21401   4.712   3.420   6.667 -0.8740  0.0032 -0.9210
  186SLPC   C2421402   4.865   3.270   6.680 -0.1729 -0.9517 -0.1806
  186SLPC   H4R21403   4.897   3.307   6.780  2.1327  0.3564 -1.3175
  186SLPC   H4S21404   4.928   3.319   6.603  0.6288 -0.0053  1.0315
  186SLPC   C2521405   4.896   3.122   6.676  0.5643  0.5267  0.3626
  186SLPC   H5R21406   5.005   3.105   6.688  0.7986  1.5494 -0.2068
  186SLPC   H5S21407   4.867   3.074   6.580 -2.7401 -2.0708  2.4223
  186SLPC   C2621408   4.817   3.028   6.779 -0.1438 -0.0974 -0.1580
  186SLPC   H6R21409   4.864   2.929   6.761  2.7153  0.6710  2.2180
  186SLPC   H6S21410   4.713   3.028   6.741  0.1758  1.9810 -1.1438
  186SLPC   C2721411   4.838   3.076   6.922  0.0225  0.2152  0.6099
  186SLPC   H7R21412   4.792   3.173   6.950  1.6786  0.7679  1.5372
  186SLPC   H7S21413   4.946   3.086   6.946 -0.2008 -2.4974  3.4787
  186SLPC   C2821414   4.811   2.961   7.029  0.6817  0.6998  0.3251
  186SLPC   H8R21415   4.879   2.978   7.115  0.2193  0.7885  0.6779
  186SLPC   H8S21416   4.835   2.862   6.984  0.0994  0.6331  0.1409
  186SLPC   C2921417   4.660   2.946   7.063  0.1107 -1.1381  0.3838
  186SLPC   H9R21418   4.586   2.947   6.982 -0.4706  3.8221  0.6829
  186SLPC  C21021419   4.614   2.934   7.188 -0.0550  0.4869  0.1421
  186SLPC  H10R21420   4.507   2.928   7.209  0.2237  1.5259  2.2207
  186SLPC  C21121421   4.696   2.919   7.315  0.2555 -0.2529  0.0563
  186SLPC  H11R21422   4.805   2.915   7.295  0.1761 -0.4981 -0.3479
  186SLPC  H11S21423   4.673   2.818   7.356 -0.5464  0.1305  0.5880
  186SLPC  C21221424   4.661   3.012   7.428 -0.3222 -0.5997  0.6949
  186SLPC  H12R21425   4.585   2.975   7.498 -0.8677 -0.0953  0.3845
  186SLPC  C21321426   4.704   3.136   7.444  0.3281  0.1418  0.1819
  186SLPC  H13R21427   4.651   3.191   7.523  0.9051  1.1467 -0.1051
  186SLPC  C21421428   4.801   3.212   7.355  0.1799  0.0777 -0.4590
  186SLPC  H14R21429   4.756   3.308   7.322 -0.1648  0.7206  1.7257
  186SLPC  H14S21430   4.834   3.161   7.262  2.4969  0.9008 -0.1522
  186SLPC  C21521431   4.922   3.256   7.433 -0.5755  0.8615 -0.9178
  186SLPC  H15R21432   4.902   3.307   7.530  1.9516 -2.3732  1.5214
  186SLPC  H15S21433   4.978   3.320   7.361 -0.3767  0.1201 -1.4281
  186SLPC  C21621434   5.006   3.134   7.470  0.1344  0.0618 -0.1392
  186SLPC  H16R21435   5.062   3.113   7.376  1.7160 -0.4921  0.8708
  186SLPC  H16S21436   4.942   3.045   7.489 -0.3781 -0.0664 -2.1768
  186SLPC  C21721437   5.109   3.151   7.582 -0.1102 -0.5694 -0.0341
  186SLPC  H17R21438   5.172   3.235   7.546  2.1403 -0.9038  2.7593
  186SLPC  H17S21439   5.185   3.071   7.591 -0.6066 -1.1962 -1.1576
  186SLPC  C21821440   5.039   3.178   7.719  0.3202 -0.0425 -0.7725
  186SLPC  H18R21441   5.009   3.078   7.756  3.2342 -1.0331 -0.8724
  186SLPC  H18S21442   4.943   3.235   7.714 -0.3782 -1.2698 -1.6689
  186SLPC  H18T21443   5.096   3.234   7.797  0.7841  0.0985 -1.2072
  186SLPC   C3321444   4.404   3.380   7.074  0.6429 -0.1327 -0.6832
  186SLPC   H3X21445   4.420   3.476   7.126  1.4615 -0.5525 -0.1474
  186SLPC   H3Y21446   4.500   3.326   7.057 -1.1170 -3.4848 -0.9248
  186SLPC   C3421447   4.318   3.292   7.174  0.6116 -0.1412  0.3840
  186SLPC   H4X21448   4.289   3.198   7.124 -1.4688  1.3414 -1.3820
  186SLPC   H4Y21449   4.220   3.339   7.199  0.9372 -0.0330  1.5329
  186SLPC   C3521450   4.389   3.265   7.308 -0.1451  0.1227 -0.1083
  186SLPC   H5X21451   4.420   3.362   7.352 -0.2620 -0.1126  0.4997
  186SLPC   H5Y21452   4.494   3.230   7.300 -0.1294 -0.9544  3.3228
  186SLPC   C3621453   4.297   3.196   7.414 -0.2824 -0.1959  0.7720
  186SLPC   H6X21454   4.277   3.093   7.378 -3.5473  0.7589 -0.4664
  186SLPC   H6Y21455   4.204   3.256   7.413 -0.8059 -1.0037 -0.3300
  186SLPC   C3721456   4.352   3.181   7.557 -0.1880 -0.4999 -0.7787
  186SLPC   H7X21457   4.393   3.275   7.600  3.0505 -1.4025 -1.6275
  186SLPC   H7Y21458   4.449   3.131   7.539  0.9868  1.2349  0.4336
  186SLPC   C3821459   4.251   3.129   7.653  0.0292 -0.5692  0.2718
  186SLPC   H8X21460   4.162   3.195   7.657 -0.3885 -1.1284  4.1177
  186SLPC   H8Y21461   4.294   3.134   7.755 -2.5473  1.2971  1.3698
  186SLPC   C3921462   4.201   2.988   7.626 -0.0765  0.6078 -0.1866
  186SLPC   H9X21463   4.290   2.921   7.626 -1.4977 -1.3831  0.3631
  186SLPC   H9Y21464   4.151   2.981   7.527 -1.5908 -0.7626  0.6334
  186SLPC  C31021465   4.111   2.934   7.741 -0.6400 -0.6537  0.0904
  186SLPC  H10X21466   4.027   3.000   7.770 -0.3192 -1.4757  3.3410
  186SLPC  H10Y21467   4.183   2.933   7.826 -0.6094 -2.0049  0.0701
  186SLPC  C31121468   4.068   2.790   7.717 -0.6205 -0.7353 -0.5146
  186SLPC  H11X21469   4.153   2.717   7.717  0.3618  0.3829 -0.8826
  186SLPC  H11Y21470   4.026   2.781   7.615  0.5935 -0.6566 -1.0370
  186SLPC  C31221471   3.970   2.752   7.828  0.6250  0.8385 -0.0299
  186SLPC  H12X21472   3.926   2.653   7.806  0.2392  0.7045  1.2486
  186SLPC  H12Y21473   3.877   2.811   7.821  0.4333  0.3629 -1.7614
  186SLPC  C31321474   4.022   2.741   7.967 -0.3357 -0.1166 -0.2778
  186SLPC  H13X21475   4.014   2.844   8.009 -0.2696 -0.4484  0.5558
  186SLPC  H13Y21476   4.131   2.719   7.974 -0.2485 -1.1253 -3.4574
  186SLPC  C31421477   3.935   2.653   8.057 -0.0494 -0.4038 -0.1619
  186SLPC  H14X21478   3.828   2.674   8.035  0.8183  3.0388 -1.8886
  186SLPC  H14Y21479   3.937   2.691   8.161 -0.1564 -2.5557  0.6721
  186SLPC  C31521480   3.976   2.509   8.067 -0.0853 -0.5688 -0.2296
  186SLPC  H15X21481   3.951   2.460   7.970  0.7688 -2.1752  0.3101
  186SLPC  H15Y21482   3.908   2.466   8.143 -1.4043  2.2028  0.2781
  186SLPC  C31621483   4.125   2.498   8.106  0.0019 -0.1558 -0.2269
  186SLPC  H16X21484   4.148   2.569   8.188 -0.2151  1.7158 -1.7141
  186SLPC  H16Y21485   4.194   2.522   8.022  1.0189 -2.8544 -0.2575
  186SLPC  C31721486   4.162   2.348   8.139 -0.2252  0.0591 -0.6681
  186SLPC  H17X21487   4.273   2.343   8.147 -0.2341 -0.0797 -0.6381
  186SLPC  H17Y21488   4.124   2.285   8.055  1.2511  0.6747 -1.8456
  186SLPC  C31821489   4.094   2.302   8.268 -0.2172  0.6039 -0.1497
  186SLPC  H18X21490   3.986   2.324   8.275 -0.5142  1.0267 -4.1134
  186SLPC  H18Y21491   4.140   2.346   8.359 -2.3052  1.4432  0.5551
  186SLPC  H18Z21492   4.111   2.192   8.278  0.6505  0.7805  0.4896
  187SLPC     N21493   4.136   0.606   6.143  0.3233  0.1882 -0.5149
  187SLPC   C1321494   4.122   0.675   6.279  0.4784  0.1059  0.5180
  187SLPC  H13A21495   4.017   0.673   6.304 -0.1808  1.0976 -1.8802
  187SLPC  H13B21496   4.186   0.620   6.345  3.1455  0.1148 -1.8686
  187SLPC  H13C21497   4.154   0.778   6.286  0.6348  0.2909 -1.9898
  187SLPC   C1421498   4.280   0.622   6.093 -0.3208 -0.2740  0.5819
  187SLPC  H14A21499   4.294   0.728   6.081 -1.7440  0.1464  2.1377
  187SLPC  H14B21500   4.355   0.579   6.158  1.1872  0.5927 -0.5154
  187SLPC  H14C21501   4.289   0.571   5.999 -1.2506 -0.9602  0.8453
  187SLPC   C1521502   4.040   0.651   6.038 -0.1540  0.2569 -0.0896
  187SLPC  H15A21503   4.075   0.745   5.999  0.8860  0.1123  0.4642
  187SLPC  H15B21504   4.038   0.571   5.965  5.3354 -0.4990  0.1822
  187SLPC  H15C21505   3.941   0.659   6.081 -0.9246 -0.8312 -1.5686
  187SLPC   C1221506   4.113   0.452   6.159  1.0993 -0.1012 -0.4040
  187SLPC  H12A21507   4.168   0.403   6.080  0.4800  0.4477 -1.1808
  187SLPC  H12B21508   4.007   0.436   6.153  0.8985  0.0130  1.8549
  187SLPC   C1121509   4.176   0.379   6.285  0.3643  0.1970 -0.3140
  187SLPC  H11A21510   4.160   0.270   6.271 -1.2261  0.1551  1.3902
  187SLPC  H11B21511   4.125   0.426   6.372  0.7485 -0.4216  0.2553
  187SLPC     P21512   4.412   0.390   6.425  0.3553  0.3410  0.1525
  187SLPC   O1321513   4.500   0.274   6.413  0.8205  0.1674 -0.3652
  187SLPC   O1421514   4.476   0.525   6.445  0.2814 -0.1159  0.2009
  187SLPC   O1221515   4.316   0.406   6.299  0.0843 -0.3563  0.6110
  187SLPC   O1121516   4.310   0.357   6.540 -0.1732  0.4255 -0.1168
  187SLPC    C121517   4.287   0.443   6.645 -0.1796 -1.0295 -0.1713
  187SLPC    HA21518   4.316   0.546   6.616 -0.3693 -0.1194  2.6546
  187SLPC    HB21519   4.182   0.448   6.682 -0.6415 -1.6858 -1.3348
  187SLPC    C221520   4.371   0.410   6.772 -0.7488 -0.0084  0.1379
  187SLPC    HS21521   4.374   0.498   6.839  0.3297  0.1291 -0.0647
  187SLPC   O2121522   4.505   0.373   6.724 -0.4083 -0.6817 -0.0530
  187SLPC   C2121523   4.596   0.380   6.816  1.1009 -0.1739  0.3492
  187SLPC   O2221524   4.573   0.417   6.933 -0.6445  0.5296  0.0689
  187SLPC   C2221525   4.722   0.324   6.761  0.0057  0.2325  0.1101
  187SLPC   H2R21526   4.686   0.235   6.706 -2.6651  0.5700  1.1851
  187SLPC   H2S21527   4.757   0.392   6.681 -1.2694  0.3134 -0.3950
  187SLPC    C321528   4.302   0.297   6.858  0.1737 -0.9880  0.3870
  187SLPC    HX21529   4.367   0.275   6.944  1.2636 -1.0899 -0.4397
  187SLPC    HY21530   4.297   0.211   6.788 -2.3364 -1.5237  1.1294
  187SLPC   O3121531   4.164   0.338   6.895  0.0489 -0.3090  0.3975
  187SLPC   C3121532   4.072   0.238   6.906  0.3239  0.0724 -0.1852
  187SLPC   O3221533   4.095   0.120   6.883 -0.4660 -0.3890 -0.5703
  187SLPC   C3221534   3.929   0.292   6.930 -0.8215  0.0296 -0.3172
  187SLPC   H2X21535   3.861   0.267   6.846 -1.6821 -0.3740  0.4789
  187SLPC   H2Y21536   3.936   0.402   6.936  2.6591  0.0089 -1.8134
  187SLPC   C2321537   4.827   0.295   6.865  0.1887  0.4454  0.6282
  187SLPC   H3R21538   4.817   0.369   6.947  1.6379  0.5078  0.7593
  187SLPC   H3S21539   4.926   0.299   6.815 -0.1243  1.3636  0.0559
  187SLPC   C2421540   4.816   0.152   6.927 -0.4511 -0.2584 -0.2951
  187SLPC   H4R21541   4.904   0.085   6.934 -0.1275  0.2227  0.3728
  187SLPC   H4S21542   4.736   0.103   6.868 -0.4436 -2.8673  1.6654
  187SLPC   C2521543   4.775   0.173   7.074  0.1365 -0.2998 -0.0272
  187SLPC   H5R21544   4.756   0.073   7.120 -1.5309 -0.6964 -1.4720
  187SLPC   H5S21545   4.674   0.218   7.064 -0.6874 -2.0051  0.1999
  187SLPC   C2621546   4.880   0.238   7.170  0.3483 -0.6662 -0.2660
  187SLPC   H6R21547   4.871   0.348   7.158 -3.0711 -0.9293 -1.0855
  187SLPC   H6S21548   4.985   0.204   7.159  0.3454 -0.3576 -1.2903
  187SLPC   C2721549   4.843   0.208   7.317  0.5653  0.3052  0.0383
  187SLPC   H7R21550   4.846   0.099   7.333  0.5875  0.4452  1.0311
  187SLPC   H7S21551   4.738   0.247   7.321  0.2909 -0.4864  0.6759
  187SLPC   C2821552   4.930   0.278   7.430 -0.0094 -0.3186 -0.2679
  187SLPC   H8R21553   4.920   0.387   7.411  0.1236 -0.4851 -1.3091
  187SLPC   H8S21554   5.035   0.242   7.425  0.1490 -0.3020  1.8986
  187SLPC   C2921555   4.900   0.242   7.575  0.4767  0.2464  1.1835
  187SLPC   H9R21556   4.935   0.143   7.607  0.9426  0.2199  0.6125
  187SLPC  C21021557   4.833   0.316   7.671 -0.0007 -0.4647 -0.3627
  187SLPC  H10R21558   4.819   0.273   7.772 -0.5620 -0.3225 -0.3757
  187SLPC  C21121559   4.782   0.459   7.655  0.3778 -0.4116  0.0184
  187SLPC  H11R21560   4.807   0.497   7.553  0.1414  1.4831  0.6322
  187SLPC  H11S21561   4.839   0.528   7.721  1.6220  1.2101 -2.5616
  187SLPC  C21221562   4.637   0.467   7.692 -0.1873 -0.1652 -0.8280
  187SLPC  H12R21563   4.569   0.415   7.622 -0.4100 -1.2680  0.1704
  187SLPC  C21321564   4.588   0.527   7.803 -0.0683 -0.2647  0.7779
  187SLPC  H13R21565   4.487   0.508   7.843 -1.5680  1.4457 -1.8697
  187SLPC  C21421566   4.675   0.595   7.909 -0.2497 -0.0194  0.1872
  187SLPC  H14R21567   4.673   0.703   7.884 -2.5548 -0.5201 -2.2354
  187SLPC  H14S21568   4.774   0.544   7.916 -0.1721  0.0944 -0.0889
  187SLPC  C21521569   4.603   0.574   8.045 -0.2948  0.8137  0.2397
  187SLPC  H15R21570   4.577   0.466   8.056  0.5799  0.6579  0.8414
  187SLPC  H15S21571   4.503   0.622   8.050 -1.7117 -1.9538  0.6074
  187SLPC  C21621572   4.698   0.617   8.154  0.1736  0.2354  1.4323
  187SLPC  H16R21573   4.773   0.536   8.168 -1.9706 -2.7446 -2.1891
  187SLPC  H16S21574   4.639   0.620   8.248 -3.0342 -0.9470 -0.3592
  187SLPC  C21721575   4.759   0.763   8.145 -0.6258 -0.2466 -0.3571
  187SLPC  H17R21576   4.674   0.835   8.149 -1.2007 -0.9321  0.0564
  187SLPC  H17S21577   4.808   0.791   8.049 -1.5002  1.6371 -0.2989
  187SLPC  C21821578   4.856   0.781   8.263 -0.1484  0.4907 -0.2657
  187SLPC  H18R21579   4.884   0.888   8.266 -0.4562  0.5549  0.3997
  187SLPC  H18S21580   4.950   0.722   8.260  0.5657  1.5808  0.3543
  187SLPC  H18T21581   4.808   0.765   8.362  0.8133  1.5097  0.3768
  187SLPC   C3321582   3.861   0.248   7.067  0.4423 -0.3546 -0.5792
  187SLPC   H3X21583   3.846   0.138   7.074  0.1680 -0.4181 -1.9313
  187SLPC   H3Y21584   3.760   0.293   7.053  1.5478  2.1538 -1.1636
  187SLPC   C3421585   3.923   0.298   7.198 -0.3405 -0.5432 -0.2333
  187SLPC   H4X21586   3.875   0.396   7.217  1.2364  0.2675 -0.2209
  187SLPC   H4Y21587   4.033   0.310   7.184 -0.3752  1.1711  0.6725
  187SLPC   C3521588   3.896   0.197   7.311 -0.2126  0.5960  0.2464
  187SLPC   H5X21589   3.949   0.103   7.285 -0.8393 -0.0847  1.3215
  187SLPC   H5Y21590   3.791   0.164   7.319 -0.0128  0.1465  1.2823
  187SLPC   C3621591   3.961   0.242   7.445  0.4313 -0.5484  0.4858
  187SLPC   H6X21592   3.951   0.353   7.450  3.1921 -0.0299 -2.3901
  187SLPC   H6Y21593   4.069   0.217   7.450  1.0419 -0.0003 -4.3468
  187SLPC   C3721594   3.873   0.192   7.560 -0.1374  0.6639 -0.1526
  187SLPC   H7X21595   3.765   0.215   7.543 -0.0924  1.9423  1.0097
  187SLPC   H7Y21596   3.873   0.081   7.565 -0.7027  0.5304 -2.2886
  187SLPC   C3821597   3.920   0.257   7.694  0.1135  0.4559  0.3333
  187SLPC   H8X21598   3.894   0.365   7.692 -2.2166 -0.0378  0.5571
  187SLPC   H8Y21599   4.029   0.239   7.682 -0.1744 -1.4020  0.0849
  187SLPC   C3921600   3.855   0.202   7.823 -0.1187 -0.3816  0.2377
  187SLPC   H9X21601   3.864   0.092   7.817  0.4685 -0.4370  1.7539
  187SLPC   H9Y21602   3.745   0.222   7.823 -0.1141 -0.3390  0.5285
  187SLPC  C31021603   3.923   0.246   7.956 -0.0393  0.0662 -0.4956
  187SLPC  H10X21604   3.910   0.352   7.986  4.2429  1.2167 -2.0512
  187SLPC  H10Y21605   4.034   0.238   7.948 -0.1000  1.1412 -3.4047
  187SLPC  C31121606   3.868   0.158   8.073  0.1751  0.0062  0.8093
  187SLPC  H11X21607   3.867   0.052   8.038  2.6590  0.3450 -0.5474
  187SLPC  H11Y21608   3.771   0.193   8.112  0.1241 -0.4081  1.0691
  187SLPC  C31221609   3.959   0.144   8.198  0.2018  0.2173  0.2293
  187SLPC  H12X21610   3.973   0.243   8.247 -1.8587  0.5432  0.2225
  187SLPC  H12Y21611   4.064   0.119   8.172  0.3231  1.5207 -0.6655
  187SLPC  C31321612   3.898   0.056   8.308  0.6810  0.2522  0.6855
  187SLPC  H13X21613   3.922  -0.047   8.274  2.3027  0.8924 -0.2274
  187SLPC  H13Y21614   3.790   0.079   8.303  0.4968 -0.7439 -0.3333
  187SLPC  C31421615   3.949   0.064   8.453  0.1255 -0.9754 -0.4757
  187SLPC  H14X21616   3.915   0.165   8.486  1.2896 -1.3052  1.9758
  187SLPC  H14Y21617   4.060   0.069   8.447  0.1474 -0.7292  0.0828
  187SLPC  C31521618   3.901  -0.048   8.547  0.2553  0.3031  0.9200
  187SLPC  H15X21619   3.954  -0.024   8.642  1.5326 -1.4964  0.7039
  187SLPC  H15Y21620   3.953  -0.141   8.515  0.6266  0.5741  0.7165
  187SLPC  C31621621   3.752  -0.070   8.550  0.0341  0.5298  0.2621
  187SLPC  H16X21622   3.722  -0.110   8.450 -1.4319  2.2817 -0.0508
  187SLPC  H16Y21623   3.701   0.027   8.566 -0.6680  0.3261 -0.6355
  187SLPC  C31721624   3.707  -0.166   8.664  0.0831 -0.7439 -0.3537
  187SLPC  H17X21625   3.753  -0.132   8.759  2.1136 -2.0141 -0.8060
  187SLPC  H17Y21626   3.744  -0.268   8.641  0.2779 -0.2539 -2.3181
  187SLPC  C31821627   3.554  -0.173   8.678  0.2073  0.0079  0.0712
  187SLPC  H18X21628   3.528  -0.248   8.756  0.4556  0.6771  0.8234
  187SLPC  H18Y21629   3.507  -0.211   8.586 -0.6881 -0.7440  0.8229
  187SLPC  H18Z21630   3.512  -0.071   8.695  0.7681  0.4850 -1.2649
  188SLPC     N21631   4.798   1.721   6.366  0.3015 -0.3316  0.1549
  188SLPC   C1321632   4.899   1.733   6.466 -0.0837  0.4657 -0.3034
  188SLPC  H13A21633   4.901   1.644   6.528  0.7599  0.0970 -0.8427
  188SLPC  H13B21634   4.993   1.735   6.412  0.0737 -1.1011 -0.1457
  188SLPC  H13C21635   4.889   1.816   6.534 -0.7934  0.5454 -0.5021
  188SLPC   C1421636   4.828   1.598   6.291  0.5420 -0.3980  0.2165
  188SLPC  H14A21637   4.833   1.507   6.349  0.9585  1.3766  3.1640
  188SLPC  H14B21638   4.747   1.587   6.220  0.6006 -1.4608  0.2976
  188SLPC  H14C21639   4.913   1.614   6.226  0.5015 -0.3135  0.1839
  188SLPC   C1521640   4.801   1.840   6.278 -0.2055  0.0030 -0.4563
  188SLPC  H15A21641   4.895   1.848   6.225 -0.9596  2.4471 -1.5781
  188SLPC  H15B21642   4.732   1.837   6.195 -1.4584 -0.4910  0.5684
  188SLPC  H15C21643   4.784   1.934   6.328 -0.1134  0.6477 -1.5979
  188SLPC   C1221644   4.665   1.709   6.444  0.0382  0.3326  0.9786
  188SLPC  H12A21645   4.589   1.699   6.368  1.7644  0.5396 -0.8442
  188SLPC  H12B21646   4.660   1.796   6.508 -2.5061 -0.1833  1.5785
  188SLPC   C1121647   4.660   1.587   6.538  0.6114  0.7277 -0.8689
  188SLPC  H11A21648   4.577   1.610   6.607  0.6916  1.7623 -1.0923
  188SLPC  H11B21649   4.746   1.567   6.605 -0.2205 -1.8625 -0.4716
  188SLPC     P21650   4.559   1.354   6.551 -0.1146 -0.2614  0.0263
  188SLPC   O1321651   4.417   1.385   6.582 -0.2531  0.1582  1.0236
  188SLPC   O1421652   4.587   1.226   6.488  0.4344  0.2540  0.2057
  188SLPC   O1221653   4.622   1.471   6.463  0.3299  0.1885  0.5419
  188SLPC   O1121654   4.643   1.365   6.689  0.3015  0.3860  0.5573
  188SLPC    C121655   4.716   1.252   6.736  0.9642  0.1423 -0.9526
  188SLPC    HA21656   4.647   1.174   6.775 -0.2522  1.0469 -1.2238
  188SLPC    HB21657   4.790   1.206   6.667  0.9213 -2.7843  0.7781
  188SLPC    C221658   4.816   1.299   6.853  1.1207  0.8914  0.4462
  188SLPC    HS21659   4.890   1.218   6.870  1.0624  1.0609  1.5764
  188SLPC   O2121660   4.738   1.333   6.969  0.4075  0.0768  0.3501
  188SLPC   C2121661   4.713   1.232   7.046 -0.3684  0.3813 -0.3908
  188SLPC   O2221662   4.757   1.116   7.025 -0.0168 -0.8073 -0.5496
  188SLPC   C2221663   4.607   1.265   7.161 -0.1453 -0.4110 -0.3837
  188SLPC   H2R21664   4.564   1.364   7.135 -0.2192 -0.9971 -2.6706
  188SLPC   H2S21665   4.520   1.199   7.141  0.1266 -0.2821 -2.0783
  188SLPC    C321666   4.895   1.423   6.805  0.9693  0.5501 -0.2297
  188SLPC    HX21667   4.824   1.508   6.799 -1.8157 -1.5510  0.5290
  188SLPC    HY21668   4.929   1.404   6.701 -0.5220 -1.2360 -0.4365
  188SLPC   O3121669   5.007   1.445   6.888 -0.1265  0.1036  0.6343
  188SLPC   C3121670   5.058   1.562   6.868 -0.3619 -0.0271 -0.6326
  188SLPC   O3221671   5.021   1.641   6.782 -0.5385 -0.1116 -0.1941
  188SLPC   C3221672   5.157   1.588   6.976  0.4240 -0.4540 -0.3848
  188SLPC   H2X21673   5.179   1.697   6.975 -1.0551 -0.1166  0.2797
  188SLPC   H2Y21674   5.248   1.527   6.960  0.2371 -0.4656 -1.5069
  188SLPC   C2321675   4.655   1.262   7.308 -0.4443 -0.1553 -0.7832
  188SLPC   H3R21676   4.725   1.178   7.325 -2.8727 -2.1040  0.1381
  188SLPC   H3S21677   4.568   1.225   7.367 -1.8644  2.4558 -1.0814
  188SLPC   C2421678   4.688   1.393   7.372  0.3552 -0.6806 -0.0230
  188SLPC   H4R21679   4.609   1.470   7.358  1.2105  0.3964  0.8655
  188SLPC   H4S21680   4.779   1.435   7.325  0.2959  0.4817  0.8371
  188SLPC   C2521681   4.698   1.378   7.529  0.0780  0.3564  0.9353
  188SLPC   H5R21682   4.766   1.292   7.547  0.8656  1.5021  4.1063
  188SLPC   H5S21683   4.601   1.361   7.580 -0.9043  1.7785 -0.3802
  188SLPC   C2621684   4.775   1.496   7.590  0.3561  0.1623  0.6293
  188SLPC   H6R21685   4.716   1.588   7.572 -0.0735  0.4771  3.3072
  188SLPC   H6S21686   4.877   1.514   7.548 -0.3055  1.3651 -0.5633
  188SLPC   C2721687   4.789   1.484   7.743 -0.2490  0.4153 -0.2036
  188SLPC   H7R21688   4.850   1.392   7.758  1.7495  1.9602  1.8690
  188SLPC   H7S21689   4.690   1.475   7.793  1.2092 -2.2031  2.6097
  188SLPC   C2821690   4.879   1.592   7.819 -0.4668 -0.3103  0.7336
  188SLPC   H8R21691   4.982   1.592   7.776 -0.8168 -1.5872 -0.1440
  188SLPC   H8S21692   4.884   1.547   7.920 -0.1438 -0.9835  0.4241
  188SLPC   C2921693   4.810   1.730   7.826 -0.1147  0.7652 -0.0469
  188SLPC   H9R21694   4.772   1.764   7.728 -0.0083 -0.4188 -0.5174
  188SLPC  C21021695   4.795   1.810   7.934 -0.1684  0.3882 -0.2846
  188SLPC  H10R21696   4.736   1.900   7.909  0.3803  0.7504 -0.2907
  188SLPC  C21121697   4.845   1.777   8.071  0.0761  0.5054  0.1003
  188SLPC  H11R21698   4.956   1.768   8.071 -0.0079 -2.1192  2.9353
  188SLPC  H11S21699   4.811   1.677   8.103  1.3656 -0.6456 -1.8722
  188SLPC  C21221700   4.811   1.891   8.161 -0.3199  0.5604  0.0690
  188SLPC  H12R21701   4.848   1.990   8.130 -0.4397  0.5292 -0.1761
  188SLPC  C21321702   4.732   1.896   8.268 -1.0151  0.9015  0.3949
  188SLPC  H13R21703   4.735   1.990   8.326 -1.5812  2.2244 -1.6083
  188SLPC  C21421704   4.649   1.783   8.325 -0.6083  0.0583  0.0122
  188SLPC  H14R21705   4.704   1.734   8.409 -1.6553  1.1102  1.3647
  188SLPC  H14S21706   4.630   1.702   8.252  0.6422 -1.4887  1.3072
  188SLPC  C21521707   4.519   1.839   8.379  0.1860  0.2593 -0.7725
  188SLPC  H15R21708   4.456   1.749   8.397  1.3986 -0.2105  1.3925
  188SLPC  H15S21709   4.470   1.910   8.308  1.1643  0.7146 -1.0142
  188SLPC  C21621710   4.529   1.912   8.519 -0.3422  0.4501 -0.4358
  188SLPC  H16R21711   4.614   1.983   8.517  0.7999 -0.7981  0.8779
  188SLPC  H16S21712   4.550   1.846   8.607  0.9883  0.1172 -0.9853
  188SLPC  C21721713   4.401   1.996   8.556  0.2759  0.0621 -0.3137
  188SLPC  H17R21714   4.373   2.052   8.464  1.9604  1.8858  0.2308
  188SLPC  H17S21715   4.433   2.059   8.641 -1.9120  1.5368 -0.5212
  188SLPC  C21821716   4.303   1.904   8.619  0.4454  0.4796 -0.6874
  188SLPC  H18R21717   4.239   1.968   8.684 -0.3560  0.0515 -1.0307
  188SLPC  H18S21718   4.341   1.822   8.682 -2.2275  0.7448  1.4790
  188SLPC  H18T21719   4.250   1.866   8.529  1.5833  2.2287 -2.1695
  188SLPC   C3321720   5.097   1.568   7.121 -0.5620  0.2950 -0.0418
  188SLPC   H3X21721   5.183   1.589   7.188  0.4278  1.3104 -1.5657
  188SLPC   H3Y21722   5.064   1.463   7.136 -2.1437  0.8915  0.8404
  188SLPC   C3421723   4.986   1.667   7.142 -0.3623 -0.5781  0.2267
  188SLPC   H4X21724   4.885   1.622   7.131  1.0041 -3.6304 -1.0308
  188SLPC   H4Y21725   4.986   1.752   7.070 -1.1985 -1.2875 -0.6447
  188SLPC   C3521726   5.000   1.738   7.281  0.0220 -0.2198  0.1248
  188SLPC   H5X21727   5.109   1.745   7.305  0.4882  1.7669 -2.1326
  188SLPC   H5Y21728   4.970   1.665   7.359 -0.7870 -1.1979 -1.0541
  188SLPC   C3621729   4.910   1.859   7.293 -0.9656 -0.3569  0.5120
  188SLPC   H6X21730   4.807   1.819   7.277  0.1233 -3.7646  1.3073
  188SLPC   H6Y21731   4.924   1.931   7.209 -0.1788  1.7022  2.3047
  188SLPC   C3721732   4.916   1.925   7.434 -0.5285  0.1110 -0.6909
  188SLPC   H7X21733   5.023   1.956   7.441 -0.6753  0.4566  0.1338
  188SLPC   H7Y21734   4.890   1.843   7.503 -0.0304  0.0068 -0.6216
  188SLPC   C3821735   4.810   2.035   7.447 -0.4538  0.1825 -0.2892
  188SLPC   H8X21736   4.720   2.018   7.383 -1.4268  0.3063  1.0001
  188SLPC   H8Y21737   4.854   2.128   7.405  0.5698 -0.8404 -1.5672
  188SLPC   C3921738   4.781   2.050   7.596  1.1792 -0.7319  0.2225
  188SLPC   H9X21739   4.872   2.066   7.658  1.3201  0.5686 -0.2834
  188SLPC   H9Y21740   4.717   1.963   7.621 -3.1681  2.2699  0.6123
  188SLPC  C31021741   4.687   2.175   7.638  0.7197  0.4439  0.2543
  188SLPC  H10X21742   4.589   2.165   7.588  0.0086 -2.2738  1.9834
  188SLPC  H10Y21743   4.730   2.272   7.602 -0.3983  0.4697 -1.0632
  188SLPC  C31121744   4.661   2.191   7.788  0.1610  0.1142  0.8459
  188SLPC  H11X21745   4.757   2.224   7.834  0.3831  1.8574 -0.7842
  188SLPC  H11Y21746   4.623   2.090   7.816 -0.6815 -0.5481 -2.3503
  188SLPC  C31221747   4.573   2.311   7.826  0.4185 -0.2778 -0.0680
  188SLPC  H12X21748   4.487   2.305   7.756 -1.1338  1.1492  1.6229
  188SLPC  H12Y21749   4.620   2.410   7.807  0.3608 -0.1020  0.6826
  188SLPC  C31321750   4.509   2.306   7.967 -0.2551 -0.5623 -0.0333
  188SLPC  H13X21751   4.446   2.216   7.978 -0.9371 -0.0007  0.8432
  188SLPC  H13Y21752   4.449   2.400   7.970 -0.1911 -0.5425  1.1968
  188SLPC  C31421753   4.614   2.308   8.063 -0.2148  0.2167  0.9321
  188SLPC  H14X21754   4.685   2.391   8.043 -1.2930  1.0223  0.3349
  188SLPC  H14Y21755   4.678   2.218   8.050  0.0976  0.3261  1.6757
  188SLPC  C31521756   4.572   2.322   8.211 -0.5949  0.0509 -0.3873
  188SLPC  H15X21757   4.500   2.246   8.248 -0.0049  0.2810  1.2762
  188SLPC  H15Y21758   4.515   2.416   8.224 -2.0884 -0.6269 -1.6153
  188SLPC  C31621759   4.691   2.310   8.303 -0.5125  0.1081  0.3068
  188SLPC  H16X21760   4.756   2.396   8.275 -1.8869  1.1355  0.1344
  188SLPC  H16Y21761   4.752   2.221   8.276 -0.4884  0.3706 -0.5148
  188SLPC  C31721762   4.669   2.320   8.452  0.2300 -0.1524 -0.4034
  188SLPC  H17X21763   4.615   2.229   8.485 -1.2954  1.3553  1.4424
  188SLPC  H17Y21764   4.603   2.403   8.482  0.3225 -0.0843 -0.3887
  188SLPC  C31821765   4.805   2.330   8.519  0.0940 -0.3317 -0.2325
  188SLPC  H18X21766   4.848   2.426   8.481  0.7242 -0.0981  1.0039
  188SLPC  H18Y21767   4.877   2.250   8.491 -0.7074 -0.2146 -2.8759
  188SLPC  H18Z21768   4.783   2.345   8.627 -0.8754  0.0384 -0.4692
  189SLPC     N21769   2.049   3.460   5.960  0.0604  0.1421  0.6282
  189SLPC   C1321770   2.033   3.334   6.036 -0.7637  0.1820 -0.4241
  189SLPC  H13A21771   2.009   3.352   6.140 -3.0892 -2.7098 -0.3355
  189SLPC  H13B21772   1.952   3.274   5.998 -0.9745  0.0778  0.1771
  189SLPC  H13C21773   2.123   3.275   6.026 -1.5742 -1.1464 -0.0932
  189SLPC   C1421774   2.049   3.430   5.812 -0.4880  0.4092  0.3112
  189SLPC  H14A21775   2.146   3.421   5.766  0.3703 -0.1730  2.1351
  189SLPC  H14B21776   1.987   3.345   5.790  0.4523 -0.3758  0.6095
  189SLPC  H14C21777   2.005   3.506   5.749  0.3655 -0.0728 -0.9020
  189SLPC   C1521778   2.186   3.516   5.992 -1.0540  0.1565 -0.6942
  189SLPC  H15A21779   2.202   3.603   5.930 -0.4981  0.4287 -0.1751
  189SLPC  H15B21780   2.202   3.535   6.097 -0.3068 -0.0295 -0.7682
  189SLPC  H15C21781   2.262   3.444   5.964 -1.0384  0.4538 -1.4571
  189SLPC   C1221782   1.939   3.559   5.986  0.2171 -0.4689 -0.4016
  189SLPC  H12A21783   1.858   3.520   5.927 -0.0532 -2.1587  0.9864
  189SLPC  H12B21784   1.970   3.654   5.945 -0.4180 -0.3695 -0.6475
  189SLPC   C1121785   1.897   3.605   6.129 -0.1375 -0.1708 -0.7177
  189SLPC  H11A21786   1.815   3.678   6.114 -0.8267 -1.1156 -1.7111
  189SLPC  H11B21787   1.985   3.651   6.179  1.8515 -3.1942 -1.1196
  189SLPC     P21788   1.699   3.474   6.238 -0.4480 -0.4194 -0.1510
  189SLPC   O1321789   1.631   3.458   6.108 -0.0168  0.2535 -0.5550
  189SLPC   O1421790   1.690   3.360   6.332 -0.0394 -0.9517 -0.2097
  189SLPC   O1221791   1.854   3.497   6.210  0.2369 -0.4660  0.2002
  189SLPC   O1121792   1.631   3.595   6.307 -0.1926 -0.2837 -1.1107
  189SLPC    C121793   1.695   3.706   6.369 -0.2861  0.0117 -0.7243
  189SLPC    HA21794   1.804   3.690   6.381 -0.5015 -1.9563 -1.0480
  189SLPC    HB21795   1.688   3.796   6.305 -0.5254  1.1922  0.8933
  189SLPC    C221796   1.639   3.738   6.511 -0.6220 -0.3148  0.2619
  189SLPC    HS21797   1.678   3.833   6.555 -1.0109 -0.7597  1.6091
  189SLPC   O2121798   1.674   3.631   6.604 -0.6820 -0.7111  0.2325
  189SLPC   C2121799   1.798   3.622   6.661 -0.0666 -0.9649  0.1733
  189SLPC   O2221800   1.895   3.691   6.633 -0.9007 -0.4867  0.1189
  189SLPC   C2221801   1.780   3.533   6.777 -0.1742 -0.1672  0.2166
  189SLPC   H2R21802   1.711   3.450   6.750 -0.2068  0.1778 -0.8003
  189SLPC   H2S21803   1.873   3.474   6.795 -0.3545 -1.1860 -1.8742
  189SLPC    C321804   1.480   3.757   6.513  0.0861  0.3838 -0.2756
  189SLPC    HX21805   1.435   3.656   6.525  2.3801 -0.5686  0.6889
  189SLPC    HY21806   1.453   3.807   6.417  2.3265 -0.3890 -1.3664
  189SLPC   O3121807   1.430   3.842   6.622  0.1439 -0.4065  0.2270
  189SLPC   C3121808   1.373   3.775   6.721  0.5011  0.5415  0.0602
  189SLPC   O3221809   1.341   3.658   6.718 -0.3666 -0.1191  0.4393
  189SLPC   C3221810   1.354   3.867   6.834 -0.9885  0.3072  0.3343
  189SLPC   H2X21811   1.271   3.937   6.810 -2.0836 -1.5497 -1.6472
  189SLPC   H2Y21812   1.449   3.921   6.856 -1.4855  1.2704  0.2112
  189SLPC   C2321813   1.722   3.589   6.907  0.1577 -0.1909  0.0684
  189SLPC   H3R21814   1.681   3.506   6.967  0.9178 -0.3925  0.3098
  189SLPC   H3S21815   1.637   3.657   6.884  1.1441  0.9979 -0.1615
  189SLPC   C2421816   1.828   3.661   6.999 -0.1192  0.1527  0.7305
  189SLPC   H4R21817   1.880   3.733   6.933  1.3347 -0.8155  0.7717
  189SLPC   H4S21818   1.896   3.584   7.041  1.0414  1.6874  1.7935
  189SLPC   C2521819   1.766   3.740   7.123 -0.9435 -0.2372 -0.1308
  189SLPC   H5R21820   1.682   3.799   7.081  0.9764  0.8874 -2.6680
  189SLPC   H5S21821   1.841   3.809   7.168 -2.4709  0.2289  1.8260
  189SLPC   C2621822   1.729   3.645   7.242 -0.2895 -0.2558  0.1128
  189SLPC   H6R21823   1.821   3.631   7.302  1.0694  0.8964 -1.5753
  189SLPC   H6S21824   1.696   3.548   7.199  2.8011 -1.2288 -0.2792
  189SLPC   C2721825   1.625   3.708   7.336 -0.4068  0.2583 -0.5653
  189SLPC   H7R21826   1.591   3.624   7.401 -0.1315 -0.9570 -1.9369
  189SLPC   H7S21827   1.534   3.730   7.276 -0.7659  0.1673 -0.0561
  189SLPC   C2821828   1.671   3.831   7.424  0.1066  0.0328  0.0903
  189SLPC   H8R21829   1.586   3.895   7.457 -0.8897 -0.8953 -0.5849
  189SLPC   H8S21830   1.736   3.902   7.368  0.5099  0.2273  0.7952
  189SLPC   C2921831   1.738   3.791   7.553 -0.4349  0.2276  0.2438
  189SLPC   H9R21832   1.846   3.778   7.537 -0.2228 -0.9985  2.3413
  189SLPC  C21021833   1.684   3.784   7.676  0.5262 -0.4112 -0.1044
  189SLPC  H10R21834   1.742   3.738   7.757  1.2130 -0.5665 -0.6774
  189SLPC  C21121835   1.536   3.817   7.708 -0.9033 -0.6219  0.7093
  189SLPC  H11R21836   1.478   3.786   7.619 -0.1148 -1.0415  0.3301
  189SLPC  H11S21837   1.533   3.928   7.702 -0.6550 -0.5894  1.1153
  189SLPC  C21221838   1.473   3.762   7.829  0.1249 -0.1178 -0.1315
  189SLPC  H12R21839   1.427   3.663   7.816  1.4627 -1.0192  1.5805
  189SLPC  C21321840   1.467   3.821   7.949  0.3278 -0.0724  0.7238
  189SLPC  H13R21841   1.420   3.763   8.030 -1.5214  1.0526  0.5252
  189SLPC  C21421842   1.523   3.955   7.975 -0.2386 -0.0119  0.2299
  189SLPC  H14R21843   1.442   4.030   7.962  0.7531  0.9994 -0.2921
  189SLPC  H14S21844   1.600   3.987   7.900 -0.1537 -2.6884 -0.9429
  189SLPC  C21521845   1.597   3.954   8.112  1.2865 -0.1825  0.6189
  189SLPC  H15R21846   1.657   4.048   8.115  1.6249 -0.2931 -1.3331
  189SLPC  H15S21847   1.676   3.878   8.123  3.4809  2.1191  1.8269
  189SLPC  C21621848   1.509   3.968   8.240  0.8293 -0.3076 -0.2107
  189SLPC  H16R21849   1.457   3.871   8.254 -0.5719  0.7796  3.1512
  189SLPC  H16S21850   1.445   4.059   8.239 -1.3984 -1.7414  1.2666
  189SLPC  C21721851   1.606   3.972   8.353  0.2799  0.8851 -0.0939
  189SLPC  H17R21852   1.669   4.063   8.344  1.0943  0.2635 -0.8244
  189SLPC  H17S21853   1.672   3.884   8.364 -0.6147  0.1810 -0.2306
  189SLPC  C21821854   1.535   3.968   8.493  0.2449 -0.3355  0.6054
  189SLPC  H18R21855   1.475   4.061   8.499  1.4351  0.4573  0.7200
  189SLPC  H18S21856   1.617   3.970   8.569  0.0144 -2.1764  0.9555
  189SLPC  H18T21857   1.480   3.873   8.508  1.1199 -0.7804  1.0608
  189SLPC   C3321858   1.311   3.781   6.956  0.0767  0.6734 -0.1205
  189SLPC   H3X21859   1.378   3.695   6.979  1.4601  1.5967 -0.5613
  189SLPC   H3Y21860   1.204   3.755   6.946 -0.9912  4.6281 -0.8625
  189SLPC   C3421861   1.317   3.872   7.084 -0.0178 -0.4722 -0.0693
  189SLPC   H4X21862   1.266   3.969   7.071  0.0565 -0.5728 -1.2875
  189SLPC   H4Y21863   1.422   3.896   7.113 -1.5836  3.9030  2.7998
  189SLPC   C3521864   1.250   3.789   7.193  0.4631 -0.2973  0.2411
  189SLPC   H5X21865   1.293   3.687   7.192 -1.8395 -1.3494 -0.6516
  189SLPC   H5Y21866   1.145   3.763   7.166  1.1157 -1.8226 -0.9791
  189SLPC   C3621867   1.262   3.863   7.327  0.0525  0.1237  0.2157
  189SLPC   H6X21868   1.215   3.964   7.325  2.6201  1.4503  2.0479
  189SLPC   H6Y21869   1.369   3.869   7.354  1.1660 -1.5311 -3.2815
  189SLPC   C3721870   1.183   3.780   7.427 -0.4772 -0.6348  0.0576
  189SLPC   H7X21871   1.249   3.691   7.441 -1.0308 -1.3297 -1.5367
  189SLPC   H7Y21872   1.082   3.749   7.392 -0.9042  0.0331  0.6669
  189SLPC   C3821873   1.163   3.841   7.567 -0.1632 -0.2541  0.2242
  189SLPC   H8X21874   1.083   3.914   7.542  0.6419  0.4945 -0.2209
  189SLPC   H8Y21875   1.244   3.908   7.602 -1.9777  1.4318  1.4150
  189SLPC   C3921876   1.110   3.744   7.672  0.0567 -0.0074 -0.0383
  189SLPC   H9X21877   1.188   3.674   7.710 -0.5094 -0.0482  1.0931
  189SLPC   H9Y21878   1.025   3.680   7.638  0.1824  0.2272 -0.8121
  189SLPC  C31021879   1.059   3.813   7.800 -1.1628 -0.5236 -0.2747
  189SLPC  H10X21880   0.986   3.893   7.776  0.2093  0.5034 -1.1783
  189SLPC  H10Y21881   1.146   3.869   7.842  0.6838 -1.1866 -2.9263
  189SLPC  C31121882   0.990   3.714   7.899  0.7035  0.0191  0.1202
  189SLPC  H11X21883   1.051   3.624   7.923  0.4624 -0.1735  0.0150
  189SLPC  H11Y21884   0.901   3.672   7.848  0.7660  1.5802 -1.3768
  189SLPC  C31221885   0.942   3.773   8.033 -0.3783  0.1363  0.9668
  189SLPC  H12X21886   0.873   3.702   8.084  0.0508  0.0831  1.4760
  189SLPC  H12Y21887   0.900   3.876   8.021 -0.1623  0.4136  2.3130
  189SLPC  C31321888   1.067   3.797   8.120 -0.1141  0.6367 -0.3306
  189SLPC  H13X21889   1.043   3.888   8.178  2.2002  1.1910 -0.1535
  189SLPC  H13Y21890   1.147   3.819   8.046 -0.2263 -0.1707 -0.7104
  189SLPC  C31421891   1.096   3.673   8.208 -0.2501 -0.1246 -0.3348
  189SLPC  H14X21892   1.133   3.591   8.143  3.0693  1.3370 -0.4921
  189SLPC  H14Y21893   1.003   3.634   8.255 -0.1665  1.7057  1.4853
  189SLPC  C31521894   1.201   3.694   8.320  0.2812 -0.0648  0.8145
  189SLPC  H15X21895   1.148   3.738   8.408 -1.3823  1.1345 -0.7212
  189SLPC  H15Y21896   1.272   3.767   8.277 -0.2875 -0.4506 -0.8524
  189SLPC  C31621897   1.280   3.564   8.349  0.0674 -0.2587  0.7247
  189SLPC  H16X21898   1.358   3.586   8.424  1.7329  0.0981 -1.0245
  189SLPC  H16Y21899   1.323   3.527   8.253 -1.7646 -0.7601  0.0616
  189SLPC  C31721900   1.186   3.459   8.406  0.0388  0.1386  0.1242
  189SLPC  H17X21901   1.118   3.436   8.322  0.0809  2.6942 -0.6867
  189SLPC  H17Y21902   1.132   3.499   8.495 -0.1576  1.6142 -0.6286
  189SLPC  C31821903   1.265   3.330   8.457 -0.3675 -0.0649  0.3897
  189SLPC  H18X21904   1.361   3.358   8.505 -0.1244  0.2852 -0.2833
  189SLPC  H18Y21905   1.280   3.263   8.370  2.2789 -0.1402  0.8436
  189SLPC  H18Z21906   1.209   3.282   8.541  1.1486 -0.4463  1.2065
  190SLPC     N21907   6.534   3.085   6.001  0.5335  0.1406 -0.2909
  190SLPC   C1321908   6.388   3.082   5.963  0.0325 -0.3119  0.5755
  190SLPC  H13A21909   6.347   3.182   5.966  0.2274 -0.2375  0.7553
  190SLPC  H13B21910   6.365   3.041   5.865 -0.9532 -0.1732  0.7373
  190SLPC  H13C21911   6.323   3.024   6.027 -0.0852  1.0459  1.7190
  190SLPC   C1421912   6.554   3.142   6.138 -0.5634  0.4736  0.5192
  190SLPC  H14A21913   6.503   3.084   6.213  0.6377 -2.0588 -0.4902
  190SLPC  H14B21914   6.659   3.143   6.163 -0.5353  1.1832  0.3863
  190SLPC  H14C21915   6.514   3.242   6.139 -0.0791  0.6789  0.1054
  190SLPC   C1521916   6.590   3.187   5.907  0.4448 -0.8454 -0.5044
  190SLPC  H15A21917   6.695   3.169   5.890  1.1973  1.3889  1.3554
  190SLPC  H15B21918   6.540   3.193   5.811  1.4371 -0.1315 -1.0002
  190SLPC  H15C21919   6.593   3.289   5.941  0.2993 -0.5386 -1.3858
  190SLPC   C1221920   6.597   2.952   5.986  0.1813 -0.1400  0.5230
  190SLPC  H12A21921   6.585   2.919   5.884  1.6389  0.7772  0.0302
  190SLPC  H12B21922   6.533   2.883   6.040 -1.9916  0.3001 -1.3404
  190SLPC   C1121923   6.743   2.935   6.025 -0.6219  0.1460 -0.2194
  190SLPC  H11A21924   6.807   3.015   5.981 -1.5963  1.1142  0.0716
  190SLPC  H11B21925   6.789   2.844   5.980  0.2983 -0.7378  2.3239
  190SLPC     P21926   6.740   2.813   6.254  0.3490 -0.3736  0.0425
  190SLPC   O1321927   6.603   2.754   6.248  0.1111 -0.4184 -0.3441
  190SLPC   O1421928   6.857   2.728   6.223  0.3852  0.4493 -0.5761
  190SLPC   O1221929   6.745   2.937   6.168  0.1963  0.0301 -0.8116
  190SLPC   O1121930   6.768   2.876   6.402  0.2954  0.8002 -0.8555
  190SLPC    C121931   6.852   2.990   6.420 -0.1392  0.7403  0.5058
  190SLPC    HA21932   6.958   2.978   6.389  0.5766  3.6148  1.4639
  190SLPC    HB21933   6.817   3.075   6.358 -0.0239 -0.8797 -1.9132
  190SLPC    C221934   6.855   3.030   6.572  0.3420 -0.5781  0.2313
  190SLPC    HS21935   6.934   3.105   6.593  0.3535  0.3812 -2.7215
  190SLPC   O2121936   6.867   2.914   6.662  0.1706  0.4708  0.4673
  190SLPC   C2121937   6.981   2.849   6.651  0.2365  0.3766 -0.1990
  190SLPC   O2221938   7.078   2.870   6.578  0.3579  0.3682  0.7428
  190SLPC   C2221939   6.987   2.747   6.767 -0.0624 -0.2818  0.0014
  190SLPC   H2R21940   6.923   2.662   6.735 -0.7007  0.8778 -1.9495
  190SLPC   H2S21941   7.093   2.716   6.779  0.5775  1.2002 -1.4920
  190SLPC    C321942   6.721   3.105   6.607 -0.3364 -0.6005 -0.3422
  190SLPC    HX21943   6.630   3.050   6.575 -0.2362 -0.3990 -0.9971
  190SLPC    HY21944   6.724   3.203   6.555  1.5152 -0.4599 -0.0319
  190SLPC   O3121945   6.708   3.148   6.744  0.0175  0.4570 -0.1879
  190SLPC   C3121946   6.649   3.057   6.823 -0.0239  0.4164  0.4571
  190SLPC   O3221947   6.595   2.952   6.787  0.5057 -0.1171 -1.0009
  190SLPC   C3221948   6.662   3.105   6.960  0.2104  0.7288  0.0418
  190SLPC   H2X21949   6.611   3.201   6.984  2.3777  2.0794 -0.4248
  190SLPC   H2Y21950   6.772   3.101   6.978 -0.1404 -2.5328  2.1199
  190SLPC   C2321951   6.944   2.794   6.908  0.1361  0.1203  0.0973
  190SLPC   H3R21952   6.834   2.804   6.913  0.1879  1.2652 -0.7402
  190SLPC   H3S21953   6.997   2.885   6.941 -1.2159  0.3561  1.7730
  190SLPC   C2421954   6.979   2.683   7.011 -0.1642  0.7344 -0.6280
  190SLPC   H4R21955   7.089   2.670   7.008 -0.3862 -1.7147  0.0963
  190SLPC   H4S21956   6.939   2.588   6.971 -2.7824  1.7925 -0.7363
  190SLPC   C2521957   6.923   2.709   7.154 -0.2809  1.2521  0.1264
  190SLPC   H5R21958   6.814   2.709   7.132 -0.9788 -1.1924  2.9873
  190SLPC   H5S21959   6.957   2.812   7.173  0.3659  0.9645  0.5457
  190SLPC   C2621960   6.957   2.602   7.252 -0.5035  0.3053  0.0271
  190SLPC   H6R21961   7.067   2.606   7.269 -0.7052  0.3787  1.4197
  190SLPC   H6S21962   6.932   2.501   7.214 -0.7167  0.2717  0.2597
  190SLPC   C2721963   6.891   2.609   7.393 -0.3023  0.4805  0.0621
  190SLPC   H7R21964   6.901   2.519   7.457  0.4666  0.8329  0.4463
  190SLPC   H7S21965   6.782   2.609   7.369 -0.2267 -1.6284 -0.4509
  190SLPC   C2821966   6.942   2.728   7.480  0.3530 -0.2624  0.1268
  190SLPC   H8R21967   6.870   2.745   7.563  0.0382 -2.6555  0.4076
  190SLPC   H8S21968   6.922   2.826   7.431 -1.9943  0.5206  2.3883
  190SLPC   C2921969   7.087   2.700   7.533  0.7715  0.0152 -0.6957
  190SLPC   H9R21970   7.162   2.708   7.453 -0.2002 -0.1120 -1.6475
  190SLPC  C21021971   7.130   2.669   7.658 -0.2695  0.6700 -0.2879
  190SLPC  H10R21972   7.237   2.657   7.680 -0.9683 -2.1343  2.2899
  190SLPC  C21121973   7.057   2.654   7.792  0.4105  0.3133  0.0662
  190SLPC  H11R21974   7.091   2.558   7.837  0.2179  0.1377 -0.1637
  190SLPC  H11S21975   6.956   2.615   7.771  0.4921 -0.1923  0.5809
  190SLPC  C21221976   7.044   2.763   7.899  0.2330  0.7745  0.0595
  190SLPC  H12R21977   6.962   2.834   7.881 -1.8533 -2.1404 -3.4734
  190SLPC  C21321978   7.134   2.781   8.002 -0.2445 -0.4833 -0.0322
  190SLPC  H13R21979   7.113   2.866   8.068 -3.7615 -0.0567 -1.4462
  190SLPC  C21421980   7.251   2.700   8.035 -0.0870 -0.0170  0.1184
  190SLPC  H14R21981   7.352   2.739   8.014 -1.2130  2.1283 -1.8107
  190SLPC  H14S21982   7.262   2.608   7.973  3.7029 -1.0404  2.0384
  190SLPC  C21521983   7.256   2.632   8.172  0.2230 -1.1494  0.6956
  190SLPC  H15R21984   7.345   2.566   8.172 -0.3071 -1.9090 -0.3994
  190SLPC  H15S21985   7.166   2.566   8.183 -0.5205 -0.0563  1.3398
  190SLPC  C21621986   7.272   2.732   8.287 -0.1720 -0.1104  0.1590
  190SLPC  H16R21987   7.179   2.792   8.277 -0.5190 -0.6369  0.1707
  190SLPC  H16S21988   7.361   2.799   8.293  1.3555 -2.1501  1.6120
  190SLPC  C21721989   7.265   2.669   8.429  0.2112 -0.8087 -0.7087
  190SLPC  H17R21990   7.169   2.618   8.452  0.8282 -1.3772  0.6913
  190SLPC  H17S21991   7.266   2.749   8.505 -2.3400 -3.3162  2.2166
  190SLPC  C21821992   7.377   2.567   8.462 -0.5808  0.7158 -0.6691
  190SLPC  H18R21993   7.362   2.530   8.566  0.1987  0.0658 -0.7859
  190SLPC  H18S21994   7.475   2.619   8.452 -0.4218  0.6189  0.2963
  190SLPC  H18T21995   7.390   2.484   8.390  1.0492 -1.4337  1.9347
  190SLPC   C3321996   6.620   2.994   7.060 -0.2008 -0.5073  0.6118
  190SLPC   H3X21997   6.677   2.900   7.042 -0.0232 -0.4346  0.7839
  190SLPC   H3Y21998   6.512   2.975   7.046 -0.3235  0.2738  0.4399
  190SLPC   C3421999   6.632   3.045   7.204  0.2920  0.3139 -0.4081
  190SLPC   H4X22000   6.553   3.120   7.226 -2.1786 -2.1695 -0.1724
  190SLPC   H4Y22001   6.739   3.067   7.225  0.2567 -1.3074  1.7680
  190SLPC   C3522002   6.599   2.933   7.294  0.1074  0.6205  0.1626
  190SLPC   H5X22003   6.681   2.858   7.307  0.1932  0.7679  0.4793
  190SLPC   H5Y22004   6.516   2.875   7.248  0.9675  0.5061 -1.3109
  190SLPC   C3622005   6.567   2.975   7.439  0.3999 -0.1710  0.4369
  190SLPC   H6X22006   6.481   3.045   7.444  0.7085  0.2220  0.2540
  190SLPC   H6Y22007   6.657   3.032   7.472 -1.1426  2.1083  0.9445
  190SLPC   C3722008   6.542   2.857   7.541  0.2076  0.3197  0.1737
  190SLPC   H7X22009   6.615   2.774   7.535 -1.6548 -1.3599 -0.3519
  190SLPC   H7Y22010   6.446   2.806   7.518 -1.5404  2.6586  1.8721
  190SLPC   C3822011   6.525   2.919   7.681  0.2052  0.1771  0.2946
  190SLPC   H8X22012   6.444   2.994   7.673  0.0925  0.0846  0.5820
  190SLPC   H8Y22013   6.617   2.974   7.711  1.2598  0.6359 -3.2460
  190SLPC   C3922014   6.488   2.813   7.787 -0.2427 -0.2435  0.4714
  190SLPC   H9X22015   6.401   2.749   7.764 -1.1471 -0.1926  3.3895
  190SLPC   H9Y22016   6.462   2.870   7.879  2.1137  1.2292  0.2993
  190SLPC  C31022017   6.610   2.731   7.818 -0.3981  0.1352 -0.6434
  190SLPC  H10X22018   6.695   2.799   7.837 -0.2350 -0.3713  0.5657
  190SLPC  H10Y22019   6.654   2.679   7.731  0.9863  0.1762  0.0110
  190SLPC  C31122020   6.594   2.636   7.933  0.4554  0.0275  0.0608
  190SLPC  H11X22021   6.534   2.550   7.894  2.8538 -4.1966  4.5652
  190SLPC  H11Y22022   6.533   2.676   8.017 -2.2602  0.1589 -1.8261
  190SLPC  C31222023   6.727   2.588   7.986 -0.2637 -0.6537  0.6052
  190SLPC  H12X22024   6.779   2.656   8.057 -0.4179  1.0997 -0.9055
  190SLPC  H12Y22025   6.797   2.570   7.902 -0.8834 -1.5585  0.2698
  190SLPC  C31322026   6.707   2.458   8.066 -0.6999 -0.2926  0.6986
  190SLPC  H13X22027   6.665   2.377   8.001 -1.3020  0.3068  0.3322
  190SLPC  H13Y22028   6.630   2.488   8.140 -0.0105  0.2283  1.2089
  190SLPC  C31422029   6.843   2.397   8.121  0.1865  0.0618 -0.5566
  190SLPC  H14X22030   6.895   2.465   8.192  0.6368 -0.1218 -0.7055
  190SLPC  H14Y22031   6.911   2.380   8.035  0.5729 -1.0653 -0.0458
  190SLPC  C31522032   6.824   2.272   8.215 -0.2444 -0.4762  0.3195
  190SLPC  H15X22033   6.823   2.184   8.147 -0.2954 -0.9825  0.9681
  190SLPC  H15Y22034   6.730   2.273   8.274 -0.4605  2.2472  0.0804
  190SLPC  C31622035   6.949   2.253   8.317  0.6233  0.1893 -0.2125
  190SLPC  H16X22036   7.046   2.273   8.265  0.8653  0.1577  0.2271
  190SLPC  H16Y22037   6.953   2.146   8.348 -2.0230  0.2722  0.6879
  190SLPC  C31722038   6.931   2.338   8.436 -0.2327 -0.2031  0.0225
  190SLPC  H17X22039   6.836   2.320   8.491 -0.3368 -0.1821 -0.1498
  190SLPC  H17Y22040   6.924   2.442   8.400 -2.9483 -0.4822 -0.4815
  190SLPC  C31822041   7.035   2.304   8.543 -0.5397 -0.4579 -0.4749
  190SLPC  H18X22042   7.140   2.324   8.511 -1.1939  1.9411 -1.3351
  190SLPC  H18Y22043   7.017   2.196   8.561 -1.9246 -0.6082 -2.5233
  190SLPC  H18Z22044   7.026   2.365   8.635 -1.1473  0.1355 -0.9233
  191SLPC     N22045   0.601   5.195   5.605  0.0853 -0.1843  0.3752
  191SLPC   C1322046   0.720   5.156   5.526 -0.0007  0.2566  0.6032
  191SLPC  H13A22047   0.806   5.219   5.542 -0.0769  0.1460  1.4981
  191SLPC  H13B22048   0.761   5.062   5.561  1.9400  0.2263 -1.5070
  191SLPC  H13C22049   0.690   5.138   5.424  0.2377 -2.2010  0.9006
  191SLPC   C1422050   0.504   5.079   5.619  0.2794  0.8812  0.2421
  191SLPC  H14A22051   0.480   5.036   5.522  0.8708  0.3622  0.3216
  191SLPC  H14B22052   0.543   4.995   5.675  1.2417  0.7504 -0.5999
  191SLPC  H14C22053   0.412   5.104   5.669 -0.4942 -2.7234  0.9431
  191SLPC   C1522054   0.540   5.304   5.528 -0.1370 -0.4706  0.0005
  191SLPC  H15A22055   0.599   5.394   5.519  0.9770 -1.0964  0.7057
  191SLPC  H15B22056   0.511   5.278   5.427  0.4639  1.2360 -0.6536
  191SLPC  H15C22057   0.447   5.335   5.572  0.5351  0.6858  0.6327
  191SLPC   C1222058   0.649   5.254   5.735  0.1277 -0.7591  0.8577
  191SLPC  H12A22059   0.566   5.301   5.786 -0.8278  0.8254 -1.9536
  191SLPC  H12B22060   0.719   5.335   5.720 -1.3172  0.8547  2.3675
  191SLPC   C1122061   0.719   5.155   5.831 -0.1332 -0.3653 -0.3329
  191SLPC  H11A22062   0.659   5.066   5.857  0.9210 -0.9813  0.0369
  191SLPC  H11B22063   0.725   5.207   5.930 -1.0795  0.1427 -0.5307
  191SLPC     P22064   0.982   5.171   5.834 -0.1652  0.0310 -0.5468
  191SLPC   O1322065   1.096   5.094   5.781  0.1704 -0.3033  0.1166
  191SLPC   O1422066   0.984   5.315   5.814 -0.0993 -0.1417  0.5725
  191SLPC   O1222067   0.846   5.113   5.783 -0.1828 -0.1633 -0.1478
  191SLPC   O1122068   0.983   5.143   5.993  0.4271  0.1580  0.0620
  191SLPC    C122069   0.998   5.021   6.059  0.0435 -0.1509  0.0013
  191SLPC    HA22070   1.037   4.942   5.991  0.0172  0.5796 -0.8925
  191SLPC    HB22071   1.064   5.030   6.148 -0.3799  2.0309  0.1398
  191SLPC    C222072   0.866   4.973   6.119  0.1024  0.4237 -0.8928
  191SLPC    HS22073   0.781   4.986   6.050 -1.2480 -0.4381  0.5339
  191SLPC   O2122074   0.835   5.052   6.238  0.0259  0.2352 -0.0755
  191SLPC   C2122075   0.738   5.019   6.324  0.7264 -0.4701  0.1166
  191SLPC   O2222076   0.657   4.935   6.310  0.4120  0.0526  0.0023
  191SLPC   C2222077   0.734   5.139   6.422 -0.2726 -0.7594 -0.5390
  191SLPC   H2R22078   0.832   5.158   6.472 -1.1662  1.1941  0.6120
  191SLPC   H2S22079   0.730   5.242   6.380  0.5260  0.1720  1.5269
  191SLPC    C322080   0.883   4.820   6.149  0.1023  0.8494 -0.7082
  191SLPC    HX22081   0.900   4.774   6.049  1.7897 -0.3585  0.0793
  191SLPC    HY22082   0.791   4.775   6.193  1.4011 -2.0999 -0.7311
  191SLPC   O3122083   1.001   4.794   6.231 -0.0949 -0.6774  0.1731
  191SLPC   C3122084   0.983   4.780   6.360 -0.2278 -0.0390  0.6985
  191SLPC   O3222085   0.880   4.761   6.418  0.2588 -0.1398 -0.2164
  191SLPC   C3222086   1.114   4.801   6.420 -0.5559  0.2320 -0.8453
  191SLPC   H2X22087   1.169   4.891   6.384  0.7103 -0.7583 -1.4776
  191SLPC   H2Y22088   1.185   4.720   6.393  1.5059  1.6043  0.1293
  191SLPC   C2322089   0.615   5.135   6.513  0.7235 -0.8458  0.2373
  191SLPC   H3R22090   0.590   5.034   6.551  1.0108  0.1156  3.2385
  191SLPC   H3S22091   0.527   5.160   6.450  0.4643 -0.6323  0.6767
  191SLPC   C2422092   0.632   5.215   6.640  0.5843  0.6418 -0.3469
  191SLPC   H4R22093   0.660   5.320   6.617 -0.3792  0.7920 -0.8680
  191SLPC   H4S22094   0.708   5.177   6.712  0.7121  1.0873 -0.2417
  191SLPC   C2522095   0.498   5.222   6.714 -0.4651 -0.3993  0.6686
  191SLPC   H5R22096   0.467   5.117   6.730 -0.3689 -0.2983  1.5878
  191SLPC   H5S22097   0.417   5.266   6.653 -0.6542 -0.1058  1.1256
  191SLPC   C2622098   0.500   5.291   6.850 -0.3230 -0.1326 -0.2230
  191SLPC   H6R22099   0.518   5.400   6.839 -1.0967 -0.0927 -1.3078
  191SLPC   H6S22100   0.588   5.257   6.907  0.6706  2.1467 -0.2958
  191SLPC   C2722101   0.366   5.260   6.930 -0.9108  0.5182  0.5518
  191SLPC   H7R22102   0.335   5.155   6.910 -1.6486  0.9586 -0.7291
  191SLPC   H7S22103   0.286   5.328   6.894  1.3397  2.8541 -0.3275
  191SLPC   C2822104   0.368   5.282   7.088 -0.0941  0.0786 -0.3720
  191SLPC   H8R22105   0.265   5.257   7.121 -0.3370  1.9730  0.4105
  191SLPC   H8S22106   0.388   5.391   7.099 -0.0415  0.1440 -1.0518
  191SLPC   C2922107   0.473   5.189   7.144  0.3485 -0.0459 -0.1118
  191SLPC   H9R22108   0.523   5.126   7.069 -0.3475 -0.4936 -0.2051
  191SLPC  C21022109   0.512   5.198   7.268 -0.0815  0.0014 -0.1090
  191SLPC  H10R22110   0.592   5.127   7.294 -0.5631 -0.2313  0.8025
  191SLPC  C21122111   0.478   5.287   7.384  0.3364  0.3976  0.0902
  191SLPC  H11R22112   0.439   5.384   7.346  0.6531  0.1926 -0.7851
  191SLPC  H11S22113   0.572   5.310   7.437 -0.1207  1.6588  0.3933
  191SLPC  C21222114   0.368   5.219   7.464 -0.3876 -0.1653  1.0127
  191SLPC  H12R22115   0.311   5.144   7.408  1.4413 -0.7606 -0.1312
  191SLPC  C21322116   0.334   5.268   7.585 -0.5396 -0.0359 -0.0678
  191SLPC  H13R22117   0.252   5.218   7.640 -0.8682  0.8274  0.2430
  191SLPC  C21422118   0.409   5.372   7.666  0.2390  0.9999  0.3547
  191SLPC  H14R22119   0.518   5.365   7.645 -0.0547  0.1515 -1.0007
  191SLPC  H14S22120   0.393   5.345   7.773 -0.1330 -1.7364 -0.3143
  191SLPC  C21522121   0.378   5.521   7.648 -0.6283  0.0643 -0.1766
  191SLPC  H15R22122   0.426   5.546   7.552  2.2347  0.0239  1.1515
  191SLPC  H15S22123   0.434   5.577   7.726 -1.9726  0.4648  0.5495
  191SLPC  C21622124   0.232   5.556   7.665 -1.1427 -0.3605  0.6533
  191SLPC  H16R22125   0.168   5.529   7.579  1.2669  1.4372 -1.8515
  191SLPC  H16S22126   0.221   5.667   7.666 -1.8712 -0.4228  0.2048
  191SLPC  C21722127   0.162   5.493   7.791  0.0261 -0.4010 -0.0516
  191SLPC  H17R22128   0.163   5.385   7.764  1.0510 -0.4811  0.2887
  191SLPC  H17S22129   0.053   5.514   7.791 -0.0489 -0.5439 -2.0541
  191SLPC  C21822130   0.224   5.517   7.924  0.2214 -0.0290 -0.0405
  191SLPC  H18R22131   0.330   5.482   7.932  0.1807 -0.7073 -1.9668
  191SLPC  H18S22132   0.164   5.445   7.984  0.2585 -0.1810 -0.1862
  191SLPC  H18T22133   0.222   5.619   7.967 -1.0677  0.4932 -1.2726
  191SLPC   C3322134   1.093   4.814   6.572 -0.8373  0.2976  0.0158
  191SLPC   H3X22135   1.191   4.802   6.623 -1.2039  2.0449  1.2160
  191SLPC   H3Y22136   1.030   4.731   6.608  0.8271 -1.8559 -1.7662
  191SLPC   C3422137   1.044   4.953   6.616 -0.0960  0.0103 -0.0697
  191SLPC   H4X22138   0.947   4.961   6.563 -1.0636 -0.3196  1.5819
  191SLPC   H4Y22139   1.125   5.025   6.589  1.1280 -0.9125  1.0125
  191SLPC   C3522140   1.002   4.957   6.769 -0.3715  0.1665  0.1084
  191SLPC   H5X22141   1.014   5.062   6.803 -2.0200  0.5076 -0.2695
  191SLPC   H5Y22142   1.080   4.891   6.813  0.0220  1.7684  1.9402
  191SLPC   C3622143   0.864   4.911   6.808  0.3529  0.2208 -0.1869
  191SLPC   H6X22144   0.829   4.817   6.761 -1.3351  1.0939 -0.7679
  191SLPC   H6Y22145   0.795   4.991   6.772  0.7517  0.3854 -0.6120
  191SLPC   C3722146   0.850   4.893   6.962  0.5293 -0.1500  1.2672
  191SLPC   H7X22147   0.935   4.827   6.991  0.5626 -0.9586 -0.5034
  191SLPC   H7Y22148   0.760   4.835   6.990  0.8505 -1.3319 -0.0477
  191SLPC   C3822149   0.859   5.023   7.046 -0.1786 -0.0269 -0.2202
  191SLPC   H8X22150   0.768   5.083   7.030  0.0501  0.2465 -0.5113
  191SLPC   H8Y22151   0.942   5.093   7.021 -1.5184  1.0486 -1.8725
  191SLPC   C3922152   0.869   4.998   7.198 -0.4451  0.6907  0.3729
  191SLPC   H9X22153   0.957   4.931   7.210 -0.7083  0.0194 -1.1625
  191SLPC   H9Y22154   0.784   4.940   7.240 -0.2190 -0.2731 -0.4670
  191SLPC  C31022155   0.899   5.128   7.274  0.0564 -0.6442 -0.5748
  191SLPC  H10X22156   0.823   5.202   7.241  0.5252 -0.6624 -1.7535
  191SLPC  H10Y22157   0.991   5.184   7.245 -0.5852  1.3085  0.9177
  191SLPC  C31122158   0.889   5.130   7.431 -0.2438 -0.0117 -0.1648
  191SLPC  H11X22159   0.977   5.091   7.486 -0.5158 -0.9007 -0.3478
  191SLPC  H11Y22160   0.800   5.065   7.447 -0.3664 -0.1174 -1.1944
  191SLPC  C31222161   0.882   5.277   7.478  0.9720  0.3530 -0.0941
  191SLPC  H12X22162   0.784   5.324   7.455  0.9242 -0.6926 -2.2258
  191SLPC  H12Y22163   0.960   5.329   7.419  1.3749 -0.5508 -0.3668
  191SLPC  C31322164   0.915   5.276   7.630 -0.6369 -0.0479  0.0040
  191SLPC  H13X22165   0.918   5.382   7.662  0.0406  0.2021 -0.8362
  191SLPC  H13Y22166   1.009   5.229   7.665 -1.2854  0.5944  2.8502
  191SLPC  C31422167   0.809   5.206   7.716 -0.1492 -0.3917 -0.2141
  191SLPC  H14X22168   0.835   5.103   7.747 -3.1125 -1.3602 -0.6720
  191SLPC  H14Y22169   0.715   5.193   7.659 -1.1812  0.4613  1.2412
  191SLPC  C31522170   0.784   5.286   7.845 -0.0624  0.2699  1.1541
  191SLPC  H15X22171   0.724   5.374   7.814  0.4734  0.3197  0.1980
  191SLPC  H15Y22172   0.868   5.317   7.911  0.4857  0.5493  0.3447
  191SLPC  C31622173   0.681   5.223   7.931  0.0917  0.5497  0.6563
  191SLPC  H16X22174   0.720   5.129   7.976 -0.5018 -0.3160 -0.5902
  191SLPC  H16Y22175   0.592   5.200   7.870  0.5719  0.5182 -0.0448
  191SLPC  C31722176   0.624   5.309   8.051 -0.1371 -0.3637 -0.7150
  191SLPC  H17X22177   0.612   5.414   8.016 -0.4470 -0.7986 -1.9532
  191SLPC  H17Y22178   0.707   5.306   8.125 -1.3006  0.5942  0.6944
  191SLPC  C31822179   0.494   5.260   8.116 -0.3801  0.9405 -0.1818
  191SLPC  H18X22180   0.457   5.319   8.203 -2.3036 -0.5123  0.0653
  191SLPC  H18Y22181   0.506   5.153   8.145 -1.0573  0.5420 -1.3226
  191SLPC  H18Z22182   0.405   5.253   8.050 -1.5606 -5.5825  1.3908
  192SLPC     N22183   2.746   6.037   6.238 -0.1010  0.7597  0.4131
  192SLPC   C1322184   2.867   6.069   6.324 -0.0133  0.1139 -0.0969
  192SLPC  H13A22185   2.935   6.132   6.269  1.3014 -0.8077  0.4147
  192SLPC  H13B22186   2.836   6.097   6.423 -0.4323 -2.0275  0.4408
  192SLPC  H13C22187   2.926   5.979   6.341  0.8815  1.3180  4.3340
  192SLPC   C1422188   2.778   5.960   6.118 -0.0257 -0.6384 -0.2597
  192SLPC  H14A22189   2.838   6.014   6.047 -1.5394  0.4367 -0.7824
  192SLPC  H14B22190   2.833   5.871   6.148 -1.4217 -1.3496  0.2992
  192SLPC  H14C22191   2.689   5.931   6.065 -0.8018  1.8478 -0.4449
  192SLPC   C1522192   2.704   6.166   6.179 -0.2251  0.6035  0.6643
  192SLPC  H15A22193   2.774   6.227   6.124 -1.5943  0.1847 -1.6722
  192SLPC  H15B22194   2.620   6.142   6.116  0.6035  1.7081 -0.9313
  192SLPC  H15C22195   2.658   6.221   6.260 -0.7604  0.9457  0.1262
  192SLPC   C1222196   2.634   5.982   6.320  0.1894 -0.2783  0.4632
  192SLPC  H12A22197   2.664   5.882   6.350  3.1942  1.1068  2.5713
  192SLPC  H12B22198   2.544   5.974   6.261 -0.7310  1.1043  1.6120
  192SLPC   C1122199   2.592   6.057   6.452 -0.2911 -0.0022 -0.3322
  192SLPC  H11A22200   2.674   6.065   6.526  1.1240 -0.3287 -1.7920
  192SLPC  H11B22201   2.513   5.986   6.486 -1.3217  0.9169 -0.7477
  192SLPC     P22202   2.401   6.216   6.494 -0.3467 -0.0125  0.1618
  192SLPC   O1322203   2.384   6.360   6.501  0.3636  0.3120 -0.0523
  192SLPC   O1422204   2.292   6.141   6.425 -0.2670 -0.1300  0.3689
  192SLPC   O1222205   2.537   6.183   6.429  0.3962  0.1706  0.2885
  192SLPC   O1122206   2.423   6.148   6.635  0.2823 -0.6556  0.2339
  192SLPC    C122207   2.469   6.218   6.755 -0.4382  0.1361  0.2476
  192SLPC    HA22208   2.471   6.329   6.752 -3.8808  0.2805 -1.2379
  192SLPC    HB22209   2.404   6.180   6.837  0.2567 -1.4361  0.0846
  192SLPC    C222210   2.615   6.159   6.795  0.4184  0.5852  0.8927
  192SLPC    HS22211   2.680   6.204   6.717 -0.2974  0.2732  0.0904
  192SLPC   O2122212   2.608   6.013   6.790 -0.7452  0.3183 -0.3506
  192SLPC   C2122213   2.724   5.951   6.781  0.1503 -0.3858 -0.2378
  192SLPC   O2222214   2.832   6.005   6.761  0.4184 -0.1414  0.1380
  192SLPC   C2222215   2.697   5.799   6.776  0.4417 -0.4636  0.1115
  192SLPC   H2R22216   2.623   5.784   6.695  0.3421 -0.2053  0.1542
  192SLPC   H2S22217   2.794   5.746   6.760  0.2883 -1.7236  2.6806
  192SLPC    C322218   2.660   6.215   6.933 -0.9843 -0.2098  0.2059
  192SLPC    HX22219   2.617   6.317   6.943 -0.9217 -0.3548  2.5860
  192SLPC    HY22220   2.771   6.225   6.925 -1.0566  0.4367 -0.0335
  192SLPC   O3122221   2.630   6.124   7.047 -0.4602 -0.2696  0.1539
  192SLPC   C3122222   2.515   6.167   7.111 -0.3600 -0.6296 -0.5795
  192SLPC   O3222223   2.443   6.255   7.077  0.6986 -0.1995  0.1325
  192SLPC   C3222224   2.481   6.065   7.214 -0.2810  0.5371  0.9357
  192SLPC   H2X22225   2.576   6.047   7.269 -0.9492 -0.5808  1.7896
  192SLPC   H2Y22226   2.448   5.971   7.165 -0.7875  1.4512 -0.5306
  192SLPC   C2322227   2.631   5.759   6.911 -0.0794  0.6096  0.0221
  192SLPC   H3R22228   2.613   5.650   6.907  2.2245  0.2190 -2.2867
  192SLPC   H3S22229   2.529   5.803   6.920 -0.8374 -0.8076 -1.1091
  192SLPC   C2422230   2.719   5.793   7.028 -0.0129  0.6359  0.3434
  192SLPC   H4R22231   2.676   5.772   7.128  1.2945 -0.7309  0.6516
  192SLPC   H4S22232   2.720   5.904   7.037 -0.5293  0.5705  1.2441
  192SLPC   C2522233   2.858   5.739   7.031  0.4972 -0.9782 -0.4797
  192SLPC   H5R22234   2.910   5.748   6.934  1.3410  0.4882  0.0678
  192SLPC   H5S22235   2.867   5.630   7.046  1.2511 -0.6935  1.6122
  192SLPC   C2622236   2.950   5.818   7.125 -0.2348 -0.5075  0.0769
  192SLPC   H6R22237   2.943   5.920   7.079  2.0298 -1.1593 -1.9204
  192SLPC   H6S22238   3.058   5.792   7.120  0.5290  1.5542  3.0914
  192SLPC   C2722239   2.894   5.828   7.270  0.2551 -0.0894 -0.4276
  192SLPC   H7R22240   2.785   5.841   7.285  0.8112  3.0001  2.1991
  192SLPC   H7S22241   2.928   5.919   7.325 -0.5519 -1.2577  2.1790
  192SLPC   C2822242   2.954   5.711   7.347  0.4781 -0.7335 -0.3500
  192SLPC   H8R22243   3.061   5.701   7.316  0.4658 -2.5634  0.1235
  192SLPC   H8S22244   2.900   5.622   7.309 -0.9526  0.3563 -0.9766
  192SLPC   C2922245   2.935   5.736   7.501 -0.3611 -0.3273 -0.4088
  192SLPC   H9R22246   2.970   5.836   7.531  0.0134  0.1572 -2.3540
  192SLPC  C21022247   2.893   5.649   7.594  0.0495 -0.6853  0.1610
  192SLPC  H10R22248   2.878   5.684   7.697 -1.8150  0.6776 -0.5224
  192SLPC  C21122249   2.858   5.503   7.566 -0.2388 -0.1162  0.3383
  192SLPC  H11R22250   2.929   5.467   7.490 -1.6347  1.5948 -1.9067
  192SLPC  H11S22251   2.759   5.487   7.518  0.6264 -3.6820 -0.5658
  192SLPC  C21222252   2.870   5.410   7.686 -1.2741 -0.4840 -0.2341
  192SLPC  H12R22253   2.950   5.336   7.671  1.3448  2.1353 -0.0960
  192SLPC  C21322254   2.784   5.417   7.793 -1.0791 -0.1438  0.2027
  192SLPC  H13R22255   2.799   5.347   7.877 -0.7783  0.7932  0.9441
  192SLPC  C21422256   2.660   5.501   7.813 -1.1552 -0.0795  0.1851
  192SLPC  H14R22257   2.569   5.437   7.810 -1.5847  0.5468 -0.3278
  192SLPC  H14S22258   2.647   5.589   7.746  0.3179 -0.9548 -1.3303
  192SLPC  C21522259   2.660   5.564   7.950  0.0027 -0.6781 -0.1866
  192SLPC  H15R22260   2.748   5.631   7.961 -1.2660  1.5771 -2.6354
  192SLPC  H15S22261   2.683   5.496   8.035  2.0085  0.0422 -0.0856
  192SLPC  C21622262   2.539   5.659   7.976  0.1322 -0.2466 -0.6453
  192SLPC  H16R22263   2.445   5.600   7.970 -0.5575  0.7413  0.0976
  192SLPC  H16S22264   2.522   5.734   7.896 -3.7562  0.4391  0.5848
  192SLPC  C21722265   2.549   5.729   8.114 -0.3752 -0.3285  0.2011
  192SLPC  H17R22266   2.567   5.657   8.198 -0.0054  0.9975  1.2936
  192SLPC  H17S22267   2.622   5.811   8.101 -2.1955  1.2146 -0.7181
  192SLPC  C21822268   2.421   5.803   8.141  0.7537 -0.6795  0.7089
  192SLPC  H18R22269   2.397   5.871   8.056  2.1655 -2.3889 -1.1669
  192SLPC  H18S22270   2.418   5.847   8.243  1.1808  2.5593 -0.5419
  192SLPC  H18T22271   2.333   5.735   8.144 -0.7302  1.1899  2.9320
  192SLPC   C3322272   2.383   6.113   7.323  1.2765 -0.1741 -0.6729
  192SLPC   H3X22273   2.293   6.148   7.266  1.1379  1.7651  0.6536
  192SLPC   H3Y22274   2.420   6.202   7.379  1.3345 -1.3526  1.2030
  192SLPC   C3422275   2.342   6.014   7.431  0.8422 -0.9690  0.3244
  192SLPC   H4X22276   2.431   5.985   7.491  1.4504  0.0709 -0.0550
  192SLPC   H4Y22277   2.298   5.922   7.385 -0.5300 -0.1339 -0.1023
  192SLPC   C3522278   2.230   6.094   7.509  0.3498 -0.0699 -0.0264
  192SLPC   H5X22279   2.156   6.155   7.452 -0.0699  2.9873  3.3797
  192SLPC   H5Y22280   2.275   6.173   7.572  0.5662  0.2430 -0.5661
  192SLPC   C3622281   2.154   6.001   7.607 -0.0417 -0.4856  0.6424
  192SLPC   H6X22282   2.225   5.949   7.674  0.6189 -0.6577 -0.1697
  192SLPC   H6Y22283   2.115   5.922   7.539 -0.6342 -0.1056  0.5329
  192SLPC   C3722284   2.042   6.078   7.687  0.2639  0.0968  0.4135
  192SLPC   H7X22285   1.970   6.107   7.607  0.7478 -0.1467 -0.1191
  192SLPC   H7Y22286   2.085   6.167   7.737  0.5654  0.8495 -1.1314
  192SLPC   C3822287   1.963   5.991   7.795  0.2276  0.0490  0.2659
  192SLPC   H8X22288   1.897   5.924   7.734  0.7840 -1.1124  0.9034
  192SLPC   H8Y22289   1.895   6.059   7.849 -1.5357 -1.4180  0.0116
  192SLPC   C3922290   2.065   5.918   7.879  0.2881  0.3716  0.1527
  192SLPC   H9X22291   2.140   5.981   7.931 -0.1006  0.3255  0.7778
  192SLPC   H9Y22292   2.126   5.854   7.812 -1.5226  0.9970 -2.2559
  192SLPC  C31022293   2.009   5.837   7.997 -0.5797 -0.1253  0.4104
  192SLPC  H10X22294   1.987   5.917   8.070 -1.2749  1.7252 -1.7012
  192SLPC  H10Y22295   2.087   5.771   8.039 -1.5815 -1.7220 -0.1331
  192SLPC  C31122296   1.872   5.766   7.973 -0.2198 -0.6002 -0.6702
  192SLPC  H11X22297   1.863   5.712   7.876 -0.6794  0.3245 -1.1543
  192SLPC  H11Y22298   1.788   5.838   7.975  1.2250  1.2190  2.5369
  192SLPC  C31222299   1.845   5.658   8.080  0.6552 -0.0358 -0.2442
  192SLPC  H12X22300   1.930   5.586   8.078 -0.9245 -2.0212  0.1753
  192SLPC  H12Y22301   1.746   5.609   8.064 -1.0946  2.4634  2.0127
  192SLPC  C31322302   1.828   5.728   8.218  0.0280  0.3091  0.4173
  192SLPC  H13X22303   1.913   5.795   8.243 -1.6197  2.2280  1.1780
  192SLPC  H13Y22304   1.820   5.637   8.281  0.2963 -0.4402 -0.6085
  192SLPC  C31422305   1.706   5.818   8.242  0.0161 -0.4372  0.5912
  192SLPC  H14X22306   1.718   5.923   8.208 -0.4280  0.2361  2.3819
  192SLPC  H14Y22307   1.702   5.836   8.351  2.0726 -0.6402  0.7390
  192SLPC  C31522308   1.562   5.781   8.178 -0.0441 -0.1346 -0.6955
  192SLPC  H15X22309   1.545   5.671   8.184  1.1106 -0.2617  0.9847
  192SLPC  H15Y22310   1.548   5.820   8.075 -3.0430  1.6305  0.2753
  192SLPC  C31622311   1.443   5.836   8.261 -0.3464 -0.3714 -0.3146
  192SLPC  H16X22312   1.464   5.943   8.286  0.4768 -0.2672 -1.3782
  192SLPC  H16Y22313   1.421   5.780   8.354 -0.3366  0.5001  0.2301
  192SLPC  C31722314   1.308   5.831   8.181  0.8424  0.7375  0.2335
  192SLPC  H17X22315   1.267   5.728   8.188 -1.6291  1.6982  1.4555
  192SLPC  H17Y22316   1.345   5.861   8.081  0.2528 -1.3795 -0.6656
  192SLPC  C31822317   1.198   5.918   8.229 -0.2172 -0.5478  0.2006
  192SLPC  H18X22318   1.105   5.913   8.168  0.3451 -2.3315 -0.5691
  192SLPC  H18Y22319   1.226   6.025   8.215 -0.9362 -0.4926 -0.9636
  192SLPC  H18Z22320   1.176   5.894   8.335  0.3362  0.1163  0.4728
  193SOD    SOD22321   3.055   1.641  12.279 -0.0453 -0.0501  0.0066
  194SOD    SOD22322   0.651   0.512   1.967  0.5076  0.4586  0.0706
  195SOD    SOD22323   2.609   2.473   5.497 -0.0052  0.1045  0.5892
  196SOD    SOD22324   4.596   3.199   3.576  0.1137  0.5374  0.0871
  197SOD    SOD22325   0.974   0.355   2.581  0.1217 -0.2428 -0.2066
  198SOD    SOD22326   4.478   5.122   2.148 -0.4373 -0.2468 -0.3602
  199SOD    SOD22327   2.722   4.911   2.388  0.1265 -0.1878 -0.2540
  200SOD    SOD22328   0.393   5.887  11.345 -0.5448  0.1132 -0.3116
  201SOD    SOD22329   3.159   5.466   5.409 -0.5743  0.0994 -0.3797
  202SOD    SOD22330   2.759   4.077   2.955 -0.3174  0.1198 -0.0605
  203SOD    SOD22331   6.153   2.253   1.017 -0.0895 -0.3128 -0.4837
  204SOD    SOD22332   1.450   5.678  10.590  0.4408 -0.0326 -0.2856
  205SOD    SOD22333   0.586   0.659   3.534  0.2000  0.1156 -0.3606
  206SOD    SOD22334   1.727   3.919   4.995 -0.1306 -0.5565  0.2216
  207SOD    SOD22335   6.531   3.677   5.221  0.5541  0.1943  0.0771
  208SOD    SOD22336   6.306   6.109  15.371 -0.3179  0.2581 -0.1227
  209SOD    SOD22337   0.692   3.976  11.469  0.3828  0.0971  0.1057
  210SOD    SOD22338   0.712   0.990  11.915 -0.2486 -0.1774 -0.2649
  211SOD    SOD22339   3.287   4.184   6.469 -0.7237 -0.0163 -0.1059
  212SOD    SOD22340   1.176   0.771  13.517  0.1782  0.0698 -0.0340
  213SOD    SOD22341   5.390   5.177  12.406  0.0337  0.0891  0.6659
  214SOD    SOD22342   4.197   1.590   6.317  0.1684  0.0111  0.7567
  215SOD    SOD22343   0.333   1.483  14.744 -0.1039  0.3488  0.4074
  216SOD    SOD22344   6.244   6.224   6.083  0.0732  0.1857  0.0037
  217SOD    SOD22345   6.254   4.394   3.714 -0.9182 -0.0667 -0.3423
  218SOD    SOD22346   2.551   5.587  11.017 -0.2906  0.0839  0.0211
  219SOD    SOD22347   2.229   1.822   3.582  0.1483  0.2187 -0.8915
  220SOD    SOD22348   3.408   5.579  13.624 -0.0804  0.4499 -0.1700
  221SOD    SOD22349   5.934   2.116  10.245 -0.6411  0.1339 -0.1082
  222SOD    SOD22350   5.005   6.547   0.891  0.4430 -0.1579  0.0411
  223SOD    SOD22351   5.564   4.665  15.141 -0.1539 -0.1279  0.5407
  224SOD    SOD22352   6.714   5.500   2.679 -0.2829  0.2069 -0.0071
  225SOD    SOD22353   4.908   1.953  10.657 -0.2134  0.0463 -0.6110
  226SOD    SOD22354   3.268   0.511  11.781 -0.6282  0.0360 -0.1062
  227SOD    SOD22355   5.458   1.011  11.259  0.4113 -0.6681  0.2613
  228SOD    SOD22356   4.894   0.891   5.200 -0.0667 -0.1505  0.1315
  229SOD    SOD22357   6.147   2.241   4.822 -0.0643 -0.2926 -0.2500
  230SOD    SOD22358   6.101   6.041  14.456 -0.3377  0.4837  0.3331
  231SOD    SOD22359   4.152   5.651  16.730  0.0062 -0.0533  0.2655
  232SOD    SOD22360   6.514   4.494  11.059 -0.0690  0.0828  0.3132
  233SOD    SOD22361   1.366   3.298   0.765  0.4193 -0.0850  0.6491
  234SOD    SOD22362   4.437   4.172  11.554  0.2490 -0.4760  0.5757
  235SOD    SOD22363   3.966   4.621  11.699  0.2919 -0.4953  0.2702
  236SOD    SOD22364   3.534   0.970   5.893  0.1100 -0.2927  0.4715
  237SOD    SOD22365   0.382   2.907   6.206  0.3102  0.1911  0.1845
  238SOD    SOD22366   0.024   5.874  16.041 -0.4774  0.0205  0.1060
  239SOD    SOD22367   4.972   2.559  16.516  0.1030 -0.3044 -0.3124
  240SOD    SOD22368   2.351   1.988  16.920  0.0742  0.6943  0.3409
  241SOD    SOD22369   6.099   5.754   4.705 -0.9325  0.5153 -0.0741
  242SOD    SOD22370   4.515   2.839   0.622  0.3482 -0.3740 -0.2834
  243SOD    SOD22371   4.172   1.900  11.905 -0.0062 -0.1926  0.1825
  244SOD    SOD22372   2.038   1.143  13.924  0.0163 -0.0189 -0.3102
  245SOD    SOD22373   3.496   1.200   2.109  0.1193  0.1992  0.3363
  246SOD    SOD22374   5.980   2.559   1.943  0.3034  0.1185 -0.1671
  247SOD    SOD22375   1.513   3.137   4.381 -0.1144  0.3418 -0.2197
  248SOD    SOD22376   4.513   2.228   3.496  0.0670  0.0737 -0.4240
  249SOD    SOD22377   0.081   3.881  11.019  0.0984  0.2920  0.0062
  250SOD    SOD22378   0.237   1.519  11.915  0.6260 -0.1711  0.2894
  251SOD    SOD22379   4.688   6.157  15.742  0.3746  0.0711 -0.3631
  252SOD    SOD22380   6.708   5.542  10.883 -0.1283 -0.0597 -0.0757
  253SOD    SOD22381   4.604   6.575   5.056  0.1014  0.4836  0.4494
  254SOD    SOD22382   1.574   2.943  13.840  0.0987  0.0650  0.6164
  255SOD    SOD22383   1.658   1.761   5.662 -0.1309 -0.2108  0.2577
  256SOD    SOD22384   3.278   4.053  10.755  0.7064 -0.3813  0.0119
  257SOD    SOD22385   2.797   3.076  15.437  0.6225 -0.3414  0.4563
  258SOD    SOD22386   5.768   2.554   5.465 -0.0623 -0.3906 -0.0682
  259SOD    SOD22387   5.027   3.549  12.057 -0.2812 -0.0533  0.3147
  260SOD    SOD22388   3.452   6.557   2.377 -0.0136 -0.0272  0.1739
  261SOD    SOD22389   5.556   3.691  15.261 -0.2427 -0.3010  0.5187
  262SOD    SOD22390   3.219   0.848  13.449  0.1332  0.4388  0.6552
  263SOD    SOD22391   1.995   5.117   1.586 -0.3402  0.0820 -0.1669
  264SOD    SOD22392   1.969   1.719   4.323 -0.0842 -0.4314 -0.1190
  265SOD    SOD22393   6.583   1.688   0.517 -0.0821  0.2803  0.1155
  266CLA    CLA22394   4.141   0.288   2.071  0.1480  0.3966 -0.3383
  267CLA    CLA22395   5.453   2.412   1.398 -0.2946  0.1099  0.1626
  268CLA    CLA22396   2.041   1.678  13.996  0.1781  0.4965  0.1236
  269CLA    CLA22397   0.912   5.696  11.415 -0.5393  0.4113 -0.3592
  270CLA    CLA22398   6.684   4.826   3.368 -0.0920 -0.0227 -0.0440
  271CLA    CLA22399   5.156   2.607   3.638  0.2185  0.3299 -0.6369
  272CLA    CLA22400   6.527   3.862  14.170  0.4166  0.0580 -0.0372
  273CLA    CLA22401   1.059   3.668   0.838 -0.3400  0.2580 -0.1053
  274CLA    CLA22402   1.667   3.282  11.942 -0.4512  0.2660  0.3671
  275CLA    CLA22403   3.526   1.428  11.864  0.0689  0.4065 -0.5690
  276CLA    CLA22404   2.388   0.049   3.071 -0.2161 -0.1335 -0.0415
  277CLA    CLA22405   1.052   2.394   5.635  0.1486  0.4604  0.2624
  278CLA    CLA22406   4.536   4.962  15.154  0.2625  0.0862 -0.4034
  279CLA    CLA22407   3.788   5.601   4.381 -0.2671  0.3076  0.1023
  280CLA    CLA22408   1.933   1.834   2.519 -0.0346 -0.1433 -0.1000
  281CLA    CLA22409   2.655   3.782  10.820  0.2297  0.2867  0.4367
  282CLA    CLA22410   3.051   3.489   3.852 -0.2928  0.1786 -0.3560
  283CLA    CLA22411   0.589   6.430   2.254 -0.0188 -0.0976  0.3554
  284CLA    CLA22412   1.118   2.014  12.285  0.2970  0.0217  0.0265
  285CLA    CLA22413   4.847   0.611  16.669  0.3190  0.1563  0.0965
  286CLA    CLA22414   5.059   0.304   4.584 -0.0618  0.3270 -0.0069
  287CLA    CLA22415   2.692   0.252   2.078 -0.0951 -0.3798  0.3034
  288CLA    CLA22416   1.050   6.772  14.629 -0.3293  0.7263  0.1059
  289CLA    CLA22417   3.421   3.012  15.771 -0.1897  0.1774 -0.3901
  290CLA    CLA22418   5.156   2.420  13.542 -0.3135 -0.2216  0.3980
  291CLA    CLA22419   6.286   6.686  15.335  0.1556 -0.1175  0.0782
  292CLA    CLA22420   1.032   5.798   3.279 -0.2111 -0.1487  0.2174
  293CLA    CLA22421   5.559   5.715  15.342  0.1109  0.1105 -0.2542
  294CLA    CLA22422   4.320   0.385  16.997  0.0442  0.0715 -0.2335
  295CLA    CLA22423   0.137   2.598  12.012 -0.2664 -0.2086  0.1035
  296CLA    CLA22424   1.322   3.147   5.300  0.1901  0.3972 -0.1993
  297CLA    CLA22425   2.825   3.271   5.623 -0.1029  0.3202  0.3611
  298CLA    CLA22426   5.705   6.591   3.076 -0.3353 -0.3942  0.1664
  299CLA    CLA22427   2.736   5.589  16.506 -0.1819 -0.2810  0.2342
  300CLA    CLA22428   4.367   4.294  13.084  0.0726  0.5971  0.0428
  301CLA    CLA22429   0.346   1.311   4.953 -0.0795 -0.1465 -0.1533
  302CLA    CLA22430   2.397   4.564  11.480 -0.1597 -0.2673 -0.1461
  303CLA    CLA22431   5.701   5.899  14.192  0.3069  0.1800 -0.0067
  304CLA    CLA22432   1.669   1.903   0.204 -0.0132  0.4554 -0.0270
  305CLA    CLA22433   0.237   5.017  11.396  0.0270  0.0866 -0.2906
  306CLA    CLA22434   4.157   1.716   1.978 -0.2563  0.0601  0.0252
  307CLA    CLA22435   1.507   0.313  12.795 -0.2504  0.0185 -0.3490
  308CLA    CLA22436   5.864   0.780  14.649  0.2782  0.2964 -0.2222
  309CLA    CLA22437   3.974   5.551   1.949  0.0644 -0.0139  0.1637
  310CLA    CLA22438   3.606   2.043   0.035 -0.1825 -0.4937  0.2905
  311CLA    CLA22439   0.994   5.628   2.816 -0.4852  0.2164 -0.1959
  312CLA    CLA22440   3.217   6.706  13.013 -0.0990  0.0555 -0.1626
  313CLA    CLA22441   6.210   4.081   5.145  0.0146  0.1187 -0.5063
  314CLA    CLA22442   1.738   2.468   4.650 -0.5901 -0.2697  0.2597
  315CLA    CLA22443   6.098   3.098  16.960  0.2952 -0.1166 -0.5771
  316CLA    CLA22444   5.972   3.396   1.795 -0.2438  0.5500 -0.3893
  317CLA    CLA22445   4.751   6.630  15.747 -0.4991 -0.2002  0.0796
  318CLA    CLA22446   2.893   5.863  13.601  0.2020 -0.1983 -0.3605
  319TIP3   OH222447   5.157   4.474   6.423 -0.2756  0.1444 -0.1764
  319TIP3    H122448   5.237   4.432   6.455  0.9433  1.0576 -1.8369
  319TIP3    H222449   5.086   4.432   6.472  1.0947 -1.7380  0.3177
  320TIP3   OH222450   2.555   6.285  11.705  0.2117 -0.1217  0.3912
  320TIP3    H122451   2.482   6.332  11.744 -1.0605 -2.5586  1.1525
  320TIP3    H222452   2.574   6.214  11.767  1.5978 -1.0167 -0.9777
  321TIP3   OH222453   2.331   1.791   5.496 -0.3160 -0.1538 -0.3514
  321TIP3    H122454   2.280   1.805   5.576 -0.1917  0.9994 -0.4650
  321TIP3    H222455   2.415   1.832   5.514 -0.6417  1.0616 -1.4495
  322TIP3   OH222456   6.778   3.852  10.640 -0.3334  0.2653  0.0698
  322TIP3    H122457   6.690   3.889  10.638 -0.7882 -0.6373  1.5104
  322TIP3    H222458   6.764   3.757  10.640  0.6036  0.1074  1.0508
  323TIP3   OH222459   0.448   0.887   1.819 -0.4536  0.1332 -0.3630
  323TIP3    H122460   0.471   0.905   1.727  0.1565  0.6865 -0.1182
  323TIP3    H222461   0.360   0.923   1.829 -0.7480 -0.4197 -0.8664
  324TIP3   OH222462   0.460   6.627   4.913 -0.0209  0.2940  0.3390
  324TIP3    H122463   0.543   6.597   4.950 -0.8989  0.1858  2.3793
  324TIP3    H222464   0.394   6.574   4.958 -1.2634  1.1759 -0.3938
  325TIP3   OH222465   6.186   0.120  16.537 -0.0696 -0.3943  0.1012
  325TIP3    H122466   6.154   0.079  16.456  0.9874  0.9412 -1.0354
  325TIP3    H222467   6.129   0.197  16.548  1.5111  1.0041 -0.9701
  326TIP3   OH222468   1.964   3.977   5.709  0.2090  0.1700  0.1763
  326TIP3    H122469   1.907   4.012   5.777 -0.6087  1.4888 -1.1399
  326TIP3    H222470   2.035   4.040   5.702  0.8093 -0.4587  0.4429
  327TIP3   OH222471   3.239   1.021   4.710 -0.2455 -0.5526  0.3505
  327TIP3    H122472   3.280   1.044   4.627 -1.3065  0.4360  0.0773
  327TIP3    H222473   3.304   1.045   4.777  0.3071 -0.6386 -0.1546
  328TIP3   OH222474   2.575   5.982  10.703  0.1501  0.1563 -0.1198
  328TIP3    H122475   2.562   5.888  10.693  0.4737 -0.0322  1.0570
  328TIP3    H222476   2.499   6.012  10.752  1.3453  0.0004  1.9376
  329TIP3   OH222477   4.953   1.246  12.794 -0.2618  0.1185 -0.5085
  329TIP3    H122478   4.901   1.229  12.716 -0.2421  0.1191 -0.5211
  329TIP3    H222479   5.032   1.193  12.782  0.0467  0.6352 -0.8106
  330TIP3   OH222480   5.405   5.087  15.963 -0.5104  0.4504  0.0487
  330TIP3    H122481   5.360   5.027  16.023  2.1590 -2.3667 -0.5288
  330TIP3    H222482   5.344   5.098  15.890 -1.7535 -0.1452  0.9534
  331TIP3   OH222483   4.160   2.986  12.975 -0.1223  0.1614 -0.0189
  331TIP3    H122484   4.099   2.999  13.049 -1.2646  0.8839 -1.0485
  331TIP3    H222485   4.245   3.009  13.011 -0.6536  0.4877  1.0959
  332TIP3   OH222486   5.245   3.086  12.779 -0.4231 -0.3740  0.5633
  332TIP3    H122487   5.312   3.023  12.805  0.4012  1.1709  2.4601
  332TIP3    H222488   5.292   3.149  12.724 -1.1149 -1.0347 -0.8471
  333TIP3   OH222489   4.352   1.669   4.145 -0.4842  0.5816  0.2117
  333TIP3    H122490   4.441   1.673   4.110 -0.7887  0.4752 -0.5888
  333TIP3    H222491   4.322   1.759   4.147  0.3286  0.8694  2.3532
  334TIP3   OH222492   5.776   4.837   0.266 -0.3276 -0.1324  0.2731
  334TIP3    H122493   5.773   4.809   0.357 -1.2138 -0.9358  0.0150
  334TIP3    H222494   5.812   4.761   0.219 -1.4187 -0.3434 -0.2480
  335TIP3   OH222495   6.202   3.869   1.993 -0.1478  0.0299  0.2105
  335TIP3    H122496   6.191   3.774   1.994 -1.1574  0.1119 -1.1525
  335TIP3    H222497   6.225   3.890   1.903 -1.0348  1.1858  0.2285
  336TIP3   OH222498   0.225   3.621  14.312  0.4850 -0.0084 -0.0601
  336TIP3    H122499   0.309   3.598  14.353  1.0641 -1.7463 -2.0806
  336TIP3    H222500   0.217   3.715  14.328  1.7529 -0.1650  1.9953
  337TIP3   OH222501   5.667   5.441   4.576 -0.8547 -0.2651  0.3271
  337TIP3    H122502   5.757   5.473   4.566 -0.8343  0.1964  1.7399
  337TIP3    H222503   5.620   5.515   4.615 -1.7817 -0.6159 -0.0957
  338TIP3   OH222504   5.355   2.322  16.540 -0.1206  0.3274 -0.6683
  338TIP3    H122505   5.358   2.251  16.476  0.3385  1.5035 -1.9933
  338TIP3    H222506   5.447   2.336  16.564 -0.3644 -0.9244  1.2509
  339TIP3   OH222507   4.351   0.064   5.780  0.3013 -0.0324 -0.1876
  339TIP3    H122508   4.326   0.086   5.870 -0.2109 -1.7622  0.1465
  339TIP3    H222509   4.407   0.135   5.752  0.3199  0.6401  1.4476
  340TIP3   OH222510   6.166   1.140   0.706 -0.1724  0.1466 -0.4473
  340TIP3    H122511   6.096   1.083   0.737 -0.0957  0.8638  1.1121
  340TIP3    H222512   6.246   1.089   0.719 -0.1702  0.3274  0.2762
  341TIP3   OH222513   0.823   5.433   0.090 -0.6062  0.6994  0.3174
  341TIP3    H122514   0.775   5.393   0.163  0.2566 -0.0170  0.5152
  341TIP3    H222515   0.777   5.403   0.011 -0.0040 -0.6951  0.4635
  342TIP3   OH222516   5.871   5.414  14.577  0.2741 -0.2558 -1.0653
  342TIP3    H122517   5.960   5.445  14.556 -0.2169  2.4967  0.4234
  342TIP3    H222518   5.813   5.480  14.539 -0.9968 -0.5087  0.3378
  343TIP3   OH222519   3.674   5.714  13.254 -0.4614  0.8339  0.1896
  343TIP3    H122520   3.726   5.720  13.174  1.1648  3.1881  1.2973
  343TIP3    H222521   3.586   5.692  13.225  0.9279 -2.7187 -1.8355
  344TIP3   OH222522   4.161   5.596  11.102 -0.3786 -0.5143  0.2124
  344TIP3    H122523   4.247   5.638  11.108 -1.1335  0.9866  0.8138
  344TIP3    H222524   4.105   5.660  11.059 -1.0224 -1.8081 -0.9778
  345TIP3   OH222525   6.732   5.023   0.730 -0.1737  0.2276  0.8419
  345TIP3    H122526   6.791   5.096   0.749 -0.0126  0.5254 -0.7142
  345TIP3    H222527   6.789   4.947   0.723  0.0167  0.4642 -0.3643
  346TIP3   OH222528   4.210   4.004  15.031 -0.0046 -0.4233  0.5163
  346TIP3    H122529   4.139   3.953  15.070 -0.8369 -0.2440 -0.7002
  346TIP3    H222530   4.288   3.980  15.081 -0.3111 -3.0781 -0.1604
  347TIP3   OH222531   4.216   4.678   4.455  0.2920 -0.5749  0.5294
  347TIP3    H122532   4.206   4.636   4.369  0.9173 -0.7594  0.5401
  347TIP3    H222533   4.242   4.768   4.434  1.0948 -0.8006  0.5258
  348TIP3   OH222534   0.611   5.958   5.793 -0.3403 -0.0988 -0.2871
  348TIP3    H122535   0.657   5.923   5.870 -0.8682 -1.0895 -0.4209
  348TIP3    H222536   0.680   5.971   5.728  0.0332  0.2685  0.1668
  349TIP3   OH222537   4.555   1.087   0.531  0.5804  0.1884 -0.2795
  349TIP3    H122538   4.508   1.014   0.491 -1.7797  1.6912 -0.4645
  349TIP3    H222539   4.541   1.075   0.625  2.0715 -0.7499 -0.1528
  350TIP3   OH222540   3.584   5.400   5.482 -0.2178  0.5092 -0.0129
  350TIP3    H122541   3.638   5.336   5.435 -2.2063  0.3244 -2.2477
  350TIP3    H222542   3.626   5.484   5.465  1.0721  0.0808  0.9260
  351TIP3   OH222543   6.624   5.859  17.038 -0.9008 -0.5763  0.4429
  351TIP3    H122544   6.609   5.926  17.104  0.4068  2.0542 -1.7496
  351TIP3    H222545   6.540   5.852  16.991 -0.5981  0.8317 -0.3655
  352TIP3   OH222546   2.350   4.490  16.732 -0.2113 -0.6765  0.1667
  352TIP3    H122547   2.312   4.542  16.661 -0.0705  0.7103  1.0731
  352TIP3    H222548   2.444   4.488  16.711  0.0252  0.8327  0.9543
  353TIP3   OH222549   3.485   0.121   4.343  0.2696 -0.2527  0.8868
  353TIP3    H122550   3.515   0.192   4.400  0.4848  0.8061 -0.5059
  353TIP3    H222551   3.543   0.125   4.267  0.9954 -2.6255  1.2223
  354TIP3   OH222552   4.588   4.125  11.079 -0.1344 -0.2319 -0.5305
  354TIP3    H122553   4.603   4.033  11.102  2.4050  0.5519  1.4926
  354TIP3    H222554   4.496   4.140  11.098 -0.0341 -1.7834  1.6133
  355TIP3   OH222555   5.083   4.626   5.167  0.6947  0.2371  0.1778
  355TIP3    H122556   5.029   4.548   5.175 -0.0180  0.6720 -0.2611
  355TIP3    H222557   5.110   4.628   5.075  0.7668  0.4663  0.2007
  356TIP3   OH222558   5.157   1.616  14.009 -0.5436  0.0351  0.8672
  356TIP3    H122559   5.128   1.637  13.920 -1.7090  1.0014  1.4505
  356TIP3    H222560   5.203   1.532  13.999 -1.0422 -0.1067 -0.5722
  357TIP3   OH222561   6.218   2.487  14.826 -0.1279  0.6831 -0.0062
  357TIP3    H122562   6.168   2.428  14.883  1.5733  0.3643  1.2239
  357TIP3    H222563   6.227   2.438  14.744 -0.3705  0.0393  0.3393
  358TIP3   OH222564   0.741   0.478  16.562 -0.4056  0.0398  0.2670
  358TIP3    H122565   0.712   0.471  16.471  0.3245  2.0280 -0.1712
  358TIP3    H222566   0.828   0.438  16.563 -0.5668 -0.3169  0.1826
  359TIP3   OH222567   1.159   0.766   1.371 -0.1677 -0.1753 -0.1369
  359TIP3    H122568   1.246   0.794   1.343 -0.1442  0.6544  0.7349
  359TIP3    H222569   1.157   0.782   1.465 -1.8237  1.4482 -0.3868
  360TIP3   OH222570   5.896   3.089   1.426 -0.4576  0.0145  0.8597
  360TIP3    H122571   5.835   3.081   1.352 -0.2381  1.3592  0.5122
  360TIP3    H222572   5.855   3.153   1.484 -0.1738 -0.3358  1.4596
  361TIP3   OH222573   0.929   1.994  16.125 -0.9486 -0.0800  0.2161
  361TIP3    H122574   0.994   1.934  16.088 -0.0178  0.7440  0.4931
  361TIP3    H222575   0.860   1.998  16.059 -0.5504 -0.6824 -0.2466
  362TIP3   OH222576   2.468   1.424  14.303 -0.5271 -0.3709  0.5101
  362TIP3    H122577   2.502   1.514  14.304  1.3065 -0.9898 -0.4065
  362TIP3    H222578   2.509   1.382  14.378 -0.5652 -0.7052  0.3456
  363TIP3   OH222579   5.245   2.252   0.037 -0.2892  0.4976 -0.1301
  363TIP3    H122580   5.317   2.256  -0.026 -1.0044 -0.0354 -1.0121
  363TIP3    H222581   5.257   2.169   0.082 -2.9795 -2.1523 -3.6689
  364TIP3   OH222582   0.385   2.841  15.657 -0.3055  0.4013 -0.1815
  364TIP3    H122583   0.387   2.884  15.572 -0.5718 -0.1521 -0.4758
  364TIP3    H222584   0.421   2.754  15.641 -1.4334 -0.1219  0.0216
  365TIP3   OH222585   3.959   5.334  12.996  0.1721  0.0545  0.0032
  365TIP3    H122586   4.037   5.309  12.947 -0.0486 -1.1821  0.2498
  365TIP3    H222587   3.887   5.320  12.935  0.2334  3.0700 -0.9134
  366TIP3   OH222588   3.059   4.673   0.565 -0.3905 -0.7322  0.1621
  366TIP3    H122589   3.077   4.635   0.479  0.1935 -0.7928  0.3068
  366TIP3    H222590   3.035   4.597   0.620 -3.4118 -0.4461 -0.5677
  367TIP3   OH222591   2.674   5.451  13.410 -0.4931  0.2449 -0.4443
  367TIP3    H122592   2.653   5.538  13.376  0.2361  1.2672  1.5643
  367TIP3    H222593   2.588   5.409  13.421 -1.0151  1.4899  0.4801
  368TIP3   OH222594   4.162   2.793   0.504  0.7741  0.5709 -0.5009
  368TIP3    H122595   4.185   2.796   0.411  0.9192 -1.2923 -0.5509
  368TIP3    H222596   4.236   2.750   0.545  0.6258  1.2234  0.4787
  369TIP3   OH222597   2.513   0.628   2.241 -0.2262  0.2155  0.1362
  369TIP3    H122598   2.581   0.669   2.188 -0.9491  0.1078 -0.9059
  369TIP3    H222599   2.463   0.700   2.278  0.5685  0.3007  1.0972
  370TIP3   OH222600   3.053   0.160  15.869  0.0304  0.2239  0.1724
  370TIP3    H122601   2.971   0.209  15.876 -0.5273 -0.6335 -0.1450
  370TIP3    H222602   3.062   0.116  15.954 -0.6539 -0.8951 -0.3075
  371TIP3   OH222603   1.416   5.113  16.910  0.2238  0.1178  0.1323
  371TIP3    H122604   1.396   5.057  16.985  0.4207  0.0401  0.1264
  371TIP3    H222605   1.375   5.068  16.836 -4.4207  2.6229  0.8083
  372TIP3   OH222606   0.379   2.929  15.215  0.5351  0.2883  0.4728
  372TIP3    H122607   0.360   3.017  15.249  0.0567 -0.0950  1.2117
  372TIP3    H222608   0.474   2.922  15.219  0.5598  0.6848  0.6334
  373TIP3   OH222609   5.878   2.288  12.099 -0.0528 -0.3791  0.5708
  373TIP3    H122610   5.849   2.366  12.146  1.8027  0.0260  1.1346
  373TIP3    H222611   5.973   2.284  12.114 -0.2875 -3.7748  2.1158
  374TIP3   OH222612   1.310   0.251  15.883 -0.3381 -1.1347 -0.6055
  374TIP3    H122613   1.345   0.339  15.880  1.2690 -1.5576  2.5114
  374TIP3    H222614   1.215   0.263  15.889 -0.2520  0.2860 -1.6956
  375TIP3   OH222615   6.548   0.331  11.722  0.1920 -0.2543 -0.5869
  375TIP3    H122616   6.569   0.255  11.668  0.5237 -0.3623 -0.3098
  375TIP3    H222617   6.550   0.298  11.812  1.2591  0.2668 -0.3931
  376TIP3   OH222618   2.587   3.529   3.296  0.4993 -0.1296 -0.0197
  376TIP3    H122619   2.563   3.448   3.341 -0.5822 -0.8065 -1.7188
  376TIP3    H222620   2.637   3.500   3.220  1.3051  0.9152  0.0907
  377TIP3   OH222621   5.150   2.948  12.528 -0.4138 -0.0553 -0.1524
  377TIP3    H122622   5.193   2.863  12.536 -0.3310 -0.0839 -0.8295
  377TIP3    H222623   5.152   2.984  12.617 -2.8779 -1.9133  0.7892
  378TIP3   OH222624   2.080   5.697   4.913  0.6233 -0.2113 -0.2450
  378TIP3    H122625   1.989   5.715   4.888  0.3322  0.2975  1.0894
  378TIP3    H222626   2.103   5.769   4.972  1.9049 -0.3293 -0.5802
  379TIP3   OH222627   5.953   2.191  16.213  0.1265  0.3901 -0.4053
  379TIP3    H122628   5.990   2.127  16.274 -1.9002  0.0222  0.5133
  379TIP3    H222629   6.021   2.202  16.146  0.1803 -3.5836 -1.2348
  380TIP3   OH222630   4.884   1.417   2.802  0.4974 -0.3520  0.1117
  380TIP3    H122631   4.843   1.376   2.727 -2.2447  0.5266  1.0164
  380TIP3    H222632   4.938   1.348   2.841  1.6910 -0.9145 -2.3544
  381TIP3   OH222633   1.937   4.199   2.905 -0.1522  0.0733  0.7307
  381TIP3    H122634   1.933   4.271   2.843 -1.3026  0.1171  0.8336
  381TIP3    H222635   1.992   4.232   2.977 -1.8998  1.4603  1.5088
  382TIP3   OH222636   6.559   1.115  11.823 -0.0604 -0.4180 -0.0739
  382TIP3    H122637   6.612   1.036  11.814 -1.5177 -1.3499 -0.7920
  382TIP3    H222638   6.494   1.108  11.753 -1.2084  0.6130  0.8567
  383TIP3   OH222639   6.355   3.191   2.752  0.4358 -0.0592  0.2702
  383TIP3    H122640   6.403   3.245   2.814 -2.5622  2.3016  0.8035
  383TIP3    H222641   6.319   3.253   2.689 -2.8433 -1.3275  0.6684
  384TIP3   OH222642   3.641   5.810   3.999 -0.2207  0.0784 -0.1558
  384TIP3    H122643   3.668   5.787   3.910  1.9453  0.2682  0.4057
  384TIP3    H222644   3.718   5.793   4.053 -1.3667  0.3366  1.6412
  385TIP3   OH222645   6.862   1.398   1.464 -0.0293  0.2233 -0.2603
  385TIP3    H122646   6.801   1.345   1.413 -0.2757  1.1550 -0.9628
  385TIP3    H222647   6.942   1.399   1.412  0.1359  0.1168 -0.0050
  386TIP3   OH222648   0.980   4.143   4.891  0.0218 -0.3333 -0.0193
  386TIP3    H122649   0.980   4.157   4.986 -1.0647  1.0482 -0.1932
  386TIP3    H222650   0.982   4.231   4.854 -1.5325 -0.7863 -1.2597
  387TIP3   OH222651   4.970   2.081   3.043 -0.2872 -0.3603 -0.1230
  387TIP3    H122652   5.009   2.020   2.981 -0.8538  0.6824 -1.5392
  387TIP3    H222653   4.889   2.110   3.001 -0.3893  0.8206  0.8333
  388TIP3   OH222654   2.109   2.164   5.582 -0.5243  0.9203 -0.4454
  388TIP3    H122655   2.070   2.092   5.532  0.6765  0.4909 -0.8103
  388TIP3    H222656   2.187   2.125   5.621 -1.2273  1.3542  1.4816
  389TIP3   OH222657   4.502   6.697   3.103 -0.0362  0.6646 -0.4468
  389TIP3    H122658   4.578   6.700   3.161  1.7874 -0.3236 -2.6362
  389TIP3    H222659   4.517   6.620   3.048 -2.9355  0.0984 -0.6024
  390TIP3   OH222660   3.149   2.198   4.628 -0.1961 -0.3451  0.2140
  390TIP3    H122661   3.201   2.141   4.685  0.4068 -0.8089 -0.7792
  390TIP3    H222662   3.075   2.145   4.601 -0.7688  0.0513  0.9803
  391TIP3   OH222663   2.286   2.407  15.627 -0.3520 -0.6594 -0.5888
  391TIP3    H122664   2.313   2.432  15.716  0.6434 -4.1916  0.2340
  391TIP3    H222665   2.209   2.461  15.610  0.0386  0.8895  1.9657
  392TIP3   OH222666   5.584   4.508   5.987  0.0844 -0.0502 -0.2675
  392TIP3    H122667   5.588   4.412   5.979  0.9407 -0.0568  0.1480
  392TIP3    H222668   5.619   4.526   6.074 -1.5344  0.5510  0.3053
  393TIP3   OH222669   4.636   3.201  13.390  0.0617  0.0403 -0.3094
  393TIP3    H122670   4.547   3.207  13.355 -0.1474 -0.8348  0.0285
  393TIP3    H222671   4.682   3.275  13.352 -0.9254  0.7492 -0.1525
  394TIP3   OH222672   6.599   4.173  14.070  0.9769  0.2266 -0.3239
  394TIP3    H122673   6.529   4.238  14.079  0.5469 -0.1684 -0.7756
  394TIP3    H222674   6.561   4.092  14.102  0.8710 -0.2235 -1.5439
  395TIP3   OH222675   5.557   3.536  15.060 -0.4033  0.0363  0.5542
  395TIP3    H122676   5.617   3.547  14.987 -0.5037  1.7004  0.6874
  395TIP3    H222677   5.554   3.441  15.075 -0.1183 -0.3099 -1.3558
  396TIP3   OH222678   1.334   6.816  10.495  0.2774  0.0775  0.2704
  396TIP3    H122679   1.291   6.899  10.474  2.4020  0.7351 -1.9968
  396TIP3    H222680   1.427   6.834  10.484  0.7689 -2.8315 -1.3433
  397TIP3   OH222681   4.115   0.733   1.484 -0.5940 -0.2905  0.3383
  397TIP3    H122682   4.027   0.751   1.451 -0.4681  0.5002  0.4084
  397TIP3    H222683   4.106   0.651   1.533 -1.5233  0.2961  1.2043
  398TIP3   OH222684   2.295   5.910  14.082 -0.5108 -0.1530 -0.0121
  398TIP3    H122685   2.359   5.840  14.100 -0.6816 -1.0831 -2.6117
  398TIP3    H222686   2.266   5.938  14.169  1.4208 -1.5620  1.1938
  399TIP3   OH222687   6.498   3.251  13.359  0.3937 -0.5975  0.4775
  399TIP3    H122688   6.571   3.299  13.320 -0.0516  0.5261  0.9799
  399TIP3    H222689   6.442   3.228  13.285  0.6147 -0.3454  0.2288
  400TIP3   OH222690   6.323   0.304   4.628  0.0829 -0.1733  0.0614
  400TIP3    H122691   6.290   0.216   4.647 -0.7066  0.0209 -0.3889
  400TIP3    H222692   6.245   0.354   4.605  0.4586  0.7927  0.8539
  401TIP3   OH222693   6.759   2.127  11.937  0.0265  0.3080 -0.3124
  401TIP3    H122694   6.698   2.100  12.005  0.2807 -1.5032 -0.7527
  401TIP3    H222695   6.734   2.218  11.917 -3.0015 -0.5328 -0.9415
  402TIP3   OH222696   3.128   3.814  15.274  0.3347 -0.1139  0.5179
  402TIP3    H122697   3.213   3.825  15.315  0.1153  0.7762  0.7637
  402TIP3    H222698   3.068   3.795  15.346  0.1173  0.5005  0.5072
  403TIP3   OH222699   1.042   6.696   1.372 -0.4108  0.1749  0.2824
  403TIP3    H122700   0.955   6.733   1.358 -0.9257 -1.2926 -0.6096
  403TIP3    H222701   1.072   6.672   1.284  1.1524  1.1735  0.5109
  404TIP3   OH222702   1.344   5.162   1.663  0.3530 -0.2802  0.0970
  404TIP3    H122703   1.364   5.205   1.746  1.0935 -0.7052  0.1566
  404TIP3    H222704   1.296   5.083   1.687 -3.1238  1.5678 -0.1388
  405TIP3   OH222705   3.887   4.297  12.981  0.7578  0.0521  0.1898
  405TIP3    H122706   3.933   4.245  13.047  0.3630  0.1796  0.5668
  405TIP3    H222707   3.853   4.372  13.029 -0.0792 -0.1792 -0.0312
  406TIP3   OH222708   2.125   1.224   4.772 -0.0516 -0.4156 -0.0995
  406TIP3    H122709   2.093   1.151   4.825  0.2121 -2.7971 -2.9654
  406TIP3    H222710   2.079   1.301   4.807 -1.8090 -2.2270  1.8480
  407TIP3   OH222711   0.921   6.798  11.642 -0.7389  0.1114 -0.3799
  407TIP3    H122712   0.862   6.863  11.604 -0.8856  0.8745  1.0971
  407TIP3    H222713   1.008   6.837  11.637 -0.7550  0.2012  0.0474
  408TIP3   OH222714   1.280   4.337  14.885 -0.2564 -0.0613  0.0628
  408TIP3    H122715   1.264   4.245  14.862 -0.1588 -0.3399  1.0749
  408TIP3    H222716   1.265   4.341  14.979  1.3283  0.6195  0.3160
  409TIP3   OH222717   5.216   2.173  12.457  0.1419  0.6517  0.0192
  409TIP3    H122718   5.264   2.196  12.536 -0.2759  0.6647  0.2699
  409TIP3    H222719   5.284   2.164  12.389  0.6812 -0.8633  0.7046
  410TIP3   OH222720   6.571   6.762  15.569  0.0783 -0.4510 -0.1419
  410TIP3    H122721   6.565   6.791  15.478  2.2066  0.1673 -0.1499
  410TIP3    H222722   6.493   6.708  15.583 -1.6384  1.5096 -1.5286
  411TIP3   OH222723   4.885   6.367   4.682 -0.2853 -0.2150 -0.1610
  411TIP3    H122724   4.973   6.402   4.668 -0.1936 -0.5181 -0.3618
  411TIP3    H222725   4.852   6.348   4.594 -1.0298  1.0253 -0.1646
  412TIP3   OH222726   0.294   1.715   0.539 -0.6405 -0.3529  0.1695
  412TIP3    H122727   0.326   1.752   0.457 -0.0693  0.0152  0.5480
  412TIP3    H222728   0.226   1.776   0.568 -0.4501 -0.1769  0.2498
  413TIP3   OH222729   3.721   4.468   3.393 -0.0609  0.1586 -0.0951
  413TIP3    H122730   3.682   4.405   3.332 -1.5813  0.3348  0.6544
  413TIP3    H222731   3.705   4.432   3.480  2.3361 -0.2255  0.2380
  414TIP3   OH222732   2.328   2.924   2.513  0.5976 -0.4117 -0.2784
  414TIP3    H122733   2.274   2.932   2.434 -0.2930 -1.0765  0.2384
  414TIP3    H222734   2.268   2.946   2.585  1.3525  0.0264  0.2246
  415TIP3   OH222735   3.126   3.780  13.417  0.3295  0.2146  0.4254
  415TIP3    H122736   3.074   3.730  13.354 -0.7001  1.2956  0.3923
  415TIP3    H222737   3.094   3.751  13.502 -0.3449  0.8655  0.4056
  416TIP3   OH222738   4.168   2.843   3.429 -0.1567 -0.2009  0.4265
  416TIP3    H122739   4.073   2.840   3.417 -0.2086 -2.2048  0.9479
  416TIP3    H222740   4.180   2.878   3.517 -0.2771  2.0713 -0.3960
  417TIP3   OH222741   1.153   5.846  15.266  0.0387  0.4311 -0.3756
  417TIP3    H122742   1.172   5.847  15.360 -0.7404  1.2744 -0.2130
  417TIP3    H222743   1.237   5.827  15.225  0.3302 -0.2557  0.5055
  418TIP3   OH222744   4.078   3.849  13.345  0.1502 -0.9724  0.7180
  418TIP3    H122745   4.156   3.806  13.380  0.3047 -0.5164  0.9385
  418TIP3    H222746   4.096   3.859  13.252  1.1227  0.7352  1.0536
  419TIP3   OH222747   3.517   2.989   2.712  0.0145 -0.0797 -0.1594
  419TIP3    H122748   3.598   2.943   2.693  1.7169  2.4549  0.4513
  419TIP3    H222749   3.458   2.922   2.747  1.9369 -1.9384 -0.3471
  420TIP3   OH222750   3.793   2.031  15.607  0.7496 -0.3881  0.4866
  420TIP3    H122751   3.810   1.947  15.564 -0.3561  0.1527 -1.0978
  420TIP3    H222752   3.872   2.082  15.591  0.4033 -0.2398 -0.8425
  421TIP3   OH222753   2.033   4.407   2.713 -0.6360 -0.1863 -0.2044
  421TIP3    H122754   2.044   4.470   2.642 -0.3251  2.0293  1.6733
  421TIP3    H222755   1.953   4.359   2.691 -0.4396  0.2881 -2.1036
  422TIP3   OH222756   1.682   5.314  15.830 -0.2818  0.4732  0.2391
  422TIP3    H122757   1.721   5.231  15.801 -0.8639  0.3118 -0.1107
  422TIP3    H222758   1.756   5.374  15.839  0.4646 -0.6939  2.7557
  423TIP3   OH222759   2.224   1.511  13.751 -0.0864  0.1548 -0.0807
  423TIP3    H122760   2.150   1.451  13.760 -0.9917  1.1990 -0.2491
  423TIP3    H222761   2.199   1.587  13.805 -0.5211  1.7846 -2.4231
  424TIP3   OH222762   0.749   5.251  11.942 -0.5112 -0.0433  0.5092
  424TIP3    H122763   0.755   5.207  11.857 -2.6182  1.3356 -0.4326
  424TIP3    H222764   0.703   5.189  11.998 -0.8067 -0.2243  0.0728
  425TIP3   OH222765   0.365   5.241  16.940  0.1144 -0.4418  0.1178
  425TIP3    H122766   0.322   5.157  16.953 -0.0010 -0.3374  0.3990
  425TIP3    H222767   0.431   5.223  16.872 -0.4462 -0.5728 -0.4021
  426TIP3   OH222768   4.933   1.872  16.661  0.0591 -0.4575 -0.3195
  426TIP3    H122769   4.938   1.794  16.717 -0.4418  0.7826  1.5564
  426TIP3    H222770   4.987   1.937  16.706 -1.5156  1.0365 -0.4862
  427TIP3   OH222771   2.611   4.985   1.663 -0.3404 -0.1045 -0.6747
  427TIP3    H122772   2.697   4.998   1.703  0.2309 -5.6767  0.7196
  427TIP3    H222773   2.552   4.972   1.738 -1.9637  1.1428 -1.6605
  428TIP3   OH222774   6.288   5.554   1.063  0.2386 -0.1940  0.5886
  428TIP3    H122775   6.261   5.561   0.972 -0.6544 -0.3803  0.8217
  428TIP3    H222776   6.295   5.644   1.093 -1.4728 -0.1127  0.8730
  429TIP3   OH222777   6.801   6.721  14.982  0.7646 -0.6536 -0.2664
  429TIP3    H122778   6.876   6.780  14.991  0.8404 -0.9249  1.0429
  429TIP3    H222779   6.741   6.748  15.052  0.6907 -1.9596  0.1961
  430TIP3   OH222780   3.610   3.806   5.595  0.3724  0.4104  0.3789
  430TIP3    H122781   3.652   3.738   5.543 -1.2380 -0.3036 -0.0524
  430TIP3    H222782   3.554   3.853   5.532 -0.5657  0.3956  1.1696
  431TIP3   OH222783   5.834   5.496   6.090  0.0871  0.0168  0.0688
  431TIP3    H122784   5.926   5.520   6.101  0.1718 -0.7524  1.2129
  431TIP3    H222785   5.795   5.512   6.176 -0.6357 -0.5408 -0.1469
  432TIP3   OH222786   1.776   5.718  11.432 -0.8950  0.1541  0.2553
  432TIP3    H122787   1.793   5.779  11.505 -0.5902 -0.2693  0.5400
  432TIP3    H222788   1.698   5.670  11.460 -1.0100  0.2650  0.1257
  433TIP3   OH222789   5.970   1.989   1.939 -0.1395 -0.5159 -0.0831
  433TIP3    H122790   5.983   1.999   1.845  0.7034  0.2536  0.1020
  433TIP3    H222791   6.058   1.974   1.975  0.0969  2.5106  0.9388
  434TIP3   OH222792   5.456   0.388  13.496  0.2175 -0.4717  0.4585
  434TIP3    H122793   5.516   0.457  13.468  0.1541 -0.2743  0.8016
  434TIP3    H222794   5.514   0.314  13.518  0.5253  0.3329  2.6199
  435TIP3   OH222795   4.659   1.127  14.171  0.2399  0.4147 -0.0230
  435TIP3    H122796   4.728   1.078  14.126 -0.2186 -1.6709  1.4572
  435TIP3    H222797   4.700   1.212  14.191  1.6370  0.0289 -1.0700
  436TIP3   OH222798   3.480   1.944  13.080 -0.3405  0.7490 -0.0335
  436TIP3    H122799   3.451   1.910  12.995  1.0485 -1.4195  0.2583
  436TIP3    H222800   3.401   1.978  13.121 -1.4228 -0.0126 -1.3959
  437TIP3   OH222801   1.411   5.420   4.758 -0.3257  0.9779 -0.2229
  437TIP3    H122802   1.360   5.404   4.837  1.5935  2.3000  1.3871
  437TIP3    H222803   1.347   5.446   4.692 -1.7933  1.9843  1.5121
  438TIP3   OH222804   1.904   4.731  12.176 -0.0761  0.0380  0.5909
  438TIP3    H122805   1.851   4.805  12.146  0.0678 -0.2946 -0.5094
  438TIP3    H222806   1.993   4.764  12.178 -0.2140  0.4019  1.8141
  439TIP3   OH222807   2.684   3.295   3.854 -0.0604 -0.0831  0.1585
  439TIP3    H122808   2.718   3.349   3.925 -0.6443 -0.0786  0.4332
  439TIP3    H222809   2.652   3.216   3.897  1.6084 -1.0770 -0.3178
  440TIP3   OH222810   6.122   1.243   4.923  0.3394 -0.6886  0.1301
  440TIP3    H122811   6.094   1.306   4.990 -0.2373  0.5611 -1.2317
  440TIP3    H222812   6.186   1.188   4.968  1.8305  1.6540  1.0943
  441TIP3   OH222813   6.093   0.288   2.268  0.1672  0.3862 -0.4999
  441TIP3    H122814   6.017   0.342   2.288  0.3772  1.3090 -2.0485
  441TIP3    H222815   6.068   0.200   2.297 -1.4308  0.6980 -0.8319
  442TIP3   OH222816   6.573   0.904  10.290  0.2122  0.0241  0.0595
  442TIP3    H122817   6.520   0.970  10.335 -1.0572 -0.4564 -0.6861
  442TIP3    H222818   6.515   0.829  10.279  1.4404 -0.9961  0.3118
  443TIP3   OH222819   1.761   3.376   5.588 -0.0022  0.1261 -0.0731
  443TIP3    H122820   1.680   3.355   5.635  1.5521 -2.0903  1.8526
  443TIP3    H222821   1.799   3.448   5.639  1.1508 -1.5624  1.6007
  444TIP3   OH222822   0.784   1.299  13.278 -0.5998  0.3637 -0.0486
  444TIP3    H122823   0.816   1.211  13.297  0.6870  0.9849  0.7615
  444TIP3    H222824   0.754   1.333  13.362 -1.5914  0.5269 -0.4485
  445TIP3   OH222825   3.116   0.423  12.953  0.5375  0.3605  0.4221
  445TIP3    H122826   3.210   0.429  12.941  0.4883  0.7282  0.1980
  445TIP3    H222827   3.103   0.341  13.000  0.9231  0.0489 -0.0062
  446TIP3   OH222828   5.265   5.187  11.742 -0.1289  0.1519 -0.7516
  446TIP3    H122829   5.185   5.142  11.714  0.2825  1.2905 -4.2853
  446TIP3    H222830   5.233   5.266  11.787 -1.0030  0.1761 -1.3848
  447TIP3   OH222831   1.800   1.713  15.975 -0.2667  0.6867  0.4145
  447TIP3    H122832   1.823   1.803  15.995  1.1017  0.4314  0.1155
  447TIP3    H222833   1.846   1.694  15.893 -0.1161 -0.4155  0.7281
  448TIP3   OH222834   1.986   3.082  13.892 -0.0481  0.0056 -0.1775
  448TIP3    H122835   2.037   3.134  13.954 -0.7821 -0.0473  0.4826
  448TIP3    H222836   2.028   2.997  13.890 -0.7315 -0.3815  1.1832
  449TIP3   OH222837   3.394   2.381  15.218 -0.5831 -0.1898  0.4697
  449TIP3    H122838   3.382   2.400  15.311 -1.7432  1.2908  0.0542
  449TIP3    H222839   3.394   2.467  15.176 -0.4825 -0.8644 -0.9554
  450TIP3   OH222840   4.021   3.105  11.890 -0.1862  0.0711  0.2588
  450TIP3    H122841   3.971   3.185  11.906 -0.8008 -0.1736 -0.4048
  450TIP3    H222842   3.964   3.051  11.835  1.1288  0.1480 -1.2576
  451TIP3   OH222843   6.367   2.243   5.798 -0.3363  0.1623 -0.1189
  451TIP3    H122844   6.341   2.154   5.822 -1.5246  0.4037 -0.4727
  451TIP3    H222845   6.410   2.277   5.876  1.1869 -1.0888 -0.3338
  452TIP3   OH222846   4.089   0.507   5.670  0.1594  0.5869  0.0194
  452TIP3    H122847   4.114   0.437   5.731  0.0904  0.0488 -0.5622
  452TIP3    H222848   3.995   0.519   5.685 -0.6165 -1.8257 -2.2180
  453TIP3   OH222849   2.058   3.642   3.066  0.8987  0.0777  0.0489
  453TIP3    H122850   1.987   3.641   3.131 -0.6817 -0.8842 -1.5792
  453TIP3    H222851   2.099   3.556   3.075  1.1714  0.2281  0.2630
  454TIP3   OH222852   2.434   0.421   4.750 -0.3480  0.4671 -0.5683
  454TIP3    H122853   2.390   0.485   4.693 -2.2220 -0.1455  0.1077
  454TIP3    H222854   2.429   0.461   4.837  3.8400  2.1182 -0.8595
  455TIP3   OH222855   4.555   4.892   1.344 -0.0695  0.1610 -0.2872
  455TIP3    H122856   4.529   4.814   1.295  0.8273 -1.1363  1.2049
  455TIP3    H222857   4.506   4.886   1.426  0.9722  0.4899  0.3749
  456TIP3   OH222858   4.908   1.789   5.639  0.3512  0.1506 -0.1224
  456TIP3    H122859   4.913   1.694   5.649 -2.0254 -0.0659 -0.3203
  456TIP3    H222860   4.935   1.806   5.549  1.7161 -0.2067  0.2031
  457TIP3   OH222861   4.265   2.415  16.889  0.3448  0.4206 -0.2476
  457TIP3    H122862   4.321   2.351  16.933  0.8960 -0.2436 -1.8207
  457TIP3    H222863   4.186   2.420  16.943  0.9602 -0.3871  0.7601
  458TIP3   OH222864   1.174   5.410   4.025 -0.4017 -0.4466  0.0701
  458TIP3    H122865   1.159   5.504   4.028  0.4525 -0.2652 -0.9823
  458TIP3    H222866   1.112   5.374   4.090  0.3267  0.9389  1.6059
  459TIP3   OH222867   4.393   5.358   4.957 -0.0804  0.2610 -0.2906
  459TIP3    H122868   4.337   5.300   5.009  0.2578  0.2411  0.0598
  459TIP3    H222869   4.452   5.299   4.911  0.3581  0.3262  0.1760
  460TIP3   OH222870   0.532   1.593   3.936 -0.1321 -0.1832 -0.1958
  460TIP3    H122871   0.576   1.520   3.892 -0.9689 -0.5729 -0.4097
  460TIP3    H222872   0.439   1.572   3.929 -0.3108 -0.1691  1.6369
  461TIP3   OH222873   0.211   0.351  15.895 -0.0342 -0.0049 -0.0018
  461TIP3    H122874   0.197   0.391  15.810  1.9900  0.6546 -0.0758
  461TIP3    H222875   0.137   0.381  15.948 -0.6605  0.5767 -1.1594
  462TIP3   OH222876   5.100   5.401   2.823  0.1220 -0.0642  0.3798
  462TIP3    H122877   5.037   5.330   2.817 -1.0835  0.9574  0.4684
  462TIP3    H222878   5.065   5.459   2.890  0.3436  1.3113 -0.6448
  463TIP3   OH222879   1.204   3.833  11.635 -0.1274 -0.6128 -0.3824
  463TIP3    H122880   1.151   3.756  11.657  2.2509 -1.8451  1.3563
  463TIP3    H222881   1.213   3.881  11.717  1.8392 -0.7114 -0.5038
  464TIP3   OH222882   1.936   3.128   6.290  0.3436  0.7901  0.1584
  464TIP3    H122883   1.902   3.093   6.372  0.7531  0.2771  0.1097
  464TIP3    H222884   1.969   3.215   6.314 -1.1327  1.3734  0.1714
  465TIP3   OH222885   0.169   5.629   4.719  0.1699  0.1509 -0.9768
  465TIP3    H122886   0.135   5.558   4.665 -1.8269  1.0438 -1.0033
  465TIP3    H222887   0.119   5.706   4.691  1.3268  1.2954 -0.0376
  466TIP3   OH222888   3.416   2.867  16.035  0.1190 -0.7214 -0.1058
  466TIP3    H122889   3.339   2.888  16.089  2.3125  0.4584  2.7904
  466TIP3    H222890   3.406   2.922  15.957 -2.4085 -1.3619 -0.3416
  467TIP3   OH222891   5.436   3.497  15.364  0.0406 -0.1194  0.2578
  467TIP3    H122892   5.399   3.499  15.452  0.5702  1.8662  0.4762
  467TIP3    H222893   5.412   3.410  15.330 -0.0451 -0.9843  2.3831
  468TIP3   OH222894   2.933   6.651   2.639  0.1475 -0.3248 -0.1933
  468TIP3    H122895   2.982   6.707   2.578 -0.0969 -0.5278 -0.5796
  468TIP3    H222896   2.860   6.617   2.587 -1.7450  1.7371  0.9301
  469TIP3   OH222897   4.845   4.328  13.433 -0.2396  0.2384 -0.5516
  469TIP3    H122898   4.858   4.240  13.469 -0.3441  1.4676  2.9077
  469TIP3    H222899   4.769   4.320  13.375 -1.4911 -1.6087  1.2011
  470TIP3   OH222900   1.681   0.988   3.082 -0.5733 -0.4504  0.2121
  470TIP3    H122901   1.756   0.991   3.022 -0.3541 -0.1878  0.4965
  470TIP3    H222902   1.611   1.033   3.035  0.3152  2.0312  1.1384
  471TIP3   OH222903   3.739   5.318  15.792 -0.0028 -0.5162 -0.0533
  471TIP3    H122904   3.694   5.267  15.859  1.6088  0.1228  1.6101
  471TIP3    H222905   3.773   5.253  15.731 -1.0898 -1.1582  0.0055
  472TIP3   OH222906   6.282   5.166  14.010  0.0087  0.2535 -0.2015
  472TIP3    H122907   6.275   5.071  14.008  0.0786  0.2363  0.2421
  472TIP3    H222908   6.194   5.197  14.034  0.5386  0.1796  2.1289
  473TIP3   OH222909   1.848   4.674   1.421 -0.2452 -0.0184  0.0767
  473TIP3    H122910   1.868   4.630   1.338  1.8716  1.6689 -0.4025
  473TIP3    H222911   1.920   4.650   1.479  1.2911  3.0444 -0.3663
  474TIP3   OH222912   2.063   4.634   3.524 -0.6158  0.1584 -0.1428
  474TIP3    H122913   2.041   4.622   3.616 -0.7842 -0.9918 -0.3148
  474TIP3    H222914   2.138   4.693   3.524  0.5580 -1.2611  0.8566
  475TIP3   OH222915   4.913   0.475  13.355  0.3007  0.8007  0.1510
  475TIP3    H122916   5.008   0.486  13.356  0.5404 -0.1809 -2.9056
  475TIP3    H222917   4.888   0.495  13.265 -2.2956  0.1445  0.6614
  476TIP3   OH222918   1.578   6.459   2.160 -0.1901 -0.0069  0.4039
  476TIP3    H122919   1.656   6.434   2.111 -0.7790 -0.2857 -0.4021
  476TIP3    H222920   1.608   6.465   2.251  0.5806 -0.9485  0.2265
  477TIP3   OH222921   2.376   0.224  14.850  0.0172  0.4618  0.5213
  477TIP3    H122922   2.402   0.236  14.759  0.5718  0.0019  0.6129
  477TIP3    H222923   2.451   0.181  14.891 -0.1540  0.8320  1.2387
  478TIP3   OH222924   6.213   3.567   2.816 -0.0769 -0.3669  0.8561
  478TIP3    H122925   6.119   3.579   2.801 -0.0607 -0.9424  0.2452
  478TIP3    H222926   6.219   3.482   2.860  0.1010  0.0299  1.6051
  479TIP3   OH222927   0.369   4.453  12.539 -0.5373 -0.6917  0.4952
  479TIP3    H122928   0.443   4.474  12.483 -1.9306  0.0340 -1.1856
  479TIP3    H222929   0.406   4.400  12.609  1.5310 -0.4339 -0.3273
  480TIP3   OH222930   4.160   0.560   4.185  0.0047 -0.3880  0.6356
  480TIP3    H122931   4.235   0.607   4.221  0.3562 -0.5974  0.1882
  480TIP3    H222932   4.113   0.527   4.262 -0.5084  1.0612  0.9837
  481TIP3   OH222933   1.661   5.322  13.683 -0.5595  0.3482  0.4068
  481TIP3    H122934   1.619   5.362  13.759 -0.1159  0.0233  0.8343
  481TIP3    H222935   1.646   5.384  13.611 -1.0623  0.6125  0.7402
  482TIP3   OH222936   4.777   2.965  16.887 -0.3439  0.3221 -0.0114
  482TIP3    H122937   4.817   3.050  16.872 -0.6697  0.1430 -2.2769
  482TIP3    H222938   4.757   2.932  16.799 -0.4234 -2.0014  0.8062
  483TIP3   OH222939   4.091   5.417   2.528 -1.1235  0.1685 -0.2662
  483TIP3    H122940   4.182   5.409   2.501 -0.8617 -1.8835  0.9574
  483TIP3    H222941   4.088   5.495   2.583  0.0020  0.0198  0.0253
  484TIP3   OH222942   2.507   1.067   6.096 -0.1577  0.1332 -0.4545
  484TIP3    H122943   2.417   1.041   6.080 -0.8490  0.4385  2.3828
  484TIP3    H222944   2.552   0.986   6.119  0.1719  0.0842 -1.2151
  485TIP3   OH222945   4.333   2.130   6.011  0.4518 -0.1709  0.3838
  485TIP3    H122946   4.325   2.198   5.943  0.1855 -0.5741  0.0056
  485TIP3    H222947   4.278   2.161   6.083  1.7106  0.8763  0.9385
  486TIP3   OH222948   3.103   0.091  11.362 -0.4765 -0.0766 -0.1768
  486TIP3    H122949   3.060   0.006  11.349 -2.1382  0.7010 -0.1007
  486TIP3    H222950   3.075   0.143  11.287  1.7801 -0.0279 -1.0419
  487TIP3   OH222951   6.637   3.041   1.365  0.0488  0.1881 -0.1747
  487TIP3    H122952   6.640   3.137   1.359  0.1345  0.2602  0.8495
  487TIP3    H222953   6.680   3.012   1.285  0.5435  1.0180 -0.2310
  488TIP3   OH222954   4.484   2.198  12.104 -0.1206 -0.3791  0.2609
  488TIP3    H122955   4.452   2.200  12.014 -0.0093  2.0787  0.2163
  488TIP3    H222956   4.579   2.212  12.097  0.0452 -1.1620  0.7325
  489TIP3   OH222957   4.725   1.351  17.002 -0.5589  0.0313 -0.0369
  489TIP3    H122958   4.692   1.329  16.915  2.0189 -0.0484 -1.0963
  489TIP3    H222959   4.731   1.267  17.048 -0.3804 -0.1564 -0.3983
  490TIP3   OH222960   6.425   5.122  13.703 -0.5236 -0.4139  0.4811
  490TIP3    H122961   6.378   5.156  13.780 -0.2269 -0.4115  0.6611
  490TIP3    H222962   6.464   5.200  13.664  1.8167 -0.7342  2.0016
  491TIP3   OH222963   6.125   2.590   2.514  0.6399 -0.2086  0.1656
  491TIP3    H122964   6.041   2.548   2.496  0.3167  1.0151 -1.4243
  491TIP3    H222965   6.174   2.582   2.432  2.0657 -0.8442  1.0431
  492TIP3   OH222966   5.046   2.840   3.066  0.4516  0.0481  0.3953
  492TIP3    H122967   5.134   2.842   3.105 -0.3390  1.3533  2.2353
  492TIP3    H222968   5.026   2.932   3.048 -0.7352 -0.1898  0.4460
  493TIP3   OH222969   6.160   2.590  11.803  0.3481  0.0619 -0.3342
  493TIP3    H122970   6.214   2.512  11.814 -0.3960 -0.8062 -2.4384
  493TIP3    H222971   6.127   2.585  11.714 -0.8857  2.0653 -0.0660
  494TIP3   OH222972   5.428   4.544   3.449 -0.0244 -0.5840 -0.4858
  494TIP3    H122973   5.358   4.499   3.496 -0.4348 -1.2208 -1.6793
  494TIP3    H222974   5.434   4.499   3.365  0.5184  0.6804 -1.1566
  495TIP3   OH222975   2.123   2.657   0.342 -0.2199  0.7727 -0.2015
  495TIP3    H122976   2.070   2.731   0.371 -0.3836 -0.2381  2.3076
  495TIP3    H222977   2.180   2.638   0.416 -2.0188 -3.2624  0.4076
  496TIP3   OH222978   0.159   2.600   1.374  0.1705 -0.2714 -0.5649
  496TIP3    H122979   0.242   2.581   1.330  0.1288  0.5852 -1.0306
  496TIP3    H222980   0.153   2.534   1.443  0.6057 -1.1679 -1.3581
  497TIP3   OH222981   3.814   0.492   1.665  0.7084 -0.3653  0.8894
  497TIP3    H122982   3.734   0.443   1.684  0.8578 -0.4526  1.2913
  497TIP3    H222983   3.877   0.427   1.635  0.8867 -0.4168  1.3621
  498TIP3   OH222984   3.716   4.750  15.914 -0.0501  0.6899  0.2163
  498TIP3    H122985   3.625   4.777  15.902 -0.8615 -2.0117 -0.4527
  498TIP3    H222986   3.713   4.687  15.986  1.1636  0.0955 -0.2283
  499TIP3   OH222987   0.738   0.583  13.746 -0.6457 -0.2262 -0.2504
  499TIP3    H122988   0.818   0.546  13.782  1.6279  1.9252 -2.6264
  499TIP3    H222989   0.690   0.508  13.711 -0.4572 -1.7239  2.3942
  500TIP3   OH222990   3.087   1.364   2.176 -0.2091 -0.3059  0.0859
  500TIP3    H122991   3.013   1.308   2.199  0.2001 -0.2733  1.5653
  500TIP3    H222992   3.124   1.392   2.260  1.5243 -0.3903 -0.5994
  501TIP3   OH222993   2.332   1.033  11.354  0.3795  0.1540  0.8551
  501TIP3    H122994   2.326   0.971  11.426 -1.5528 -0.6630  0.0631
  501TIP3    H222995   2.395   0.993  11.293 -0.3191 -0.7070  0.6759
  502TIP3   OH222996   2.725   0.539  10.843  0.1148  0.0318 -0.1741
  502TIP3    H122997   2.786   0.511  10.775 -0.8169 -2.3334 -0.1559
  502TIP3    H222998   2.775   0.600  10.897  1.7814 -0.2401 -1.3220
  503TIP3   OH222999   1.303   4.943  13.725 -0.2209 -0.3434  0.2487
  503TIP3    H123000   1.239   4.961  13.656  0.5300 -1.2219 -0.7056
  503TIP3    H223001   1.385   4.928  13.678  0.8488  1.3333  1.4796
  504TIP3   OH223002   1.288   4.139   1.861  0.3357  0.4513  0.1635
  504TIP3    H123003   1.331   4.096   1.935 -0.0742  0.1033  0.2031
  504TIP3    H223004   1.359   4.177   1.810  0.6551  0.2707  0.4759
  505TIP3   OH223005   2.427   6.098   0.203  0.0465  0.4761  0.1187
  505TIP3    H123006   2.466   6.162   0.144  1.7706 -0.5507  0.0646
  505TIP3    H223007   2.349   6.068   0.157  0.8753  0.3383 -1.2751
  506TIP3   OH223008   0.621   5.094   4.643 -0.4957  0.1021 -0.5785
  506TIP3    H123009   0.634   5.147   4.721  0.1061 -0.9250  0.0310
  506TIP3    H223010   0.704   5.100   4.595 -0.0510 -1.0745  0.0001
  507TIP3   OH223011   0.399   5.721   1.212  0.4382 -0.0816 -0.2403
  507TIP3    H123012   0.453   5.774   1.271 -0.7084 -0.0615  0.8242
  507TIP3    H223013   0.462   5.673   1.159  1.5024  1.0281 -0.0299
  508TIP3   OH223014   1.112   2.092   3.637  0.3562 -0.2391  0.0445
  508TIP3    H123015   1.177   2.085   3.567  1.5766 -4.8557  1.3010
  508TIP3    H223016   1.163   2.087   3.717 -1.3675 -1.6350  1.1171
  509TIP3   OH223017   4.660   6.852  13.310  0.3459  0.6924 -0.3452
  509TIP3    H123018   4.615   6.767  13.310 -0.9554  1.3622 -0.1026
  509TIP3    H223019   4.662   6.879  13.218  0.9416  0.3187 -0.4477
  510TIP3   OH223020   3.645   1.449  16.345 -0.1891  0.4947  0.4506
  510TIP3    H123021   3.622   1.533  16.304  1.6315  0.5111 -0.6280
  510TIP3    H223022   3.618   1.384  16.280 -2.5504  0.1106  1.7133
  511TIP3   OH223023   4.601   5.696  15.609 -0.1620  0.0137  0.0067
  511TIP3    H123024   4.641   5.692  15.522 -0.4587  0.0913 -0.1328
  511TIP3    H223025   4.642   5.771  15.651 -0.9026  0.7197 -0.5065
  512TIP3   OH223026   5.864   6.597   4.079 -0.6179  0.1306 -0.1056
  512TIP3    H123027   5.806   6.589   4.003  0.3014 -0.9131 -0.7389
  512TIP3    H223028   5.820   6.549   4.149 -0.3084 -1.1076 -0.7270
  513TIP3   OH223029   4.583   6.833  17.082  0.2826 -0.6599  0.4927
  513TIP3    H123030   4.591   6.925  17.107  1.3773 -0.4402 -0.5934
  513TIP3    H223031   4.633   6.785  17.148  0.2622 -0.4186  0.6833
  514TIP3   OH223032   3.668   4.318  12.278  0.0645 -0.0639 -0.3179
  514TIP3    H123033   3.739   4.314  12.342  0.0401 -1.2076 -0.3339
  514TIP3    H223034   3.635   4.407  12.284  0.3710 -0.0150  0.9283
  515TIP3   OH223035   2.806   1.066   0.023 -0.1629  0.4769 -0.1063
  515TIP3    H123036   2.899   1.063   0.045 -0.0238  0.4093 -0.6816
  515TIP3    H223037   2.782   0.976   0.003 -0.1108  0.6359 -0.9109
  516TIP3   OH223038   4.181   1.066   2.443  0.0226 -0.2426 -0.1905
  516TIP3    H123039   4.248   1.005   2.410 -0.1673 -0.9255  0.6506
  516TIP3    H223040   4.106   1.010   2.463 -0.6037  0.4461 -0.5806
  517TIP3   OH223041   5.101   2.591   5.358  0.0149  0.0643 -0.2084
  517TIP3    H123042   5.011   2.620   5.376  0.3067  0.5270  0.5643
  517TIP3    H223043   5.097   2.496   5.365 -0.6552 -0.0177 -1.3625
  518TIP3   OH223044   1.921   6.134  14.504  0.3745  0.4987  0.5881
  518TIP3    H123045   1.844   6.173  14.547  0.1697  0.0507  0.6413
  518TIP3    H223046   1.909   6.040  14.517 -1.0936  0.0912 -2.7259
  519TIP3   OH223047   3.245   6.827   1.504  0.0890  0.6978  0.0923
  519TIP3    H123048   3.151   6.808   1.509  0.3680 -0.8094  0.1774
  519TIP3    H223049   3.250   6.914   1.465 -1.3508  0.9136  0.3426
  520TIP3   OH223050   0.741   4.612  12.482 -0.0330 -0.1707  0.6689
  520TIP3    H123051   0.708   4.547  12.420  0.5173 -0.5604  0.7710
  520TIP3    H223052   0.836   4.600  12.479  0.3079  2.2970 -1.1772
  521TIP3   OH223053   0.514   6.693  16.424 -0.1474  0.4187  0.0471
  521TIP3    H123054   0.496   6.661  16.512 -0.9147  0.6865 -0.0062
  521TIP3    H223055   0.503   6.616  16.368  2.0341 -0.1805  0.3402
  522TIP3   OH223056   2.700   5.235   3.299  0.6270  0.2632  0.6989
  522TIP3    H123057   2.714   5.327   3.319 -0.7991  0.2491  1.9261
  522TIP3    H223058   2.719   5.189   3.380 -0.6914 -0.2824  0.7372
  523TIP3   OH223059   1.012   4.987   0.469  0.3528 -0.0210 -0.3283
  523TIP3    H123060   1.096   5.034   0.469  1.0252 -1.1429 -1.6013
  523TIP3    H223061   1.003   4.954   0.558  1.3588 -0.0135 -0.2084
  524TIP3   OH223062   4.313   2.973  13.520 -0.0300 -0.0170 -0.1270
  524TIP3    H123063   4.328   2.878  13.515 -1.1258 -0.1215 -2.9988
  524TIP3    H223064   4.235   2.982  13.575 -0.9121 -0.9474 -1.1718
  525TIP3   OH223065   6.178   6.560  16.488 -0.7966 -0.5339  0.2909
  525TIP3    H123066   6.162   6.492  16.423  0.5085 -0.7260  0.1422
  525TIP3    H223067   6.272   6.573  16.486 -0.9208  0.6083  1.0065
  526TIP3   OH223068   6.140   3.335  13.693 -0.3882 -0.1502 -0.2083
  526TIP3    H123069   6.186   3.291  13.620 -1.2863 -2.7838  0.6890
  526TIP3    H223070   6.108   3.263  13.747 -0.4050  1.7129  2.4308
  527TIP3   OH223071   1.289   1.967  16.845 -0.1274 -0.2294  0.3353
  527TIP3    H123072   1.266   2.060  16.844  2.5465  0.4881 -0.6314
  527TIP3    H223073   1.362   1.961  16.907  0.2158 -1.5631 -0.1698
  528TIP3   OH223074   4.480   4.334  14.903 -0.5310 -0.1053 -0.2189
  528TIP3    H123075   4.560   4.341  14.851 -0.3389 -0.8146 -0.0267
  528TIP3    H223076   4.432   4.262  14.864 -0.4529 -0.5519  0.4896
  529TIP3   OH223077   4.192   1.818   3.135  0.8221  0.4474  0.0620
  529TIP3    H123078   4.124   1.755   3.112  1.1919 -0.6771  1.8530
  529TIP3    H223079   4.160   1.901   3.101  0.0677 -0.5812 -1.9115
  530TIP3   OH223080   6.342   6.648  15.714  0.5108  0.2150 -0.0424
  530TIP3    H123081   6.270   6.709  15.695  0.4769  0.1668 -0.0709
  530TIP3    H223082   6.367   6.667  15.804  0.7603  0.5395 -0.1754
  531TIP3   OH223083   5.314   2.642   0.459  0.2252  0.4279 -0.0004
  531TIP3    H123084   5.374   2.595   0.400  0.1127  0.7720 -0.3929
  531TIP3    H223085   5.372   2.682   0.524  0.2717 -0.8311  0.7579
  532TIP3   OH223086   3.188   0.068   0.798 -0.0335  0.5301 -0.3984
  532TIP3    H123087   3.157   0.032   0.881 -0.5134 -0.5608 -1.0298
  532TIP3    H223088   3.283   0.054   0.800  0.2223  2.0928  0.6861
  533TIP3   OH223089   5.469   3.565   0.120  0.7904 -0.2065 -0.3416
  533TIP3    H123090   5.432   3.539   0.205  1.9837 -0.5961  0.0837
  533TIP3    H223091   5.563   3.545   0.128  0.8775 -0.5193 -1.8525
  534TIP3   OH223092   0.826   3.544  11.555  0.0032  0.2502 -0.1038
  534TIP3    H123093   0.816   3.545  11.460  0.4131  1.6956 -0.1581
  534TIP3    H223094   0.740   3.567  11.589 -0.1216 -0.1831 -0.1216
  535TIP3   OH223095   4.304   6.499  16.563 -0.0893 -1.2266  0.1234
  535TIP3    H123096   4.341   6.470  16.479 -0.2457  0.0659 -0.4095
  535TIP3    H223097   4.373   6.551  16.603 -0.8413  0.1365 -0.2996
  536TIP3   OH223098   2.048   4.492  12.270 -0.2254 -0.9115 -0.2698
  536TIP3    H123099   1.981   4.557  12.248 -0.6091 -0.9881  0.5983
  536TIP3    H223100   2.054   4.496  12.366 -0.4479 -2.3365 -0.1718
  537TIP3   OH223101   1.811   1.459  16.098  0.6555 -0.0339 -0.2664
  537TIP3    H123102   1.801   1.524  16.029 -1.3979  1.0545  0.9433
  537TIP3    H223103   1.854   1.506  16.169 -1.3160  0.2696  0.8167
  538TIP3   OH223104   5.673   4.191  15.614  0.0972 -0.0941  0.0546
  538TIP3    H123105   5.721   4.113  15.587 -1.6100 -1.2784  0.2872
  538TIP3    H223106   5.640   4.170  15.701  1.5520  1.8472  1.1813
  539TIP3   OH223107   4.065   1.824   5.395 -0.5710  0.0398  0.3930
  539TIP3    H123108   4.158   1.837   5.379 -0.4481 -0.1510  0.9539
  539TIP3    H223109   4.053   1.729   5.386 -0.4573 -0.1070  1.6278
  540TIP3   OH223110   2.311   0.977  15.476  0.4418 -0.4103 -0.0732
  540TIP3    H123111   2.317   1.007  15.567  0.4523 -2.1386  0.5217
  540TIP3    H223112   2.370   0.903  15.470 -1.0464 -1.6023 -0.9375
  541TIP3   OH223113   0.494   6.161   0.295  0.2451 -0.4803 -0.3561
  541TIP3    H123114   0.412   6.198   0.326  0.2706 -0.4409 -0.3357
  541TIP3    H223115   0.517   6.096   0.361  0.3825 -0.2827 -0.2093
  542TIP3   OH223116   2.705   1.993   4.850 -0.3279  0.2020 -0.1188
  542TIP3    H123117   2.756   1.992   4.769 -0.8144 -0.7824 -0.4202
  542TIP3    H223118   2.703   1.902   4.879 -0.1842  0.5397  0.9976
  543TIP3   OH223119   4.315   1.523  12.400 -0.5164  0.8043  0.0078
  543TIP3    H123120   4.301   1.615  12.424 -1.5179  0.2172  1.9042
  543TIP3    H223121   4.364   1.486  12.474 -1.5146 -0.5318  0.0463
  544TIP3   OH223122   5.243   2.563   0.784  0.1607 -0.4039  0.7825
  544TIP3    H123123   5.330   2.596   0.805  0.2239  1.7681 -2.1690
  544TIP3    H223124   5.257   2.510   0.705 -1.1774  0.1222  0.1643
  545TIP3   OH223125   1.859   4.572   2.389 -0.0326 -0.5777  0.3226
  545TIP3    H123126   1.947   4.545   2.363  0.6500  2.0191 -0.2498
  545TIP3    H223127   1.801   4.515   2.339  1.2704 -2.4316  0.8147
  546TIP3   OH223128   4.231   0.104  16.887 -0.1977 -0.1538 -0.2608
  546TIP3    H123129   4.255   0.182  16.937 -1.1531 -0.2065  0.2922
  546TIP3    H223130   4.150   0.128  16.843  0.4649 -0.2151 -1.5662
  547TIP3   OH223131   3.436   1.474   3.514 -0.2153  0.2055 -0.0134
  547TIP3    H123132   3.390   1.535   3.570 -1.9207  1.9508 -3.0209
  547TIP3    H223133   3.512   1.523   3.481  1.2259 -1.0576  1.2625
  548TIP3   OH223134   2.988   1.844   0.893 -0.0054 -0.1930  0.5427
  548TIP3    H123135   2.996   1.857   0.988  1.1333  0.5159  0.3674
  548TIP3    H223136   3.076   1.856   0.859 -0.1256 -1.8764 -0.4726
  549TIP3   OH223137   4.563   2.434  15.087  0.0176 -0.2480  0.3260
  549TIP3    H123138   4.503   2.395  15.025  1.0596  0.0097 -0.8914
  549TIP3    H223139   4.530   2.523  15.100  0.2801 -0.0075 -0.5727
  550TIP3   OH223140   3.569   6.818  12.031 -0.2224 -0.1489  0.3414
  550TIP3    H123141   3.549   6.898  12.080  0.1795  0.5763 -0.6469
  550TIP3    H223142   3.484   6.777  12.016 -0.4242  0.0454  0.9216
  551TIP3   OH223143   6.011   3.365  14.746 -0.1979 -0.7486 -0.5011
  551TIP3    H123144   5.960   3.442  14.721 -0.7178 -1.0600 -0.4150
  551TIP3    H223145   5.952   3.314  14.802  0.4072 -0.8348  0.0697
  552TIP3   OH223146   3.531   2.593  11.756  0.2565 -0.5207  0.9100
  552TIP3    H123147   3.526   2.688  11.748  2.1977 -0.2508  2.0710
  552TIP3    H223148   3.596   2.566  11.691  0.4755 -0.8950  1.2712
  553TIP3   OH223149   0.157   0.401   2.600 -0.1691  0.2596  0.6622
  553TIP3    H123150   0.088   0.406   2.666  0.2596 -3.3624  1.6062
  553TIP3    H223151   0.234   0.438   2.642 -0.1552 -1.0826  1.9040
  554TIP3   OH223152   0.084   3.733  15.900  0.0608  0.1793  0.6419
  554TIP3    H123153   0.146   3.686  15.843  0.4411 -0.5008  1.5758
  554TIP3    H223154   0.046   3.664  15.954 -2.7242  0.3373 -0.9353
  555TIP3   OH223155   3.789   0.249  15.131  0.1164 -0.0406 -0.1741
  555TIP3    H123156   3.847   0.248  15.055 -0.3788 -1.0026 -0.5542
  555TIP3    H223157   3.829   0.189  15.193  0.2386  0.3419  0.1246
  556TIP3   OH223158   5.593   3.628   3.260 -0.1125 -0.2832  0.0839
  556TIP3    H123159   5.592   3.533   3.257 -0.2470 -0.2483 -1.3023
  556TIP3    H223160   5.600   3.656   3.169 -2.3435  1.0609  0.2412
  557TIP3   OH223161   3.403   2.079   3.612  0.0932  0.0161  0.4431
  557TIP3    H123162   3.382   2.029   3.533 -1.1422 -0.5823  1.1178
  557TIP3    H223163   3.386   2.170   3.587 -4.2212 -0.4153  1.0567
  558TIP3   OH223164   3.472   6.719   0.315 -0.4391  0.1427 -0.5417
  558TIP3    H123165   3.506   6.806   0.336  0.5325 -0.5443  0.9859
  558TIP3    H223166   3.400   6.735   0.254 -0.2749  2.0010 -0.3157
  559TIP3   OH223167   6.162   0.746   6.631 -0.3495 -0.1090  0.1758
  559TIP3    H123168   6.077   0.703   6.630 -0.4386  0.0780 -0.3693
  559TIP3    H223169   6.143   0.838   6.651 -0.4440  0.2684 -1.4841
  560TIP3   OH223170   3.732   5.753  12.992  0.1981 -0.6766  0.1394
  560TIP3    H123171   3.666   5.816  12.965  0.7792 -0.7180 -1.4978
  560TIP3    H223172   3.700   5.669  12.958 -1.1665 -1.5923  3.2782
  561TIP3   OH223173   4.156   5.554  16.431 -0.1376 -0.4439 -0.4989
  561TIP3    H123174   4.124   5.637  16.398 -1.7544 -0.9861 -0.3719
  561TIP3    H223175   4.250   5.568  16.445  0.3136  0.2984 -3.6683
  562TIP3   OH223176   2.826   6.191   3.725 -0.2821  0.0290 -0.0144
  562TIP3    H123177   2.744   6.234   3.748  0.3674  1.0277  0.4670
  562TIP3    H223178   2.822   6.106   3.770 -2.2002 -1.1048 -2.1114
  563TIP3   OH223179   1.315   1.390   4.172  0.6980  0.4448 -0.2638
  563TIP3    H123180   1.301   1.394   4.078  0.1276  1.8511 -0.1487
  563TIP3    H223181   1.380   1.459   4.190  1.3443 -0.2819  0.2926
  564TIP3   OH223182   6.823   4.774   4.301 -0.0279  0.2413 -0.5359
  564TIP3    H123183   6.880   4.772   4.378  0.3015  2.6286 -0.6560
  564TIP3    H223184   6.883   4.793   4.229 -0.6832  0.6245 -0.9842
  565TIP3   OH223185   6.041   3.173  15.020 -0.9119  0.2601 -0.0567
  565TIP3    H123186   6.087   3.119  15.084 -2.3267 -0.9629 -0.0049
  565TIP3    H223187   6.014   3.251  15.068  0.7812  0.8605 -0.0199
  566TIP3   OH223188   1.418   2.443   3.771 -0.1917  0.2884 -0.1971
  566TIP3    H123189   1.363   2.506   3.819  0.9924  0.9080  0.3725
  566TIP3    H223190   1.487   2.420   3.832 -0.8729 -2.0030 -0.2187
  567TIP3   OH223191   1.081   5.354  14.127  0.5042 -0.0670 -0.0434
  567TIP3    H123192   1.022   5.303  14.182 -0.3868  0.7495 -0.2016
  567TIP3    H223193   1.033   5.365  14.044  1.2929 -0.2086 -0.5282
  568TIP3   OH223194   6.718   1.583   0.902  0.5651  0.1978  0.0084
  568TIP3    H123195   6.795   1.562   0.849  0.5903  0.1604  0.0604
  568TIP3    H223196   6.736   1.546   0.988  0.7940  0.7976  0.2270
  569TIP3   OH223197   5.440   0.218   2.001 -0.3393  0.7482  0.1418
  569TIP3    H123198   5.360   0.227   1.949 -0.6276  0.1878  0.4853
  569TIP3    H223199   5.510   0.242   1.940 -0.7977  1.8278  0.0036
  570TIP3   OH223200   5.111   4.388   2.442  0.2104 -0.5503  0.0871
  570TIP3    H123201   5.047   4.327   2.476 -1.1110 -0.2571 -1.7067
  570TIP3    H223202   5.124   4.452   2.512 -1.4565 -0.6404  0.5188
  571TIP3   OH223203   4.349   0.937   4.917  0.1639  0.0410 -0.1163
  571TIP3    H123204   4.428   0.904   4.959 -0.5080  0.5217  1.6269
  571TIP3    H223205   4.278   0.910   4.975 -0.9028  0.1516 -1.3267
  572TIP3   OH223206   2.266   4.158   4.921  0.1128  0.3869  0.4782
  572TIP3    H123207   2.354   4.174   4.955  0.8041  0.1250 -1.0776
  572TIP3    H223208   2.239   4.242   4.884 -0.1471  0.3827  0.6592
  573TIP3   OH223209   3.321   4.843   5.865 -0.1961 -0.3043 -0.4495
  573TIP3    H123210   3.411   4.874   5.853 -0.2520 -0.8623 -2.6462
  573TIP3    H223211   3.326   4.749   5.850 -1.0663 -0.4258 -0.0110
  574TIP3   OH223212   5.440   4.407  14.632  0.1889  0.8205  0.8501
  574TIP3    H123213   5.529   4.443  14.636 -0.1017  1.5432  1.1316
  574TIP3    H223214   5.391   4.471  14.581 -0.5581  1.3235  2.1479
  575TIP3   OH223215   2.783   4.846  13.851  0.5751  0.7689 -0.0608
  575TIP3    H123216   2.782   4.937  13.823 -0.0183  0.4046 -1.2806
  575TIP3    H223217   2.765   4.849  13.945  0.7141  1.9072 -0.0632
  576TIP3   OH223218   4.703   2.270  14.521 -0.4598 -0.3818 -0.1288
  576TIP3    H123219   4.705   2.363  14.497  0.2759 -0.4301 -0.2719
  576TIP3    H223220   4.785   2.255  14.567 -0.3965 -1.0583 -0.4531
  577TIP3   OH223221   1.285   2.263  16.265 -0.6194  0.3331  0.3522
  577TIP3    H123222   1.316   2.192  16.209 -2.3755  1.2428 -1.9191
  577TIP3    H223223   1.353   2.330  16.257 -0.1157 -0.1437  0.5657
  578TIP3   OH223224   0.084   0.742   2.059  0.6180 -0.1560  0.2064
  578TIP3    H123225   0.111   0.660   2.018  1.4273 -0.4321  1.2372
  578TIP3    H223226   0.069   0.719   2.151  1.0898  0.8880  0.5655
  579TIP3   OH223227   3.225   3.677  14.087 -0.2650  0.0692 -0.8083
  579TIP3    H123228   3.305   3.643  14.047  0.3634  0.7675 -0.1892
  579TIP3    H223229   3.155   3.652  14.027  0.1529 -2.2212 -0.4296
  580TIP3   OH223230   6.862   1.610   5.813 -0.8934  0.2757  0.3140
  580TIP3    H123231   6.807   1.688   5.815 -0.7717  0.4289 -1.1392
  580TIP3    H223232   6.915   1.616   5.892  0.6121  2.8118 -0.7722
  581TIP3   OH223233   3.415   6.720   4.421  0.2274  0.1057 -0.1854
  581TIP3    H123234   3.486   6.747   4.481 -0.8755  0.3205  1.0688
  581TIP3    H223235   3.361   6.798   4.411 -1.7789 -0.9090  1.7392
  582TIP3   OH223236   6.688   1.190  12.219  0.1909  0.3722 -0.1852
  582TIP3    H123237   6.694   1.230  12.133 -0.9969  1.6612  0.2879
  582TIP3    H223238   6.597   1.201  12.245  0.1018 -1.5893  0.5149
  583TIP3   OH223239   2.018   6.344  16.124  0.1829 -0.0312 -0.1428
  583TIP3    H123240   2.100   6.297  16.110 -0.3249 -0.5043 -1.7614
  583TIP3    H223241   1.953   6.275  16.140  0.0397  0.3284  0.8955
  584TIP3   OH223242   2.768   6.845   1.832 -0.1342 -0.1867  0.3959
  584TIP3    H123243   2.770   6.775   1.898 -0.0163 -0.1247  0.4584
  584TIP3    H223244   2.727   6.919   1.877 -0.4217 -0.2713  0.2750
  585TIP3   OH223245   5.985   2.343  15.788  0.0629 -0.2322 -0.0199
  585TIP3    H123246   6.012   2.372  15.701 -1.6536  0.8437 -0.2455
  585TIP3    H223247   5.967   2.249  15.778 -1.7460  0.2022 -1.3066
  586TIP3   OH223248   0.245   4.992  12.447 -0.3906 -0.8297 -0.6405
  586TIP3    H123249   0.285   4.907  12.425  1.4466 -0.2076  0.0450
  586TIP3    H223250   0.315   5.055  12.431 -1.6213  0.5348 -0.8005
  587TIP3   OH223251   3.755   2.079   0.564 -0.8231 -0.3979 -0.2585
  587TIP3    H123252   3.791   2.118   0.484 -0.6650 -0.4435 -0.2089
  587TIP3    H223253   3.749   2.152   0.626 -0.9305 -0.3659 -0.3059
  588TIP3   OH223254   6.082   2.109  14.495 -0.2622 -0.3995 -0.2731
  588TIP3    H123255   6.143   2.182  14.487 -1.1570  0.5725  1.2262
  588TIP3    H223256   6.102   2.053  14.420  0.9329  1.0142 -1.0769
  589TIP3   OH223257   3.072   4.092  16.489  0.0552  0.1361 -0.0968
  589TIP3    H123258   3.101   4.030  16.557 -0.2659 -0.9729 -0.9538
  589TIP3    H223259   3.143   4.091  16.424 -0.4446 -0.1602 -0.6415
  590TIP3   OH223260   6.813   5.393  13.321  0.1257  0.0474 -0.5607
  590TIP3    H123261   6.744   5.412  13.257  2.1169  0.2889 -2.7513
  590TIP3    H223262   6.844   5.478  13.349 -0.2816 -0.0634  0.2574
  591TIP3   OH223263   2.455   6.669   1.664  0.1825  0.4146 -0.8393
  591TIP3    H123264   2.457   6.751   1.714 -0.5284  1.2185 -2.0837
  591TIP3    H223265   2.495   6.690   1.580 -0.6279 -0.3235 -1.4369
  592TIP3   OH223266   4.199   2.679  14.947 -0.0986  0.0425 -0.3657
  592TIP3    H123267   4.235   2.635  14.870  1.4342 -0.7678  0.7685
  592TIP3    H223268   4.113   2.638  14.960  0.0650 -0.5375 -1.0461
  593TIP3   OH223269   2.810   1.511   5.885 -0.3585 -0.4859 -0.0804
  593TIP3    H123270   2.765   1.463   5.954 -0.8804 -2.3132 -1.6144
  593TIP3    H223271   2.747   1.578   5.857 -0.4593 -0.2766  0.6276
  594TIP3   OH223272   6.507   0.647   2.246  0.0821 -0.2287  0.4435
  594TIP3    H123273   6.493   0.559   2.280 -0.8307 -0.8072 -1.3282
  594TIP3    H223274   6.420   0.682   2.233  0.4275  1.2967  1.8910
  595TIP3   OH223275   6.322   0.066  16.759 -0.4047  0.8376  0.0937
  595TIP3    H123276   6.384   0.132  16.728 -1.3013  1.0387 -1.3587
  595TIP3    H223277   6.260   0.057  16.687  0.0394 -2.0582 -0.0136
  596TIP3   OH223278   2.819   2.283  14.718 -0.8574  0.1937 -0.5962
  596TIP3    H123279   2.876   2.241  14.782 -1.9991  0.9688  1.0078
  596TIP3    H223280   2.867   2.362  14.692 -0.4208 -0.0834 -0.6402
  597TIP3   OH223281   1.650   0.704   2.314 -0.6670  0.1848 -0.3440
  597TIP3    H123282   1.619   0.756   2.240  1.4045  0.4521 -1.0776
  597TIP3    H223283   1.676   0.620   2.275  0.8966  0.4992 -0.0200
  598TIP3   OH223284   2.897   2.676   4.601  0.0620 -0.6552  0.3206
  598TIP3    H123285   2.960   2.740   4.569 -0.8599  0.1719  0.1244
  598TIP3    H223286   2.888   2.696   4.695  0.0394 -0.7358  0.3362
  599TIP3   OH223287   3.563   1.863   5.484  1.0445  0.2241 -0.4961
  599TIP3    H123288   3.585   1.817   5.565  1.2919 -1.0018 -1.2266
  599TIP3    H223289   3.647   1.878   5.441  1.0357  2.0259  0.0409
  600TIP3   OH223290   0.027   0.867   0.126  0.1324 -0.3309 -0.7324
  600TIP3    H123291   0.115   0.845   0.095 -0.2659 -2.2959 -0.6234
  600TIP3    H223292  -0.030   0.805   0.081 -0.9163 -0.6755  0.9716
  601TIP3   OH223293   6.521   2.681  16.019 -0.0612  0.5917 -0.3082
  601TIP3    H123294   6.545   2.770  15.993 -0.1403  0.3989 -1.0527
  601TIP3    H223295   6.599   2.629  16.002  0.0266  0.5351  0.2499
  602TIP3   OH223296   0.342   6.019  12.683  0.4440 -0.3630 -0.3383
  602TIP3    H123297   0.354   5.951  12.749 -0.6215  0.8527  1.1806
  602TIP3    H223298   0.250   6.014  12.659  0.4604  0.2540 -0.5609
  603TIP3   OH223299   1.859   6.360  10.867  0.1522  0.4848 -0.5246
  603TIP3    H123300   1.781   6.305  10.871  1.1976 -0.9655  1.4963
  603TIP3    H223301   1.932   6.299  10.877  1.4164  2.0889  0.4769
  604TIP3   OH223302   1.296   6.772  14.403  0.2564 -0.1978 -0.1398
  604TIP3    H123303   1.221   6.772  14.462 -0.4594 -0.0525 -1.0244
  604TIP3    H223304   1.372   6.783  14.460 -0.2778 -1.6856  0.9053
  605TIP3   OH223305   2.928   5.123   1.188  0.8086  0.4482  0.8709
  605TIP3    H123306   2.888   5.148   1.271 -0.1381  0.9925  0.2719
  605TIP3    H223307   3.021   5.114   1.208  0.7806  1.7975  1.7163
  606TIP3   OH223308   3.530   0.566   2.849 -0.1140 -0.0959  0.8754
  606TIP3    H123309   3.610   0.514   2.855  0.7010  1.1229  1.0451
  606TIP3    H223310   3.459   0.502   2.845  0.9898 -1.3000 -1.7790
  607TIP3   OH223311   5.407   4.317  12.328  0.4871  0.0335  0.6476
  607TIP3    H123312   5.317   4.346  12.338  0.2271 -0.6948  0.4687
  607TIP3    H223313   5.443   4.318  12.417 -0.3345 -1.6704  1.0520
  608TIP3   OH223314   0.908   1.454  11.437  0.5411 -0.1123 -0.0787
  608TIP3    H123315   0.956   1.374  11.458  1.0446 -0.0075 -0.8029
  608TIP3    H223316   0.936   1.477  11.349 -1.3808 -0.4404 -0.8287
  609TIP3   OH223317   3.736   6.250   1.453  0.3282 -0.3196  0.3286
  609TIP3    H123318   3.673   6.322   1.447  0.1697 -0.4217  0.8316
  609TIP3    H223319   3.688   6.173   1.425  0.2663 -0.3739  0.5842
  610TIP3   OH223320   1.788   0.472   5.844  0.3487  0.4781 -0.2593
  610TIP3    H123321   1.753   0.384   5.855  1.1109  0.2654  0.6315
  610TIP3    H223322   1.810   0.500   5.933  0.9068  1.2277 -0.6216
  611TIP3   OH223323   1.791   1.150   0.350 -0.1730  0.3196 -0.1886
  611TIP3    H123324   1.707   1.107   0.364  0.3389 -1.1207 -1.2031
  611TIP3    H223325   1.842   1.085   0.301  1.8232  0.8173  1.1437
  612TIP3   OH223326   3.927   6.081  12.589 -0.2788  0.3713 -0.3950
  612TIP3    H123327   3.967   6.086  12.502 -0.2844  0.5260 -0.3889
  612TIP3    H223328   3.975   6.011  12.634 -0.9325 -0.3918 -0.8631
  613TIP3   OH223329   6.584   2.551   4.970 -0.1363 -0.3578  0.6206
  613TIP3    H123330   6.605   2.618   5.035 -0.6972  0.4885 -0.0505
  613TIP3    H223331   6.668   2.530   4.928  0.4073 -1.6077  2.2239
  614TIP3   OH223332   3.965   4.219   3.451  0.2634 -0.1619  0.0697
  614TIP3    H123333   3.916   4.286   3.403 -0.5233 -0.4731  0.4160
  614TIP3    H223334   3.965   4.250   3.542  0.2507 -0.4246  0.1614
  615TIP3   OH223335   3.037   4.393  12.287 -0.3287 -0.2079  0.0380
  615TIP3    H123336   3.071   4.361  12.204  0.5554 -1.5462  0.8757
  615TIP3    H223337   3.080   4.477  12.301  0.3972 -0.5133 -0.3209
  616TIP3   OH223338   6.169   2.280   0.161 -0.2860 -0.2413  0.6501
  616TIP3    H123339   6.127   2.334   0.229 -1.0539 -0.8365  0.6570
  616TIP3    H223340   6.246   2.331   0.135  0.9345 -0.6927  3.0847
  617TIP3   OH223341   0.046   5.873   0.999  0.8875 -0.2448  0.7650
  617TIP3    H123342   0.095   5.855   1.080  1.3963 -2.2734  0.0586
  617TIP3    H223343  -0.042   5.839   1.016  0.8677 -0.2582  0.6366
  618TIP3   OH223344   3.631   4.737  11.961 -0.0335 -0.1150 -0.2572
  618TIP3    H123345   3.605   4.826  11.983 -0.5804 -0.2912 -0.1684
  618TIP3    H223346   3.550   4.695  11.932 -0.1076 -1.0465  1.2147
  619TIP3   OH223347   4.070   0.800  13.840 -0.1747 -0.2484  0.0878
  619TIP3    H123348   4.102   0.854  13.912  1.1672 -1.3441  0.3532
  619TIP3    H223349   3.998   0.750  13.877 -0.4807  0.2893  0.2326
  620TIP3   OH223350   1.075   2.859   4.563  0.7756 -0.4880 -0.1662
  620TIP3    H123351   1.078   2.948   4.598  0.0512 -0.0954 -1.0557
  620TIP3    H223352   1.088   2.803   4.639 -0.5391  0.3508  0.7262
  621TIP3   OH223353   2.297   5.008  14.072  0.0646  0.2574  0.2771
  621TIP3    H123354   2.326   4.954  14.146 -0.4303  1.6801  1.5561
  621TIP3    H223355   2.274   5.092  14.111  0.4988  1.3138 -1.6052
  622TIP3   OH223356   6.317   4.273  13.055  0.3624 -0.3766 -0.9528
  622TIP3    H123357   6.270   4.189  13.060  1.0010 -0.6992 -0.1556
  622TIP3    H223358   6.260   4.328  13.002 -0.3731 -1.1212 -0.9754
  623TIP3   OH223359   6.449   1.747  15.135  0.2614 -0.7291  0.2405
  623TIP3    H123360   6.503   1.712  15.065  2.9411 -0.7467  2.1735
  623TIP3    H223361   6.463   1.687  15.209  1.1237  1.6194  2.1203
  624TIP3   OH223362   2.815   0.011  12.648  0.1269 -0.0405 -0.0063
  624TIP3    H123363   2.891  -0.032  12.688  0.6073 -0.7672 -1.6263
  624TIP3    H223364   2.852   0.079  12.593 -0.5463  1.1465  0.9579
  625TIP3   OH223365   5.368   4.844  17.117  0.1935 -0.5657  0.3924
  625TIP3    H123366   5.316   4.862  17.039 -0.5863 -1.9369  0.5581
  625TIP3    H223367   5.457   4.868  17.093  0.0452 -1.3885 -1.0802
  626TIP3   OH223368   1.615   3.894   5.618  0.0328  0.9161 -0.3343
  626TIP3    H123369   1.598   3.816   5.671  0.3134 -0.7638 -2.5254
  626TIP3    H223370   1.707   3.914   5.633 -0.2206  1.3106  0.7964
  627TIP3   OH223371   0.843   6.070  16.869  0.2095  0.4493 -0.4778
  627TIP3    H123372   0.831   5.989  16.819 -1.5758 -0.1870  0.8844
  627TIP3    H223373   0.773   6.127  16.838 -0.9170  0.0497  1.2248
  628TIP3   OH223374   5.921   0.301   0.998  1.2151  0.5814  0.1316
  628TIP3    H123375   5.868   0.261   0.928  1.6643  1.5020 -0.7675
  628TIP3    H223376   5.977   0.230   1.029  0.2420 -0.1197  0.3185
  629TIP3   OH223377   3.942   0.060  15.283  0.1343  0.3552 -0.2802
  629TIP3    H123378   4.030   0.020  15.287 -0.8721 -1.9836  0.4602
  629TIP3    H223379   3.928   0.094  15.371 -1.8357 -4.6005  1.6973
  630TIP3   OH223380   0.228   2.762   3.405  0.2286 -0.1706 -0.0951
  630TIP3    H123381   0.224   2.810   3.488 -0.1358  0.3125 -0.3902
  630TIP3    H223382   0.138   2.764   3.372  0.2471 -0.8930 -0.2056
  631TIP3   OH223383   2.736   6.237  15.383 -0.1192  0.7690 -0.7522
  631TIP3    H123384   2.782   6.153  15.384 -0.3600  0.6111  1.6836
  631TIP3    H223385   2.806   6.303  15.392 -0.1256  0.7048 -0.2469
  632TIP3   OH223386   5.279   6.541  13.947  0.8878  0.0462 -0.2963
  632TIP3    H123387   5.277   6.450  13.918  0.6447 -0.0889  0.1319
  632TIP3    H223388   5.187   6.565  13.957  0.9552 -0.2568  1.3866
  633TIP3   OH223389   3.949   4.188   1.157  0.0442 -0.3314 -0.6192
  633TIP3    H123390   4.020   4.183   1.094 -0.4034  0.1107 -1.1666
  633TIP3    H223391   3.992   4.201   1.241  0.6637 -1.4169 -0.7546
  634TIP3   OH223392   6.031   1.460  11.690  0.0520 -0.0841  0.0827
  634TIP3    H123393   5.962   1.469  11.624 -0.3526  0.1813  0.5316
  634TIP3    H223394   6.110   1.440  11.640 -0.7925 -2.8339 -0.2896
  635TIP3   OH223395   6.487   1.397  11.604 -0.1415 -0.4500 -0.2345
  635TIP3    H123396   6.521   1.308  11.614  0.2287 -0.2371  0.5838
  635TIP3    H223397   6.436   1.411  11.683  1.7817  0.8809  0.8687
  636TIP3   OH223398   3.177   4.604   6.379 -0.3157  0.4526  0.1259
  636TIP3    H123399   3.127   4.568   6.305 -2.1934  1.1550  0.9705
  636TIP3    H223400   3.154   4.697   6.379  0.7005  0.7057  0.8158
  637TIP3   OH223401   5.410   5.528  16.973 -0.0925 -0.3956 -0.2738
  637TIP3    H123402   5.445   5.613  16.947 -2.0592 -0.2811 -2.9794
  637TIP3    H223403   5.319   5.545  16.997  0.6886 -1.0910  3.9847
  638TIP3   OH223404   1.755   0.483   3.358 -0.2724  0.3813 -0.2087
  638TIP3    H123405   1.666   0.455   3.382  0.4540 -1.8214  0.1372
  638TIP3    H223406   1.802   0.402   3.340  1.6495  1.5078 -0.5837
  639TIP3   OH223407   4.703   4.120  15.107  0.1371 -0.1469  0.0641
  639TIP3    H123408   4.741   4.176  15.039  0.1458 -0.1646  0.0550
  639TIP3    H223409   4.746   4.148  15.188 -0.9962  0.9564  0.3234
  640TIP3   OH223410   0.174   0.236  11.722  0.3651 -0.3738  0.0749
  640TIP3    H123411   0.130   0.241  11.638  1.6772  0.1037 -0.6016
  640TIP3    H223412   0.153   0.318  11.766  0.0806 -0.4154  0.0182
  641TIP3   OH223413   2.208   2.921   3.677 -0.2092 -0.1063  0.3296
  641TIP3    H123414   2.116   2.940   3.694 -1.0099 -1.2417 -2.1451
  641TIP3    H223415   2.245   3.004   3.648 -1.1653 -0.1547 -1.1249
  642TIP3   OH223416   2.228   5.847   1.638  0.2686  0.6525  0.1712
  642TIP3    H123417   2.307   5.899   1.650 -0.4959  2.0269 -0.4903
  642TIP3    H223418   2.168   5.878   1.707  0.4256 -0.7070  0.9765
  643TIP3   OH223419   5.041   6.536   5.397 -0.5462  0.1571  1.0791
  643TIP3    H123420   5.124   6.499   5.424 -0.0865  0.4456  0.1010
  643TIP3    H223421   5.050   6.630   5.412 -0.5193  0.2443  0.5384
  644TIP3   OH223422   0.082   4.848  14.640 -0.5629 -0.4459 -0.4620
  644TIP3    H123423   0.035   4.765  14.647 -1.3345 -0.0634 -1.0098
  644TIP3    H223424   0.173   4.825  14.659 -1.1122 -0.9933  1.9734
  645TIP3   OH223425   5.250   2.879  15.604 -0.0631 -0.7096  0.3913
  645TIP3    H123426   5.186   2.880  15.676 -0.3486  1.5872  0.1814
  645TIP3    H223427   5.331   2.912  15.643  0.0654 -0.4098 -0.1231
  646TIP3   OH223428   4.532   4.802   2.369  0.0941  0.3911 -0.2822
  646TIP3    H123429   4.496   4.744   2.301  0.2477 -1.0826  0.8366
  646TIP3    H223430   4.466   4.870   2.380 -1.2240 -0.8815 -0.0023
  647TIP3   OH223431   3.353   6.329   5.622 -0.4650 -0.1507  0.0239
  647TIP3    H123432   3.260   6.347   5.635 -0.9184 -0.4415 -2.2853
  647TIP3    H223433   3.375   6.374   5.540  0.7269 -2.2178 -0.8756
  648TIP3   OH223434   1.897   5.484  15.803  0.6812 -0.3003 -0.0499
  648TIP3    H123435   1.849   5.521  15.730 -0.6619 -0.5183  0.6834
  648TIP3    H223436   1.909   5.557  15.864 -0.8833 -0.7393  0.8414
  649TIP3   OH223437   3.276   0.185   4.515 -0.2009  0.2875 -0.4458
  649TIP3    H123438   3.201   0.220   4.466 -0.5212  0.2936  0.0365
  649TIP3    H223439   3.341   0.165   4.448 -1.4117 -1.7288 -1.1138
  650TIP3   OH223440   0.689   6.415  15.684  0.6524  0.3684 -0.2183
  650TIP3    H123441   0.634   6.351  15.730 -0.2314  0.8215 -0.6314
  650TIP3    H223442   0.775   6.373  15.679 -0.1343 -1.2299 -1.3267
  651TIP3   OH223443   1.877   4.470  16.989  0.5872 -0.6668 -0.0661
  651TIP3    H123444   1.955   4.481  16.935  0.5259  0.4961  0.0464
  651TIP3    H223445   1.882   4.380  17.021  1.5170 -0.8268 -0.6238
  652TIP3   OH223446   1.756   3.269   4.815 -0.5701  0.0510 -0.4526
  652TIP3    H123447   1.803   3.251   4.897 -1.1288 -4.3388 -0.9035
  652TIP3    H223448   1.822   3.258   4.747 -1.5404 -4.1826 -0.9490
  653TIP3   OH223449   6.376   3.587   3.502  0.3973 -0.1003  0.2258
  653TIP3    H123450   6.399   3.498   3.475 -3.1833 -0.9480 -0.6293
  653TIP3    H223451   6.396   3.641   3.426  0.4440 -0.6166 -0.1389
  654TIP3   OH223452   4.987   3.310  11.256 -0.3552 -0.5047  0.0984
  654TIP3    H123453   4.925   3.360  11.308  0.0062  2.1324 -1.7989
  654TIP3    H223454   4.962   3.328  11.165  1.0761 -2.1959 -0.6986
  655TIP3   OH223455   1.974   3.500  15.235 -0.2054  0.2357 -0.0239
  655TIP3    H123456   1.973   3.592  15.259  1.2183  0.0841  0.7052
  655TIP3    H223457   1.901   3.490  15.173 -0.6203  1.7475  0.1925
  656TIP3   OH223458   5.448   2.298   0.964 -1.0419 -0.5866  0.3870
  656TIP3    H123459   5.481   2.328   0.879  0.0447 -2.4622  0.0949
  656TIP3    H223460   5.524   2.302   1.022 -2.1544  2.3134  1.8220
  657TIP3   OH223461   1.285   0.985   5.467  0.3045 -0.4022  0.5155
  657TIP3    H123462   1.203   1.033   5.452  0.7338  0.4860  0.9639
  657TIP3    H223463   1.260   0.911   5.522 -0.2870 -0.4416  0.2044
  658TIP3   OH223464   3.978   6.793   3.828  0.0833  0.0584 -0.4493
  658TIP3    H123465   3.965   6.745   3.910  5.1263 -2.4755 -0.7754
  658TIP3    H223466   3.978   6.885   3.854  0.4943 -0.6035  2.2436
  659TIP3   OH223467   0.957   2.534  15.649  0.0086  0.4304  0.1899
  659TIP3    H123468   0.955   2.571  15.737 -0.5881  0.8056  0.0270
  659TIP3    H223469   1.049   2.538  15.623  0.6576 -2.0616  1.7727
  660TIP3   OH223470   5.435   2.692  13.257  0.1926  0.0107  0.6699
  660TIP3    H123471   5.451   2.726  13.169 -0.6397 -0.3281  0.3878
  660TIP3    H223472   5.461   2.765  13.314 -0.5286  0.7376  0.1048
  661TIP3   OH223473   5.485   5.803  16.862 -0.2193 -0.0189 -0.0478
  661TIP3    H123474   5.576   5.823  16.840 -0.5313  2.7130  0.7694
  661TIP3    H223475   5.436   5.881  16.834 -2.2150 -1.1189  0.1930
  662TIP3   OH223476   3.420   5.966   2.107 -0.0359  0.1663 -0.3490
  662TIP3    H123477   3.394   5.900   2.171 -0.9531  0.6814 -0.1831
  662TIP3    H223478   3.448   5.915   2.031 -0.7102 -0.4137 -0.2149
  663TIP3   OH223479   3.293   3.605   4.881 -0.2543 -0.3383 -0.5467
  663TIP3    H123480   3.287   3.518   4.921  0.4754  0.2714  0.9721
  663TIP3    H223481   3.203   3.630   4.861 -0.5172 -1.1722 -0.4232
  664TIP3   OH223482   1.293   3.626   4.884  0.6065  0.1015 -0.2064
  664TIP3    H123483   1.202   3.612   4.858  0.0656  1.6592  0.7437
  664TIP3    H223484   1.316   3.548   4.935 -0.3653 -0.0750 -0.0223
  665TIP3   OH223485   5.530   4.660   0.663 -0.6293 -1.0164  0.5408
  665TIP3    H123486   5.450   4.613   0.637  0.1421 -1.4366 -1.1727
  665TIP3    H223487   5.547   4.630   0.752 -2.2783 -1.0485  0.8788
  666TIP3   OH223488   5.404   1.793   4.234 -0.6077 -0.2084  0.2100
  666TIP3    H123489   5.441   1.840   4.308  1.0430 -0.1140 -0.6429
  666TIP3    H223490   5.438   1.704   4.241 -1.2034 -0.4548  0.0808
  667TIP3   OH223491   5.753   4.543   2.608  0.0669  0.9463 -0.1956
  667TIP3    H123492   5.760   4.473   2.544 -0.1904 -0.3480  1.1372
  667TIP3    H223493   5.838   4.544   2.652 -0.6582 -0.1552  1.3524
  668TIP3   OH223494   3.919   1.293  15.799 -0.0558 -0.0837  0.4840
  668TIP3    H123495   3.888   1.304  15.889 -0.8490 -1.7655  0.4505
  668TIP3    H223496   3.845   1.253  15.753  0.2863  0.8865 -0.9718
  669TIP3   OH223497   1.592   5.638   4.838  0.4317  0.0699  0.5930
  669TIP3    H123498   1.574   5.558   4.789  0.7032 -0.2002  0.9330
  669TIP3    H223499   1.511   5.689   4.830  0.3937 -0.0703  0.0593
  670TIP3   OH223500   3.571   1.820  15.433 -0.0109 -0.1988 -0.1887
  670TIP3    H123501   3.515   1.829  15.356  0.2553 -3.2514 -0.8575
  670TIP3    H223502   3.523   1.760  15.491  0.1270  1.4478  1.7646
  671TIP3   OH223503   2.065   4.338   5.272  0.4773  0.1497  0.1138
  671TIP3    H123504   2.059   4.416   5.217 -0.1918 -0.2453 -0.3931
  671TIP3    H223505   2.002   4.277   5.234 -0.8572  0.2750  2.0004
  672TIP3   OH223506   0.632   0.705  10.852 -0.6084  0.1033 -0.2642
  672TIP3    H123507   0.654   0.781  10.798 -0.6070 -0.0424 -0.4689
  672TIP3    H223508   0.714   0.656  10.859 -0.2615  0.8120  0.9923
  673TIP3   OH223509   4.705   5.104   0.308 -0.3131 -0.5916  0.3482
  673TIP3    H123510   4.749   5.036   0.359 -0.5089 -1.9589 -1.2020
  673TIP3    H223511   4.635   5.058   0.262  0.1477  0.4396 -1.5076
  674TIP3   OH223512   5.619   1.571   3.049 -0.2642  0.2382  0.2696
  674TIP3    H123513   5.696   1.583   3.105  0.0590  0.8552 -0.2881
  674TIP3    H223514   5.554   1.529   3.105  0.5076 -0.3596  0.7271
  675TIP3   OH223515   2.915   5.107   5.535 -0.5837  0.0476 -0.0369
  675TIP3    H123516   2.883   5.090   5.623 -0.8227  0.4286 -0.0469
  675TIP3    H223517   2.886   5.031   5.483 -1.1658  0.2187  0.0313
  676TIP3   OH223518   4.443   6.645  15.821  0.2925  0.1152 -0.4667
  676TIP3    H123519   4.442   6.723  15.877 -0.4898  0.2615 -0.6798
  676TIP3    H223520   4.534   6.640  15.791  0.5328  0.4935  0.1731
  677TIP3   OH223521   4.344   1.839   3.482  0.1851  0.1653 -0.1497
  677TIP3    H123522   4.358   1.755   3.525 -1.6856 -0.2206 -0.2149
  677TIP3    H223523   4.273   1.822   3.419  1.4740  1.1913 -1.9876
  678TIP3   OH223524   2.701   4.259   1.243  0.1260  1.2365 -0.5926
  678TIP3    H123525   2.673   4.173   1.210  1.1839  0.4950  0.3418
  678TIP3    H223526   2.637   4.281   1.310 -0.4192  1.4078 -1.1647
  679TIP3   OH223527   2.020   2.722  13.071 -0.3360  0.7694  0.2087
  679TIP3    H123528   2.092   2.751  13.014  0.5518  0.7843  1.2923
  679TIP3    H223529   2.065   2.682  13.145 -1.4878 -0.0041  0.4951
  680TIP3   OH223530   4.400   4.511  11.824 -0.2870  0.2789  0.2692
  680TIP3    H123531   4.476   4.539  11.774 -0.6423  1.0843  0.1729
  680TIP3    H223532   4.437   4.468  11.902  0.2638 -0.6279 -0.4622
  681TIP3   OH223533   3.472   6.721   1.375  0.0910  0.2380  0.2614
  681TIP3    H123534   3.379   6.738   1.386  0.1833  2.4643 -1.6156
  681TIP3    H223535   3.483   6.707   1.281  1.7699  1.1862  0.2685
  682TIP3   OH223536   4.179   1.882   4.284 -0.4088  0.5251 -0.0322
  682TIP3    H123537   4.153   1.972   4.262  0.2340  0.1003 -2.9394
  682TIP3    H223538   4.120   1.857   4.355 -1.2713  2.8887  0.1899
  683TIP3   OH223539   3.258   4.102  14.395  0.2932  0.1378  0.3848
  683TIP3    H123540   3.192   4.091  14.327 -0.0837  1.4811  0.5020
  683TIP3    H223541   3.231   4.043  14.465  1.1820 -1.9688 -0.9151
  684TIP3   OH223542   1.217   2.581  13.356  0.0288 -0.1679 -0.3253
  684TIP3    H123543   1.299   2.603  13.399 -0.4640  0.2904  0.4026
  684TIP3    H223544   1.221   2.626  13.272  0.2407  0.3922 -0.0173
  685TIP3   OH223545   1.001   0.241   2.367  0.5211 -0.3724 -0.3371
  685TIP3    H123546   0.975   0.150   2.359  1.4569 -0.6962  0.2433
  685TIP3    H223547   1.063   0.254   2.295  1.8856 -0.7453  0.7474
  686TIP3   OH223548   6.602   6.445   1.770 -0.8064 -0.1745 -0.9524
  686TIP3    H123549   6.636   6.362   1.804 -0.5386  0.3850  0.1990
  686TIP3    H223550   6.511   6.446   1.800 -0.7597  0.0199 -0.8172
  687TIP3   OH223551   6.807   4.035   2.821  0.6825 -0.1940  0.1976
  687TIP3    H123552   6.744   3.965   2.805  0.3348  0.7520 -3.3331
  687TIP3    H223553   6.893   3.993   2.813  0.4713 -0.4041 -1.1290
  688TIP3   OH223554   6.627   6.274   0.054  0.1586  0.1880  0.2490
  688TIP3    H123555   6.624   6.184   0.022  0.9960  0.1504  0.2468
  688TIP3    H223556   6.589   6.269   0.142 -2.7662  0.4063 -0.8995
  689TIP3   OH223557   2.219   1.557  15.919  0.0359 -0.5413  0.3653
  689TIP3    H123558   2.155   1.624  15.941 -1.1377 -0.7320 -2.1473
  689TIP3    H223559   2.299   1.583  15.965 -0.6554  2.0407  0.2179
  690TIP3   OH223560   0.390   0.724   3.670 -0.3082  0.0867 -0.4908
  690TIP3    H123561   0.395   0.793   3.736  0.6932  0.4076 -0.8766
  690TIP3    H223562   0.299   0.725   3.641 -0.7385 -0.0026  0.8119
  691TIP3   OH223563   3.987   5.086  15.421 -0.2329  0.2632  0.3443
  691TIP3    H123564   4.032   5.041  15.492  0.9077  0.7477 -0.0443
  691TIP3    H223565   3.971   5.019  15.355 -0.6553 -0.0414  0.7537
  692TIP3   OH223566   3.885   0.602  13.822  0.3629  0.4591 -0.1808
  692TIP3    H123567   3.840   0.517  13.828  0.2582  0.4217 -1.2346
  692TIP3    H223568   3.961   0.584  13.766  1.7511  0.5148  1.5745
  693TIP3   OH223569   4.797   0.915  14.702  0.7907  0.0646 -0.1719
  693TIP3    H123570   4.806   0.830  14.746 -0.2645 -0.1408 -0.3346
  693TIP3    H223571   4.703   0.927  14.690  0.8902  1.4721  0.2482
  694TIP3   OH223572   2.709   3.235   4.135 -0.2203  0.8137  0.3023
  694TIP3    H123573   2.737   3.198   4.219 -0.7551  1.0174  0.5731
  694TIP3    H223574   2.787   3.279   4.101 -0.0460  0.8617  0.7644
  695TIP3   OH223575   2.445   0.420   5.600 -0.3778 -0.0848  0.9382
  695TIP3    H123576   2.393   0.497   5.575  1.5246  1.2034  0.8012
  695TIP3    H223577   2.536   0.448   5.590  0.3707 -2.4773  0.5640
  696TIP3   OH223578   0.339   5.539   3.034  0.7409 -0.8676  0.4060
  696TIP3    H123579   0.415   5.579   2.991  0.7396 -0.2026  0.9919
  696TIP3    H223580   0.366   5.528   3.125 -0.0510 -0.0998  0.7495
  697TIP3   OH223581   3.876   3.573  12.885 -0.4243 -0.4176 -0.3203
  697TIP3    H123582   3.783   3.571  12.864 -0.3237  0.2468 -0.8878
  697TIP3    H223583   3.882   3.624  12.965 -0.5686 -0.6582 -0.1560
  698TIP3   OH223584   3.350   3.858   3.779  0.2375  0.1184 -0.0594
  698TIP3    H123585   3.260   3.881   3.805  0.2853  1.3026 -0.8758
  698TIP3    H223586   3.357   3.765   3.799 -1.3497 -0.1170 -0.4276
  699TIP3   OH223587   2.573   3.236  11.326 -0.2292 -0.0756  0.3553
  699TIP3    H123588   2.505   3.171  11.311  0.2000 -0.5439  0.3802
  699TIP3    H223589   2.593   3.229  11.419 -0.1486  0.0557  0.3489
  700TIP3   OH223590   5.297   3.437  11.117  0.3796  0.4343 -0.4191
  700TIP3    H123591   5.231   3.433  11.049  0.2523 -1.3650 -0.2589
  700TIP3    H223592   5.269   3.509  11.174  0.8883  2.4658 -2.5837
  701TIP3   OH223593   4.691   5.801   4.746 -0.3341  0.1084 -0.2293
  701TIP3    H123594   4.757   5.869   4.754  0.9252 -0.9045 -1.5088
  701TIP3    H223595   4.710   5.741   4.819  1.1237 -0.9212 -1.3950
  702TIP3   OH223596   5.783   1.992   6.301 -0.2169  0.7283 -0.2870
  702TIP3    H123597   5.709   2.047   6.327 -1.0281 -1.2150  1.8651
  702TIP3    H223598   5.745   1.926   6.244 -0.4606 -0.8508  1.5768
  703TIP3   OH223599   6.050   1.846  16.724  0.1294 -0.1538  0.2522
  703TIP3    H123600   6.126   1.879  16.676 -0.5187 -0.3862 -0.9479
  703TIP3    H223601   6.025   1.767  16.678 -1.2359  0.2639  0.2361
  704TIP3   OH223602   1.406   3.925   3.947 -1.1214 -0.2274 -0.0509
  704TIP3    H123603   1.355   3.846   3.928 -2.1750  0.4237  0.0143
  704TIP3    H223604   1.349   3.997   3.921 -1.8921  0.6919  3.5656
  705TIP3   OH223605   3.369   4.445   3.596  0.4013  0.2614  0.3050
  705TIP3    H123606   3.292   4.395   3.570  0.8201  0.8101 -2.3466
  705TIP3    H223607   3.442   4.385   3.584  0.5409  0.2076  1.3432
  706TIP3   OH223608   4.624   4.055  15.965  0.3554 -0.2375 -0.2344
  706TIP3    H123609   4.592   4.132  16.013  1.7961  1.1195 -1.3147
  706TIP3    H223610   4.641   3.990  16.032 -0.0506  0.7064  0.8193
  707TIP3   OH223611   6.340   2.204  11.589  0.2962  0.0529  0.2287
  707TIP3    H123612   6.324   2.281  11.643  2.6028 -0.7820  2.3277
  707TIP3    H223613   6.254   2.178  11.557 -1.0116  1.4528  2.3595
  708TIP3   OH223614   3.762   6.005   2.711 -0.5007 -0.8276  0.3619
  708TIP3    H123615   3.676   6.042   2.691 -0.2987 -1.0451 -1.0341
  708TIP3    H223616   3.744   5.912   2.727 -0.5650 -0.8121  0.3833
  709TIP3   OH223617   0.497   2.979  10.222 -0.5470 -0.4165  0.0649
  709TIP3    H123618   0.573   2.998  10.276 -0.4838 -3.2426  1.1620
  709TIP3    H223619   0.530   2.924  10.152 -1.2032  0.3916 -0.9061
  710TIP3   OH223620   0.812   6.383   1.974 -0.6851 -0.4298 -0.6202
  710TIP3    H123621   0.844   6.368   2.063  0.3861 -0.1806 -0.9482
  710TIP3    H223622   0.720   6.356   1.976 -0.1061 -2.4983  0.0017
  711TIP3   OH223623   6.122   4.431  11.592  0.1373 -1.2553  0.5373
  711TIP3    H123624   6.116   4.519  11.629 -0.7051 -0.6618 -0.9126
  711TIP3    H223625   6.215   4.408  11.598  0.6245  0.3538 -0.3854
  712TIP3   OH223626   1.665   3.713  11.094 -0.1681 -0.0811 -0.2987
  712TIP3    H123627   1.590   3.689  11.148  1.4382 -1.6844  1.3659
  712TIP3    H223628   1.662   3.808  11.088 -2.7190 -0.1368 -0.9512
  713TIP3   OH223629   5.757   0.074  11.390 -0.7891  0.4499 -0.0256
  713TIP3    H123630   5.847   0.089  11.419 -0.9400  1.2526  0.0630
  713TIP3    H223631   5.723   0.162  11.372 -1.2667  0.0959 -0.9279
  714TIP3   OH223632   2.142   4.854   2.418  0.0055 -0.1046  0.5672
  714TIP3    H123633   2.172   4.916   2.351 -0.7725 -0.5947 -0.2732
  714TIP3    H223634   2.163   4.768   2.381  0.3787 -0.3648  1.3715
  715TIP3   OH223635   1.887   6.762   1.599 -0.1634  0.3091  0.6728
  715TIP3    H123636   1.846   6.717   1.673 -0.0083 -0.4260  0.3158
  715TIP3    H223637   1.860   6.712   1.522 -0.2421  1.0095  0.2340
  716TIP3   OH223638   1.381   1.725  14.415  0.3263 -0.2220 -0.0051
  716TIP3    H123639   1.447   1.659  14.396 -1.1174 -1.3807 -1.3212
  716TIP3    H223640   1.421   1.808  14.389  1.2821 -0.8817 -0.6923
  717TIP3   OH223641   5.829   3.590  16.728 -0.6224 -0.5409 -0.0231
  717TIP3    H123642   5.898   3.565  16.789 -2.1112  1.3709  2.6465
  717TIP3    H223643   5.864   3.666  16.682 -0.6929  0.0419  0.8730
  718TIP3   OH223644   1.625   1.343   3.577  0.1565 -0.3360 -0.3627
  718TIP3    H123645   1.559   1.382   3.521  0.3293 -0.5367 -0.7071
  718TIP3    H223646   1.608   1.249   3.573 -0.9467 -0.2648  1.3157
  719TIP3   OH223647   5.897   6.383  15.082 -0.2259  0.1863  0.2430
  719TIP3    H123648   5.983   6.410  15.114  0.1604 -0.3308 -0.3417
  719TIP3    H223649   5.914   6.307  15.027 -1.1276 -0.3239  0.6309
  720TIP3   OH223650   1.635   2.564  14.693 -0.1990 -0.2567  0.3587
  720TIP3    H123651   1.697   2.511  14.742 -0.3783  0.5395  1.4876
  720TIP3    H223652   1.579   2.605  14.760  0.3435  1.8637 -0.3839
  721TIP3   OH223653   6.593   1.909  13.022 -0.1843 -0.4020  0.3066
  721TIP3    H123654   6.661   1.873  12.965  0.3022  0.2162  0.4837
  721TIP3    H223655   6.642   1.947  13.095 -0.6226  1.3540 -0.2787
  722TIP3   OH223656   3.555   2.310  10.734 -0.0948  0.4490 -0.0173
  722TIP3    H123657   3.465   2.324  10.762 -0.3394  0.2661 -0.6861
  722TIP3    H223658   3.550   2.237  10.672  0.2918  1.3319 -1.1416
  723TIP3   OH223659   3.338   5.233   0.693  0.3143  0.0352 -0.0075
  723TIP3    H123660   3.367   5.277   0.613  1.3226  0.8300  0.7596
  723TIP3    H223661   3.341   5.139   0.672 -1.8769  0.2804 -1.6673
  724TIP3   OH223662   5.169   2.290   4.025 -0.7273  0.0541  0.3927
  724TIP3    H123663   5.100   2.346   4.062 -0.5740  0.3773  0.1996
  724TIP3    H223664   5.215   2.348   3.965  0.9998  0.4615  2.0064
  725TIP3   OH223665   2.831   3.522  13.962  0.0083 -0.1848  0.1010
  725TIP3    H123666   2.742   3.531  13.928  0.0427 -0.4364 -0.0567
  725TIP3    H223667   2.870   3.609  13.949 -0.3838  0.0874  0.6752
  726TIP3   OH223668   2.438   4.509  14.066  0.1748  0.3201 -0.0070
  726TIP3    H123669   2.490   4.564  14.124 -0.0127  1.1254 -0.5945
  726TIP3    H223670   2.472   4.526  13.979 -0.3368  0.0173 -0.2738
  727TIP3   OH223671   6.047   0.026  13.706 -0.1518  0.2394 -0.7453
  727TIP3    H123672   6.059  -0.057  13.753  1.9222  0.5278 -0.6761
  727TIP3    H223673   6.028  -0.000  13.616 -0.3113 -0.3079 -0.5578
  728TIP3   OH223674   4.948   5.519  16.837 -0.9457  0.2027  0.3972
  728TIP3    H123675   5.008   5.573  16.888 -1.0490  1.3445 -0.6325
  728TIP3    H223676   4.956   5.432  16.874  0.7892  0.4925  0.7744
  729TIP3   OH223677   2.315   3.897  13.057  0.4485 -0.0462 -0.4626
  729TIP3    H123678   2.355   3.810  13.066  0.3664 -0.2686 -2.0243
  729TIP3    H223679   2.388   3.958  13.070  0.2573 -0.2396  2.0907
  730TIP3   OH223680   2.687   6.736   0.201 -0.0043  0.2496 -0.0139
  730TIP3    H123681   2.713   6.773   0.285 -0.5301 -2.9297  1.7153
  730TIP3    H223682   2.595   6.714   0.211 -0.2798  0.5034 -1.7251
  731TIP3   OH223683   0.880   3.388   2.570 -0.2017 -0.8209 -0.0040
  731TIP3    H123684   0.802   3.375   2.517  0.6597 -0.5179 -1.4089
  731TIP3    H223685   0.865   3.471   2.615  0.1131  0.2993 -1.8540
  732TIP3   OH223686   2.157   0.115  15.000  0.5416 -0.1592  0.1688
  732TIP3    H123687   2.090   0.136  14.935 -0.3954  0.2557  1.2353
  732TIP3    H223688   2.234   0.165  14.972  0.6742 -1.2035 -1.4744
  733TIP3   OH223689   2.513   2.100   2.567  0.0868  0.1927  0.2694
  733TIP3    H123690   2.441   2.037   2.574  1.7767 -1.6406  2.5174
  733TIP3    H223691   2.577   2.058   2.511 -0.1651  1.4944 -1.0836
  734TIP3   OH223692   3.501   6.641   1.116 -0.0525  0.6294 -0.3060
  734TIP3    H123693   3.563   6.661   1.046  2.0865 -1.0938  0.9629
  734TIP3    H223694   3.495   6.546   1.118 -3.4180  0.7053 -0.8212
  735TIP3   OH223695   4.536   1.315   4.703  0.4729 -0.2225  0.5158
  735TIP3    H123696   4.558   1.317   4.610  1.6076 -0.5319  0.7647
  735TIP3    H223697   4.442   1.332   4.705  0.5376  0.4009 -0.6438
  736TIP3   OH223698   0.890   6.017  15.726 -0.0660  0.1146 -0.1092
  736TIP3    H123699   0.865   6.006  15.818  0.5812 -0.2908  0.0327
  736TIP3    H223700   0.871   5.932  15.686  0.9220 -0.1562 -0.0271
  737TIP3   OH223701   6.460   0.499   1.226 -0.0903  0.3590  0.2585
  737TIP3    H123702   6.394   0.536   1.284 -0.2371  1.5678 -0.6365
  737TIP3    H223703   6.428   0.518   1.138 -0.4521 -2.4059 -0.3117
  738TIP3   OH223704   1.850   4.936  14.506  0.2078 -0.2132 -0.8160
  738TIP3    H123705   1.814   5.022  14.528 -1.2289 -1.3249  1.6002
  738TIP3    H223706   1.904   4.952  14.429  1.9716  3.3161  0.8848
  739TIP3   OH223707   1.027   2.785   1.564 -0.3970 -0.8333 -0.0939
  739TIP3    H123708   0.997   2.839   1.490  2.3000  1.4700  0.3001
  739TIP3    H223709   1.084   2.720   1.525  0.7949  0.2015 -0.1436
  740TIP3   OH223710   4.594   0.367   4.705  0.5334  0.1269  0.0195
  740TIP3    H123711   4.577   0.400   4.793 -0.6460 -0.6280  0.1015
  740TIP3    H223712   4.649   0.290   4.719  2.0522  1.1630 -0.0692
  741TIP3   OH223713   2.805   0.415   5.296  0.1744  0.1470 -0.1668
  741TIP3    H123714   2.730   0.469   5.318 -0.5429 -0.6762 -0.5458
  741TIP3    H223715   2.838   0.383   5.380 -1.2939 -1.3185 -0.1072
  742TIP3   OH223716   2.045   6.021   1.771  0.3155 -0.2841  0.0798
  742TIP3    H123717   2.002   6.057   1.849 -1.0900  0.0217 -0.8065
  742TIP3    H223718   2.116   6.082   1.752 -2.2467  2.4479 -1.6283
  743TIP3   OH223719   2.754   0.838   2.346  0.1379  0.2668 -0.5689
  743TIP3    H123720   2.820   0.907   2.354 -1.0286  1.4775 -1.0481
  743TIP3    H223721   2.728   0.841   2.254  0.0320 -0.7760 -0.5768
  744TIP3   OH223722   1.947   2.165  14.252 -0.1897  0.3944 -0.6584
  744TIP3    H123723   2.035   2.202  14.252  0.1997 -0.3799  1.3264
  744TIP3    H223724   1.947   2.102  14.180  0.1748  1.8519 -1.9930
  745TIP3   OH223725   5.209   3.981  11.438 -0.7273  0.1223  0.2230
  745TIP3    H123726   5.192   3.893  11.403 -0.9147  0.5729 -0.8490
  745TIP3    H223727   5.275   4.018  11.380  0.4876  0.1592  1.5644
  746TIP3   OH223728   5.989   2.851   1.334  0.0476 -0.4007 -0.0476
  746TIP3    H123729   5.898   2.824   1.322 -0.1207  0.3314 -0.4735
  746TIP3    H223730   5.987   2.909   1.410  0.2229 -0.7099  0.1908
  747TIP3   OH223731   2.065   2.729   1.688 -0.5896  0.0938 -0.5839
  747TIP3    H123732   1.995   2.667   1.666 -1.6420  0.9165  0.3606
  747TIP3    H223733   2.062   2.737   1.783  0.4394  0.5651 -0.5749
  748TIP3   OH223734   0.972   4.845  11.622  0.0271  0.4776 -0.1304
  748TIP3    H123735   0.954   4.876  11.534  0.1598  0.1269 -0.2813
  748TIP3    H223736   0.916   4.768  11.633  2.3411 -1.4627 -1.0913
  749TIP3   OH223737   5.861   5.810   3.534 -0.0634  0.5280 -0.0229
  749TIP3    H123738   5.770   5.785   3.549  0.3645 -2.2680 -1.4905
  749TIP3    H223739   5.865   5.833   3.441  0.8173  0.0436 -0.1190
  750TIP3   OH223740   3.166   4.930   6.084  0.5661  0.1086  0.4319
  750TIP3    H123741   3.238   4.959   6.140  0.9917 -1.1606  0.5844
  750TIP3    H223742   3.207   4.903   6.003  0.3529 -1.0921  0.6947
  751TIP3   OH223743   3.514   5.272  15.144  0.1758  0.2076 -0.0679
  751TIP3    H123744   3.548   5.343  15.199 -0.2871 -0.1408  0.6967
  751TIP3    H223745   3.591   5.218  15.125  0.0452 -0.8697  2.1004
  752TIP3   OH223746   5.218   2.119  14.565 -0.0182  0.1052  0.3054
  752TIP3    H123747   5.169   2.062  14.625  1.3088 -0.6054  0.7488
  752TIP3    H223748   5.233   2.065  14.487  0.5080  0.1271  0.3878
  753TIP3   OH223749   0.513   5.474  16.555 -0.5366 -0.2472  0.3278
  753TIP3    H123750   0.576   5.408  16.528 -1.8721 -1.7772  0.8109
  753TIP3    H223751   0.549   5.510  16.636 -0.0774 -0.7774  0.3606
  754TIP3   OH223752   2.032   2.345   3.570 -0.3139  0.5098 -0.4410
  754TIP3    H123753   1.944   2.334   3.536  0.4012  0.8243 -2.5581
  754TIP3    H223754   2.079   2.267   3.540  0.4734  1.0225 -0.5750
  755TIP3   OH223755   2.790   5.577   1.597  0.2829  0.1506  0.1597
  755TIP3    H123756   2.738   5.649   1.632  0.2204  0.4406 -0.5179
  755TIP3    H223757   2.881   5.601   1.615  0.3088  0.8007 -0.8001
  756TIP3   OH223758   2.859   2.851   6.023  0.1832 -0.3728 -0.1085
  756TIP3    H123759   2.774   2.881   6.054  0.7124  0.9996  0.0625
  756TIP3    H223760   2.891   2.793   6.092 -0.0469  0.1307  0.4258
  757TIP3   OH223761   1.225   0.036   3.197  0.3017 -0.1385  0.0157
  757TIP3    H123762   1.141  -0.007   3.212  0.3370 -0.0265  0.5699
  757TIP3    H223763   1.289  -0.023   3.236  0.4146  0.0812  0.1652
  758TIP3   OH223764   3.928   6.778   3.404 -0.5435  1.0579 -0.1004
  758TIP3    H123765   3.851   6.821   3.369 -0.3458  1.9152  0.4832
  758TIP3    H223766   3.989   6.849   3.423  0.8440  0.3315 -1.5851
  759TIP3   OH223767   1.711   1.008   2.689 -0.0076 -0.6114 -0.2647
  759TIP3    H123768   1.697   0.918   2.719  0.7655 -0.4056  0.7721
  759TIP3    H223769   1.749   1.053   2.764  0.5170  0.3379 -1.0723
  760TIP3   OH223770   6.297   5.053  14.350  0.2822  0.0937  0.3303
  760TIP3    H123771   6.340   4.984  14.401  0.3100 -0.6816 -0.6902
  760TIP3    H223772   6.322   5.134  14.393  1.8229 -0.4107  0.4686
  761TIP3   OH223773   3.413   5.522   4.754 -0.3911  1.0861 -0.1757
  761TIP3    H123774   3.344   5.503   4.819  0.0307  2.5998  0.7632
  761TIP3    H223775   3.470   5.445   4.757 -1.8280 -0.0416 -0.7185
  762TIP3   OH223776   2.315   4.547   3.302  0.5052  0.6818 -0.0703
  762TIP3    H123777   2.360   4.515   3.224 -1.7728  0.4671 -1.3619
  762TIP3    H223778   2.286   4.635   3.279 -0.8097  0.3499  0.2526
  763TIP3   OH223779   6.238   6.096  16.256  0.6146  0.0903  0.3764
  763TIP3    H123780   6.151   6.056  16.264  1.1334 -1.1684  0.0052
  763TIP3    H223781   6.227   6.163  16.188  0.2021 -0.8768 -0.5462
  764TIP3   OH223782   6.009   0.102  11.538 -0.3757  0.2043  0.7558
  764TIP3    H123783   5.954   0.165  11.586 -1.2279 -1.5576  2.2398
  764TIP3    H223784   6.001   0.021  11.588  1.3186 -0.8913 -0.6368
  765TIP3   OH223785   3.162   4.423   4.268 -0.3068 -0.1368 -0.3150
  765TIP3    H123786   3.165   4.453   4.177  0.1041 -0.8782 -0.5565
  765TIP3    H223787   3.244   4.455   4.307  0.2126 -1.0430 -0.6190
  766TIP3   OH223788   0.647   0.041  14.572  0.1784  0.0475 -0.3327
  766TIP3    H123789   0.695   0.048  14.655 -2.0682 -0.3576  1.0836
  766TIP3    H223790   0.716   0.039  14.505  2.1675 -1.3270  1.5984
  767TIP3   OH223791   5.810   1.725  15.176  0.1597  0.6826  0.4056
  767TIP3    H123792   5.826   1.786  15.248  0.1548  1.0056  0.1367
  767TIP3    H223793   5.867   1.756  15.105 -1.0082  1.3386 -0.2718
  768TIP3   OH223794   1.708   4.464   3.166 -0.3305  0.4073  0.1906
  768TIP3    H123795   1.763   4.456   3.243 -0.4004  1.6116  0.3915
  768TIP3    H223796   1.732   4.549   3.129  1.5879 -1.1869 -2.6137
  769TIP3   OH223797   3.059   6.001   6.009  0.5189  0.1201  0.2256
  769TIP3    H123798   3.056   5.959   6.096 -0.9891 -1.0995 -0.3626
  769TIP3    H223799   3.119   6.074   6.020  1.2707 -0.6976  1.9968
  770TIP3   OH223800   4.746   1.561  15.657 -0.0506  0.0240  0.6131
  770TIP3    H123801   4.657   1.524  15.655  0.3415 -0.9387  0.2410
  770TIP3    H223802   4.783   1.528  15.739 -0.4231  1.4258  1.3889
  771TIP3   OH223803   5.024   6.666  17.029 -0.2641 -0.2407 -0.5275
  771TIP3    H123804   5.119   6.680  17.025 -0.2541  0.8437  1.7257
  771TIP3    H223805   5.012   6.601  17.098 -1.1743 -0.2857 -0.7151
  772TIP3   OH223806   3.496   0.142  13.264  0.0787  0.5356 -0.1200
  772TIP3    H123807   3.454   0.056  13.254  1.0804 -0.0225  0.4083
  772TIP3    H223808   3.525   0.165  13.176  1.5020 -0.5646  0.0243
  773TIP3   OH223809   1.920   1.591   3.628 -0.1097  0.1129  0.3972
  773TIP3    H123810   1.997   1.641   3.602 -1.7644  1.7017 -1.9290
  773TIP3    H223811   1.933   1.505   3.589  0.1740  0.5957 -0.6051
  774TIP3   OH223812   6.557   1.796   2.922  0.0141 -0.9467 -0.5005
  774TIP3    H123813   6.476   1.838   2.893 -0.3408 -0.9986  0.3996
  774TIP3    H223814   6.626   1.841   2.872 -0.3778  0.5633  0.2521
  775TIP3   OH223815   0.413   3.141  16.529  0.0652  0.3953 -0.0075
  775TIP3    H123816   0.321   3.169  16.524 -0.3097 -0.4682  1.6167
  775TIP3    H223817   0.409   3.048  16.547  1.2500  0.5466  1.1662
  776TIP3   OH223818   4.193   0.971  14.066  0.0449  0.0895 -0.2402
  776TIP3    H123819   4.190   1.061  14.034 -2.1722  1.1883  2.6111
  776TIP3    H223820   4.239   0.976  14.150  1.9177 -1.9006 -1.0402
  777TIP3   OH223821   1.131   1.559  15.104  0.8243  0.0539  0.4476
  777TIP3    H123822   1.149   1.647  15.070  0.3677 -0.7812 -2.2375
  777TIP3    H223823   1.202   1.506  15.068  1.8198 -0.5318  3.0833
  778TIP3   OH223824   0.745   2.860  12.363  0.1807  0.2123  0.0806
  778TIP3    H123825   0.684   2.787  12.348 -0.0998  0.5222 -0.3076
  778TIP3    H223826   0.696   2.938  12.337  0.4255  0.5611  0.6483
  779TIP3   OH223827   6.027   5.407   1.464  0.1515  0.3000 -0.0340
  779TIP3    H123828   6.028   5.423   1.370 -0.8034 -1.0011 -0.2867
  779TIP3    H223829   5.947   5.449   1.495 -0.3325 -0.5811 -0.0670
  780TIP3   OH223830   2.758   5.994   1.618 -0.0833 -0.1921 -0.0337
  780TIP3    H123831   2.777   5.966   1.528 -2.1510 -1.3069 -0.1934
  780TIP3    H223832   2.828   6.056   1.639  1.5507 -1.3535 -1.7003
  781TIP3   OH223833   5.595   6.767  15.075  0.0407 -0.1381  0.3058
  781TIP3    H123834   5.645   6.706  15.020  1.3902  1.1828  0.0091
  781TIP3    H223835   5.624   6.747  15.164  0.3086 -0.0985  0.2303
  782TIP3   OH223836   4.808   2.653  16.385 -0.3110  0.3231  0.1319
  782TIP3    H123837   4.812   2.668  16.291  0.6493 -0.4655  0.0311
  782TIP3    H223838   4.718   2.626  16.401 -0.1924 -0.6875 -0.7612
  783TIP3   OH223839   6.240   1.639  11.179  0.0638 -0.3791  0.4903
  783TIP3    H123840   6.287   1.692  11.114 -0.2224 -1.4586 -0.6348
  783TIP3    H223841   6.245   1.550  11.145 -0.6765 -0.8762  1.6292
  784TIP3   OH223842   0.448   0.595  13.004 -0.2804 -0.1575  0.0338
  784TIP3    H123843   0.501   0.537  12.950 -0.4002  1.4438 -1.8782
  784TIP3    H223844   0.361   0.554  13.004  0.0941 -0.9843  0.3567
  785TIP3   OH223845   1.357   2.533  16.197 -0.5924 -0.0223 -0.8997
  785TIP3    H123846   1.409   2.599  16.152 -0.7861 -0.9097 -2.5179
  785TIP3    H223847   1.274   2.531  16.148 -1.4596  0.1055  0.5131
  786TIP3   OH223848   6.700   0.305   0.370 -0.1964 -0.2459  0.3250
  786TIP3    H123849   6.792   0.311   0.395 -1.1011  2.7425  3.6089
  786TIP3    H223850   6.660   0.251   0.438 -1.0942 -0.5238 -0.4061
  787TIP3   OH223851   2.575   5.598   1.823 -0.5352 -0.0735  0.1640
  787TIP3    H123852   2.654   5.574   1.871  0.6805 -2.5716 -2.7074
  787TIP3    H223853   2.515   5.525   1.838 -1.4142  0.6824  0.4361
  788TIP3   OH223854   5.641   2.268  16.452  0.0411 -0.2836 -0.3100
  788TIP3    H123855   5.712   2.208  16.472  1.6284  1.6569  0.1184
  788TIP3    H223856   5.630   2.262  16.357  1.0212 -0.3467 -0.4208
  789TIP3   OH223857   4.019   2.535   4.211  0.1928  0.3991 -0.4736
  789TIP3    H123858   4.058   2.594   4.276  0.7330 -0.8030  0.3284
  789TIP3    H223859   3.931   2.570   4.196  0.1795  0.8908  0.6668
  790TIP3   OH223860   6.241   2.049  16.618  0.2428  0.1513 -0.2580
  790TIP3    H123861   6.250   2.034  16.524 -0.9481 -2.0673 -0.0709
  790TIP3    H223862   6.330   2.069  16.648  0.7940 -0.1160 -1.6792
  791TIP3   OH223863   3.791   1.883  12.045 -0.0204 -0.2864  0.1218
  791TIP3    H123864   3.767   1.972  12.019  3.3337  0.0969 -2.2255
  791TIP3    H223865   3.776   1.830  11.966 -2.0724 -1.9211  1.5134
  792TIP3   OH223866   2.789   1.481  15.883 -0.6065 -0.6521 -0.3077
  792TIP3    H123867   2.809   1.568  15.849 -0.0422 -0.8640 -0.5313
  792TIP3    H223868   2.764   1.496  15.974 -1.8500 -0.1125 -0.7192
  793TIP3   OH223869   6.257   0.902  12.652 -0.5873  0.4185  0.0965
  793TIP3    H123870   6.261   0.902  12.557  0.1696 -1.4450  0.0861
  793TIP3    H223871   6.308   0.825  12.678  0.9802  1.9892  2.0820
  794TIP3   OH223872   2.422   4.070  13.905  0.8711  0.1400 -0.2484
  794TIP3    H123873   2.467   4.109  13.980  0.1170 -0.5730  0.6061
  794TIP3    H223874   2.459   4.114  13.829  2.1946  0.3537  0.4931
  795TIP3   OH223875   3.010   6.466  13.025  0.2056 -0.8791  0.7053
  795TIP3    H123876   3.078   6.534  13.023 -0.7396  0.2204  2.7517
  795TIP3    H223877   3.052   6.392  13.069  1.0714 -1.4702 -1.0461
  796TIP3   OH223878   0.540   3.809   1.597  0.1636  0.3253  0.1713
  796TIP3    H123879   0.553   3.773   1.685  0.5242 -1.3434 -0.5172
  796TIP3    H223880   0.445   3.809   1.585  0.0204  1.8897  1.0470
  797TIP3   OH223881   6.566   4.660   2.708  0.5154 -0.0447 -0.0367
  797TIP3    H123882   6.621   4.644   2.784 -0.2472 -1.8205  0.1955
  797TIP3    H223883   6.514   4.736   2.731 -0.9026 -1.5148  1.9808
  798TIP3   OH223884   1.949   2.992  11.588 -0.5231  0.3799 -0.3003
  798TIP3    H123885   1.998   3.043  11.524 -1.8275  2.1618  0.0372
  798TIP3    H223886   1.981   2.902  11.577  0.4203  0.9060 -2.3192
  799TIP3   OH223887   3.285   3.755   5.209 -0.1314  0.0120  0.0469
  799TIP3    H123888   3.212   3.809   5.179 -0.5453  1.0958  2.6528
  799TIP3    H223889   3.248   3.667   5.218 -0.1679 -0.1940 -1.7418
  800TIP3   OH223890   3.384   3.542   2.763 -0.0702 -0.2155 -0.8622
  800TIP3    H123891   3.358   3.451   2.756  1.1345 -0.5376 -1.4835
  800TIP3    H223892   3.305   3.588   2.789 -0.0413 -1.8195  2.5640
  801TIP3   OH223893   4.948   5.828  12.618  0.6481  0.1104 -0.1332
  801TIP3    H123894   5.025   5.883  12.603  0.2729 -0.2034 -4.3918
  801TIP3    H223895   4.983   5.739  12.625  0.7586  0.1512 -0.1641
  802TIP3   OH223896   3.913   2.475  13.664  0.1780  0.2270 -0.1279
  802TIP3    H123897   3.922   2.382  13.643 -0.8185  0.0309  0.2774
  802TIP3    H223898   3.958   2.486  13.747 -0.5487 -0.0980  0.3131
  803TIP3   OH223899   4.987   0.730  15.264 -0.5697 -0.5270 -0.1270
  803TIP3    H123900   4.990   0.652  15.319 -1.1569 -0.8083 -0.4825
  803TIP3    H223901   4.994   0.803  15.325 -0.7417 -0.8442  0.2756
  804TIP3   OH223902   1.757   0.791   0.014 -0.3330  0.2866  0.3248
  804TIP3    H123903   1.757   0.700  -0.017 -0.6324  0.7714 -1.1651
  804TIP3    H223904   1.775   0.843  -0.064  2.7910  1.4069  1.6292
  805TIP3   OH223905   4.444   0.482  16.739  0.1631  0.0807  0.1468
  805TIP3    H123906   4.408   0.458  16.825 -0.7169  0.4941 -0.0933
  805TIP3    H223907   4.463   0.575  16.747  2.9860 -0.4563  0.8720
  806TIP3   OH223908   2.175   4.167   0.437 -0.0725  0.2046 -0.6367
  806TIP3    H123909   2.149   4.236   0.498 -3.5711 -0.3793 -1.2562
  806TIP3    H223910   2.184   4.089   0.492 -1.0367  0.1497 -0.5351
  807TIP3   OH223911   5.126   0.380  16.172 -0.3853  0.7822  0.0594
  807TIP3    H123912   5.071   0.441  16.123 -0.4754 -0.2167 -1.1521
  807TIP3    H223913   5.193   0.353  16.109 -2.4359 -3.1238 -0.7752
  808TIP3   OH223914   2.312   2.146  13.442  0.5688  0.5441  0.4504
  808TIP3    H123915   2.238   2.117  13.390 -0.4214  0.9023  1.6191
  808TIP3    H223916   2.319   2.082  13.512  2.6646 -0.6439 -0.7201
  809TIP3   OH223917   4.543   1.487  11.466  0.6402 -0.3794  0.4917
  809TIP3    H123918   4.633   1.511  11.485  0.3238 -0.2641  1.9913
  809TIP3    H223919   4.490   1.553  11.512 -0.1992 -1.2145  0.7689
  810TIP3   OH223920   4.256   4.085  11.686  0.2076 -0.1422 -0.0155
  810TIP3    H123921   4.164   4.112  11.687  0.1063 -0.4846  0.5567
  810TIP3    H223922   4.255   3.997  11.723  0.8134  0.0255  0.4174
  811TIP3   OH223923   0.929   1.642  14.208 -0.4023 -0.3550 -0.3093
  811TIP3    H123924   0.961   1.668  14.122  0.0842  0.6919  0.1801
  811TIP3    H223925   0.847   1.596  14.190 -0.7051  0.5329 -1.2738
  812TIP3   OH223926   4.988   2.983  10.763  0.1611  0.5149  0.3641
  812TIP3    H123927   4.990   3.075  10.738 -0.0970  0.7142  1.0616
  812TIP3    H223928   4.902   2.970  10.803 -0.2354 -0.2974 -0.6853
  813TIP3   OH223929   5.480   3.826  15.453  0.0116 -0.5648  0.1355
  813TIP3    H123930   5.530   3.790  15.526  0.8259 -0.2036 -0.2289
  813TIP3    H223931   5.425   3.893  15.492  0.5599 -0.2619  0.4015
  814TIP3   OH223932   6.694   0.023  10.331  0.2137 -0.7008 -0.6163
  814TIP3    H123933   6.761   0.078  10.372  0.9859 -0.9336 -1.5248
  814TIP3    H223934   6.611   0.057  10.365  0.5991  1.5688 -1.7052
  815TIP3   OH223935   5.029   2.318   5.379 -0.4358 -0.4445  0.7917
  815TIP3    H123936   4.983   2.285   5.456  1.5709 -1.3477  1.6635
  815TIP3    H223937   5.118   2.285   5.388 -0.0570 -0.3314 -1.7879
  816TIP3   OH223938   0.137   0.488   1.987 -0.1339 -0.0695  0.0523
  816TIP3    H123939   0.182   0.426   1.928  2.3850  0.7481  0.9597
  816TIP3    H223940   0.061   0.440   2.018 -0.7918 -1.0298 -2.7441
  817TIP3   OH223941   6.572   2.867   4.817 -0.3055  0.1272  0.4762
  817TIP3    H123942   6.614   2.916   4.888 -0.4447 -1.0160  1.3776
  817TIP3    H223943   6.640   2.807   4.787 -0.3431  0.4079 -0.1727
  818TIP3   OH223944   5.766   4.105   0.344  0.4511  0.1022  0.2595
  818TIP3    H123945   5.854   4.135   0.325  0.3940  0.5907  0.7356
  818TIP3    H223946   5.764   4.093   0.439  0.3399 -1.0033  0.1341
  819TIP3   OH223947   2.760   0.314  12.878 -0.2595  0.0357 -0.4712
  819TIP3    H123948   2.686   0.254  12.870  0.0490 -0.2593 -1.2677
  819TIP3    H223949   2.795   0.299  12.966  1.2391 -2.6673 -1.4019
  820TIP3   OH223950   5.554   6.601   1.805 -0.0389 -0.2492  0.3267
  820TIP3    H123951   5.572   6.666   1.736  0.5327 -0.6810  0.0619
  820TIP3    H223952   5.565   6.517   1.761 -0.1195 -0.5280  0.8387
  821TIP3   OH223953   0.443   5.084   0.550  0.3942  0.0759 -0.6633
  821TIP3    H123954   0.398   5.165   0.526 -0.5946 -0.4667 -0.6810
  821TIP3    H223955   0.394   5.050   0.625  0.9952 -0.3442 -0.4472
  822TIP3   OH223956   0.678   4.096  14.801 -0.1134 -0.4848 -0.0424
  822TIP3    H123957   0.633   4.169  14.759  1.1886 -1.8754 -4.4288
  822TIP3    H223958   0.614   4.024  14.799  0.2367 -0.7900 -0.4743
  823TIP3   OH223959   5.120   1.359   3.704 -0.0332  0.9248 -0.4858
  823TIP3    H123960   5.193   1.334   3.761 -0.5948 -0.4039 -0.2997
  823TIP3    H223961   5.070   1.422   3.755 -0.3495 -0.0075  0.3920
  824TIP3   OH223962   6.693   3.668  16.804 -0.4051 -0.0339  0.0379
  824TIP3    H123963   6.697   3.573  16.796 -0.9092 -0.0781  0.2469
  824TIP3    H223964   6.731   3.686  16.890  2.8411  0.2498 -1.3288
  825TIP3   OH223965   5.790   0.429   5.815 -0.0225  0.3985  0.2527
  825TIP3    H123966   5.820   0.464   5.899  0.0740 -2.4310  1.5317
  825TIP3    H223967   5.784   0.505   5.757  0.1334  2.4289  2.7399
  826TIP3   OH223968   4.902   1.958  15.525  0.1135  0.0553 -0.1037
  826TIP3    H123969   4.932   1.874  15.560  1.1424  0.3912 -0.1507
  826TIP3    H223970   4.831   1.935  15.465  0.8652 -0.8529 -0.6800
  827TIP3   OH223971   0.051   4.305  15.865 -0.0832 -0.0548 -0.4755
  827TIP3    H123972   0.118   4.244  15.834  0.0249 -0.0441 -0.2653
  827TIP3    H223973   0.050   4.375  15.800 -1.2996 -1.0391 -1.5722
  828TIP3   OH223974   3.649   5.931  11.341  0.0525 -0.1725 -0.2697
  828TIP3    H123975   3.634   5.994  11.411  2.0788  0.6307 -0.4901
  828TIP3    H223976   3.583   5.863  11.355 -1.4816  1.4181  0.6364
  829TIP3   OH223977   0.229   0.003  13.845 -0.0478 -0.2183  0.4052
  829TIP3    H123978   0.189   0.049  13.918  0.4129  0.4372  0.2563
  829TIP3    H223979   0.158  -0.010  13.783 -0.1465  0.4976  0.3577
  830TIP3   OH223980   2.976   3.306   6.119 -0.0367  0.0037 -0.7684
  830TIP3    H123981   2.991   3.211   6.121  0.0019 -0.0033 -1.4143
  830TIP3    H223982   2.881   3.315   6.123 -0.0101 -0.0254  0.3954
  831TIP3   OH223983   4.252   0.907  17.029  0.1208 -0.4478 -0.3819
  831TIP3    H123984   4.213   0.831  16.986 -3.1969  1.4124 -0.9860
  831TIP3    H223985   4.262   0.971  16.959 -1.8524  1.3370  0.8735
  832TIP3   OH223986   3.397   4.571   5.807  0.3242  0.4353  0.0584
  832TIP3    H123987   3.338   4.529   5.744  2.3904 -0.8343 -1.1608
  832TIP3    H223988   3.482   4.572   5.763  1.2807  2.0397  1.7979
  833TIP3   OH223989   2.452   5.876  11.688  0.4701  0.6747  0.4937
  833TIP3    H123990   2.366   5.877  11.647  0.8910  1.0171 -0.3977
  833TIP3    H223991   2.480   5.784  11.684 -0.0681  0.4630  1.2767
  834TIP3   OH223992   5.793   4.143  13.341 -0.3864  0.0607  0.2346
  834TIP3    H123993   5.768   4.220  13.289 -1.0419  0.3548  0.9597
  834TIP3    H223994   5.796   4.176  13.431  1.1447 -0.3360  0.3619
  835TIP3   OH223995   2.688   3.063   5.827 -0.0573 -0.1504 -0.3714
  835TIP3    H123996   2.724   3.150   5.806  0.8416 -0.7060 -1.2716
  835TIP3    H223997   2.594   3.076   5.831  0.1482  1.1761  1.1064
  836TIP3   OH223998   6.198   3.022  11.233  0.3492 -0.0661 -0.3253
  836TIP3    H123999   6.156   2.945  11.194 -1.3387  0.6832 -0.0476
  836TIP3    H224000   6.254   2.985  11.302 -1.1231 -1.0186  0.4119
  837TIP3   OH224001   1.545   1.213  16.874 -0.5402  0.1314 -0.1135
  837TIP3    H124002   1.548   1.271  16.797  0.1785  1.1906  0.6837
  837TIP3    H224003   1.598   1.258  16.940 -0.6802 -1.0347  0.8244
  838TIP3   OH224004   1.793   5.851   4.824 -0.8126  0.1471 -0.2266
  838TIP3    H124005   1.735   5.925   4.807 -1.5623 -0.6711 -1.3809
  838TIP3    H224006   1.733   5.779   4.848 -0.4097 -0.9790 -2.3790
  839TIP3   OH224007   0.524   5.466   4.553  0.5023 -0.4270 -0.1557
  839TIP3    H124008   0.542   5.414   4.631  0.2127  0.4100  0.4844
  839TIP3    H224009   0.429   5.458   4.541  0.6470 -1.2039 -0.9091
  840TIP3   OH224010   6.530   5.239  15.562  0.7021 -0.0014  0.0047
  840TIP3    H124011   6.452   5.215  15.613 -0.0995  0.1316 -1.1140
  840TIP3    H224012   6.573   5.306  15.615  0.8021 -1.0209  1.2774
  841TIP3   OH224013   0.973   1.436  15.962  0.0360 -0.4472 -0.0543
  841TIP3    H124014   1.053   1.444  15.910 -0.4569  1.0051 -0.6556
  841TIP3    H224015   0.920   1.371  15.916  0.1203 -0.0759 -0.6864
  842TIP3   OH224016   2.107   3.321   3.682  0.2560  0.1736 -0.3035
  842TIP3    H124017   2.195   3.306   3.649 -0.7045 -1.1801 -2.5293
  842TIP3    H224018   2.055   3.338   3.604 -1.3416  1.7490  1.0196
  843TIP3   OH224019   2.890   3.613   2.417  0.1413  0.1133  0.4291
  843TIP3    H124020   2.975   3.638   2.381  0.5278 -1.7967 -0.0852
  843TIP3    H224021   2.910   3.550   2.487 -0.7442  1.7337  2.2474
  844TIP3   OH224022   6.251   6.215   3.958  0.1837 -0.6658  0.1022
  844TIP3    H124023   6.346   6.229   3.953  0.2078 -0.8347  0.0476
  844TIP3    H224024   6.216   6.296   3.995  0.2995 -0.4254 -0.3119
  845TIP3   OH224025   2.979   2.026  12.154 -0.2666 -0.1811 -0.4185
  845TIP3    H124026   2.965   1.945  12.202 -2.1618 -0.5730 -1.5206
  845TIP3    H224027   3.012   1.999  12.069 -1.3584  0.1141 -0.9659
  846TIP3   OH224028   4.828   3.043  14.485 -0.4227 -0.0040 -0.0149
  846TIP3    H124029   4.890   3.088  14.542 -1.3067  3.1284 -1.2839
  846TIP3    H224030   4.745   3.088  14.499 -1.3362 -1.0735 -1.6485
  847TIP3   OH224031   1.154   4.413  17.079 -0.0925 -0.0087  0.0206
  847TIP3    H124032   1.163   4.410  17.174  0.4918 -0.1688 -0.0394
  847TIP3    H224033   1.233   4.458  17.049  0.8967 -2.0189 -0.5564
  848TIP3   OH224034   2.241   4.112   1.122  0.1347  0.7220  0.2470
  848TIP3    H124035   2.317   4.077   1.169 -1.0713 -1.0009  0.9980
  848TIP3    H224036   2.263   4.101   1.030  0.6062 -0.2354  0.4585
  849TIP3   OH224037   4.556   5.757  16.750  0.0220  0.2965  0.5472
  849TIP3    H124038   4.571   5.667  16.722 -1.1319  0.4543 -0.6856
  849TIP3    H224039   4.556   5.753  16.846 -1.0377 -1.2041  0.5071
  850TIP3   OH224040   2.495   3.043   1.071  0.6248 -0.1147  0.4611
  850TIP3    H124041   2.470   3.051   1.163  2.8634  1.3352  1.0352
  850TIP3    H224042   2.564   2.977   1.070  0.5261 -0.2207 -0.2235
  851TIP3   OH224043   0.901   3.641  12.370  0.4641 -0.8784  0.1032
  851TIP3    H124044   0.972   3.659  12.432 -0.7219 -0.1346  1.3018
  851TIP3    H224045   0.864   3.557  12.398  0.9539 -1.3456 -0.6174
  852TIP3   OH224046   1.884   1.695   2.867 -0.2468  0.7749 -0.0064
  852TIP3    H124047   1.858   1.681   2.776  0.8587 -0.2358 -0.1901
  852TIP3    H224048   1.978   1.712   2.862  0.1288 -0.8007  1.0638
  853TIP3   OH224049   6.215   6.794   3.436 -0.1479  0.3848  0.0062
  853TIP3    H124050   6.251   6.799   3.525  0.5552  0.3053 -0.2667
  853TIP3    H224051   6.122   6.812   3.447 -0.0875  0.2835  0.7743
  854TIP3   OH224052   2.556   0.073  13.937  0.1126 -0.2265 -0.3235
  854TIP3    H124053   2.611   0.042  13.865  1.7932 -0.3398  0.9633
  854TIP3    H224054   2.611   0.135  13.984 -0.9719 -0.1322  0.8711
  855TIP3   OH224055   5.565   6.831   1.585  0.1234  0.1603 -0.4994
  855TIP3    H124056   5.472   6.845   1.606 -0.4230 -1.0516 -1.8725
  855TIP3    H224057   5.567   6.826   1.489  0.9237 -3.6353 -0.4485
  856TIP3   OH224058   5.008   6.814   0.727  0.5953  0.1323 -0.2898
  856TIP3    H124059   5.041   6.878   0.664  2.0901 -1.2645 -1.0116
  856TIP3    H224060   4.953   6.755   0.676 -2.1807  1.7333  0.6905
  857TIP3   OH224061   1.594   6.192   1.257 -0.2616  0.2955 -0.1632
  857TIP3    H124062   1.560   6.110   1.292  0.6777 -0.3830 -0.7795
  857TIP3    H224063   1.619   6.171   1.167  1.9449  0.6645  0.2983
  858TIP3   OH224064   3.411   5.834  16.516  0.0620  0.3218 -0.3617
  858TIP3    H124065   3.384   5.879  16.436 -2.0814 -0.0859  0.0549
  858TIP3    H224066   3.365   5.880  16.586 -1.7981 -2.0811  0.1308
  859TIP3   OH224067   3.698   5.558  12.780  0.2202  0.3902 -0.5012
  859TIP3    H124068   3.627   5.518  12.730  0.7548 -1.2929 -0.0097
  859TIP3    H224069   3.777   5.512  12.750  0.8278  0.8657  0.3273
  860TIP3   OH224070   1.696   1.927   2.822 -0.2768 -0.7211 -0.3851
  860TIP3    H124071   1.688   1.889   2.734 -0.0983 -1.4472 -0.0937
  860TIP3    H224072   1.740   1.859   2.873  0.1945 -0.0491  0.1075
  861TIP3   OH224073   6.302   4.421   1.153 -0.8089  0.5129 -0.2164
  861TIP3    H124074   6.277   4.467   1.073  1.5545 -0.0437 -1.3805
  861TIP3    H224075   6.262   4.334   1.143 -1.8087  0.9393 -0.0251
  862TIP3   OH224076   3.989   0.366   5.164 -0.3831  0.2016  0.5991
  862TIP3    H124077   3.910   0.337   5.119 -0.6981  1.4184  0.3499
  862TIP3    H224078   3.967   0.362   5.257 -0.1665 -1.0590  0.6131
  863TIP3   OH224079   5.987   1.554  12.495 -0.0438 -0.2018 -0.5478
  863TIP3    H124080   6.051   1.615  12.457 -1.9278  1.5411 -1.0899
  863TIP3    H224081   6.002   1.561  12.589  2.1031 -1.6545 -0.7125
  864TIP3   OH224082   0.124   5.187  16.645 -0.2169  0.0946 -0.5348
  864TIP3    H124083   0.063   5.244  16.692 -0.9016 -0.0619 -1.2064
  864TIP3    H224084   0.143   5.116  16.706 -0.0402  0.5817 -0.0128
  865TIP3   OH224085   1.776   3.668   1.310 -0.0297 -0.4459  0.1294
  865TIP3    H124086   1.808   3.628   1.229 -0.5714  0.2524 -0.4424
  865TIP3    H224087   1.698   3.617   1.333 -1.1713  0.7041 -1.0186
  866TIP3   OH224088   2.893   3.491  14.438  0.9142  0.2111 -0.0553
  866TIP3    H124089   2.815   3.546  14.436 -0.3971 -1.4465  1.5759
  866TIP3    H224090   2.889   3.441  14.356  0.1613  0.0217  0.0900
  867TIP3   OH224091   3.194   2.754  11.537  0.1226  0.8853 -0.1493
  867TIP3    H124092   3.289   2.766  11.536  0.4077 -1.0214 -1.6052
  867TIP3    H224093   3.162   2.807  11.465  0.8834 -2.9110 -3.6604
  868TIP3   OH224094   2.961   2.478   3.657 -0.1826 -0.1002  0.1128
  868TIP3    H124095   2.961   2.573   3.649  0.0314 -0.1487 -0.5250
  868TIP3    H224096   2.884   2.458   3.710 -1.6120  0.2875 -1.7310
  869TIP3   OH224097   3.293   3.384   5.053 -0.0988 -0.3013 -0.6875
  869TIP3    H124098   3.328   3.342   5.132  0.6726 -0.9837 -1.3647
  869TIP3    H224099   3.217   3.432   5.084  0.3066 -0.3717  0.5125
  870TIP3   OH224100   5.555   0.707  15.918  0.3533 -0.2080  0.1944
  870TIP3    H124101   5.610   0.667  15.851 -1.6460 -1.8229 -0.6166
  870TIP3    H224102   5.604   0.783  15.948  1.4718  0.4530 -2.9259
  871TIP3   OH224103   6.497   1.587   1.970  0.1443  0.2516  0.3119
  871TIP3    H124104   6.414   1.572   2.016  0.2080 -0.4857  0.1943
  871TIP3    H224105   6.477   1.568   1.878  0.1090  1.3631  0.0817
  872TIP3   OH224106   3.945   5.278  11.857  0.1831  0.2595 -0.7451
  872TIP3    H124107   3.999   5.237  11.789  0.0538  0.1297 -0.7699
  872TIP3    H224108   3.958   5.223  11.934 -0.9642 -0.5819 -1.1059
  873TIP3   OH224109   6.417   6.358   5.751  0.3162  0.0456 -0.4330
  873TIP3    H124110   6.416   6.424   5.820 -2.0269 -0.0084 -0.3484
  873TIP3    H224111   6.477   6.290   5.783 -0.5771  0.1176  1.4659
  874TIP3   OH224112   6.781   6.402  15.554  0.4356  0.1438 -0.1528
  874TIP3    H124113   6.699   6.414  15.506 -0.5998 -0.4866  1.3813
  874TIP3    H224114   6.809   6.490  15.577 -0.1920  0.3313 -0.0881
  875TIP3   OH224115   3.348   5.989  16.934 -0.5333  0.7024  0.0162
  875TIP3    H124116   3.389   5.903  16.946 -0.9007  0.6889  1.3010
  875TIP3    H224117   3.417   6.051  16.958  0.0608  0.8330 -1.8688
  876TIP3   OH224118   2.330   4.332  16.419  0.2581 -0.5990 -0.9435
  876TIP3    H124119   2.371   4.261  16.370 -2.9991 -0.0244 -4.9917
  876TIP3    H224120   2.378   4.411  16.391  1.9464 -0.7309  1.2808
  877TIP3   OH224121   3.397   6.529  14.820 -0.2501 -0.0018 -0.2719
  877TIP3    H124122   3.413   6.549  14.728 -0.5715  0.1591 -0.2945
  877TIP3    H224123   3.442   6.598  14.868 -2.3968  1.5845 -0.3730
  878TIP3   OH224124   2.961   0.222   1.225 -0.1236  0.1396  0.8350
  878TIP3    H124125   2.902   0.297   1.222 -1.8862 -1.1866  0.3108
  878TIP3    H224126   2.911   0.151   1.184  2.1674 -0.8693 -0.3926
  879TIP3   OH224127   2.037   1.636  14.666 -0.2686 -0.4886  0.4841
  879TIP3    H124128   2.064   1.674  14.582  0.6610  0.3280  1.1409
  879TIP3    H224129   1.999   1.709  14.714  1.7999 -0.2578  1.8745
  880TIP3   OH224130   3.542   3.488  17.099 -0.2651  0.1160 -0.0488
  880TIP3    H124131   3.458   3.460  17.135 -1.2594 -0.2715 -2.4862
  880TIP3    H224132   3.525   3.574  17.060  1.5487  2.0075  2.9504
  881TIP3   OH224133   4.276   3.773  12.057 -0.3079 -0.7652  0.1600
  881TIP3    H124134   4.351   3.721  12.030  0.7446  0.5105  0.5184
  881TIP3    H224135   4.215   3.710  12.095  1.1955 -1.6634  1.1796
  882TIP3   OH224136   5.804   4.105   4.772 -0.2634 -0.6106 -0.9936
  882TIP3    H124137   5.835   4.071   4.856  0.2783 -1.2593 -1.4523
  882TIP3    H224138   5.769   4.029   4.726 -1.4469 -0.1001 -0.9877
  883TIP3   OH224139   0.118   3.975   4.741  0.1206  0.6194 -0.0179
  883TIP3    H124140   0.091   3.913   4.809  0.0996  1.1016  0.4265
  883TIP3    H224141   0.069   3.949   4.664 -0.9559  0.9385  0.5421
  884TIP3   OH224142   2.669   1.445  12.616 -1.0109  0.1560 -0.5560
  884TIP3    H124143   2.616   1.414  12.542 -0.1103 -1.1467 -0.6936
  884TIP3    H224144   2.757   1.415  12.595 -0.3181  1.7540 -0.0332
  885TIP3   OH224145   2.032   5.916  16.350  0.0367 -0.6298  0.6203
  885TIP3    H124146   2.069   5.884  16.432  1.1892 -2.8059 -0.6511
  885TIP3    H224147   1.942   5.882  16.350 -0.4981  0.6762  1.5994
  886TIP3   OH224148   1.558   3.056   5.554 -0.2306  0.1743  0.6364
  886TIP3    H124149   1.549   3.151   5.561  0.6821  0.4661 -1.4180
  886TIP3    H224150   1.649   3.038   5.577  0.4665  0.2161 -1.8244
  887TIP3   OH224151   0.203   6.017   5.994  0.3070 -0.2619  0.3037
  887TIP3    H124152   0.255   6.047   6.068 -1.0929  0.8350  0.8850
  887TIP3    H224153   0.233   6.071   5.921  2.0870 -1.7265 -0.1312
  888TIP3   OH224154   6.115   1.772   5.789  0.2684 -0.0041  0.0004
  888TIP3    H124155   6.051   1.789   5.858  0.2514  2.4536 -0.5376
  888TIP3    H224156   6.200   1.788   5.829  0.4559 -1.1811  0.1255
  889TIP3   OH224157   3.707   4.173   6.221  0.4843  0.2937 -0.0994
  889TIP3    H124158   3.779   4.235   6.238 -0.7160  1.0879  2.4990
  889TIP3    H224159   3.731   4.095   6.271 -0.2872  0.4514  0.5270
  890TIP3   OH224160   4.548   5.212   3.034 -0.2632 -0.3348 -0.1487
  890TIP3    H124161   4.588   5.251   3.112 -0.6843  2.0887 -1.0578
  890TIP3    H224162   4.471   5.166   3.066  0.1297 -0.2416  0.9691
  891TIP3   OH224163   1.112   4.089  12.661 -0.3709  0.2925  0.1336
  891TIP3    H124164   1.089   4.152  12.730 -0.1756  1.0310 -0.4653
  891TIP3    H224165   1.205   4.105  12.645 -0.0800 -0.8046  0.6327
  892TIP3   OH224166   2.303   4.058   0.873  0.1589 -0.5247  0.3616
  892TIP3    H124167   2.375   3.997   0.856 -0.1331 -0.3077 -2.0670
  892TIP3    H224168   2.226   4.003   0.882  0.3668 -0.6648  1.4006
  893TIP3   OH224169   1.495   1.616   5.766 -0.1644  0.6213  0.8020
  893TIP3    H124170   1.523   1.540   5.817 -2.0320 -0.1220  0.7817
  893TIP3    H224171   1.419   1.586   5.716  1.8121  1.1192 -2.9292
  894TIP3   OH224172   2.370   2.704  13.386  0.8366 -0.1702  0.0270
  894TIP3    H124173   2.333   2.616  13.378 -0.2032  0.2858 -0.4049
  894TIP3    H224174   2.303   2.761  13.349  0.8697  0.9443  1.5755
  895TIP3   OH224175   5.430   1.887   6.317  0.4800  0.1669 -0.5558
  895TIP3    H124176   5.492   1.959   6.334  1.7250 -1.1703  0.9476
  895TIP3    H224177   5.472   1.836   6.248  1.0417 -0.6671  0.3729
  896TIP3   OH224178   4.481   2.404   5.069 -0.2958  0.0270 -0.1048
  896TIP3    H124179   4.553   2.434   5.124 -0.6728  0.9170 -0.0735
  896TIP3    H224180   4.524   2.355   4.998  0.1825 -1.1908  0.9901
  897TIP3   OH224181   5.127   4.343  14.304  0.1186  0.3861  0.3837
  897TIP3    H124182   5.089   4.430  14.292 -0.7746 -0.2223 -1.8057
  897TIP3    H224183   5.054   4.289  14.335  0.5092  0.2549  1.1045
  898TIP3   OH224184   0.224   2.082  16.394 -0.1156  0.0310 -0.3562
  898TIP3    H124185   0.145   2.067  16.343 -0.7127 -1.2425  0.8871
  898TIP3    H224186   0.277   2.140  16.339 -2.0532  1.2471 -1.0472
  899TIP3   OH224187   3.179   4.483  14.029  0.0380 -0.2094  0.0758
  899TIP3    H124188   3.247   4.434  13.982  1.1771 -0.6341  2.0685
  899TIP3    H224189   3.196   4.465  14.121 -1.8395  0.9639  0.7028
  900TIP3   OH224190   6.062   1.032  15.985  0.0935  0.4257  0.3473
  900TIP3    H124191   6.107   1.116  15.993  2.5040 -0.7814  0.2954
  900TIP3    H224192   6.050   1.002  16.075 -0.7018  0.7754  0.3640
  901TIP3   OH224193   0.855   2.815  11.540 -0.1266  0.4071  0.2401
  901TIP3    H124194   0.923   2.816  11.472 -0.3974  0.0072 -0.0394
  901TIP3    H224195   0.900   2.846  11.618  1.4498 -3.2689  1.0196
  902TIP3   OH224196   5.799   3.787   1.442  0.0237  0.1606  0.2725
  902TIP3    H124197   5.799   3.709   1.498 -1.2834  0.2216  0.3822
  902TIP3    H224198   5.806   3.752   1.353  1.1998  0.0224  0.3996
  903TIP3   OH224199   1.125   0.199   2.094  0.0303 -0.2553  0.3886
  903TIP3    H124200   1.177   0.162   2.022 -0.7134  1.7524 -1.2892
  903TIP3    H224201   1.125   0.293   2.078  1.0153  0.4862  3.8920
  904TIP3   OH224202   0.297   2.626  11.460 -0.2126  0.0922  0.2738
  904TIP3    H124203   0.264   2.566  11.526  0.9054 -0.6049  0.2139
  904TIP3    H224204   0.370   2.580  11.419 -1.4887  0.0498 -2.1720
  905TIP3   OH224205   0.875   4.037   4.180  0.3224 -0.2554 -0.6811
  905TIP3    H124206   0.861   4.039   4.274  1.1587 -0.2307 -0.5511
  905TIP3    H224207   0.809   4.096   4.144 -0.3032 -0.6281 -0.1583
  906TIP3   OH224208   0.507   4.263   5.161 -0.2823  0.2861 -0.4570
  906TIP3    H124209   0.422   4.302   5.140 -1.5555 -3.0926 -2.3477
  906TIP3    H224210   0.496   4.228   5.250 -0.2164  1.3542 -0.0144
  907TIP3   OH224211   1.009   3.354   2.048 -0.4169  0.2242 -0.4412
  907TIP3    H124212   1.021   3.274   1.997 -0.1538  0.4085 -0.6744
  907TIP3    H224213   1.076   3.414   2.015  1.7093 -0.5873  2.0948
  908TIP3   OH224214   1.222   0.565  11.668 -0.4098  0.0635 -0.0132
  908TIP3    H124215   1.261   0.646  11.634  0.9644 -1.4244 -2.2393
  908TIP3    H224216   1.295   0.519  11.709 -0.0665 -1.9536 -2.6611
  909TIP3   OH224217   2.615   3.116   3.574 -0.4151  0.7432 -0.1802
  909TIP3    H124218   2.687   3.153   3.522  0.4252 -0.3771  0.1497
  909TIP3    H224219   2.594   3.033   3.530 -0.1709  0.1269  0.8350
  910TIP3   OH224220   6.205   6.659   1.073 -0.0545 -0.4267  0.4540
  910TIP3    H124221   6.160   6.645   0.990  1.3637  0.3628 -0.4838
  910TIP3    H224222   6.297   6.643   1.054  0.3428  0.0686  1.8075
  911TIP3   OH224223   0.225   5.263  15.817  0.0718  0.0696 -0.2952
  911TIP3    H124224   0.189   5.191  15.868  0.1752  0.1659 -0.0842
  911TIP3    H224225   0.320   5.252  15.823  0.0855  0.1088 -0.4288
  912TIP3   OH224226   6.441   0.216  14.019  0.4019  0.1201  0.4370
  912TIP3    H124227   6.484   0.210  14.105  0.6425  0.5472  0.3509
  912TIP3    H224228   6.505   0.179  13.958  1.2047  1.8653  0.1329
  913TIP3   OH224229   5.119   4.066   0.721  0.1878  0.5462 -0.1886
  913TIP3    H124230   5.117   3.988   0.665 -2.1999  0.5307 -0.2109
  913TIP3    H224231   5.207   4.101   0.711  0.5523 -0.7632 -2.1405
  914TIP3   OH224232   5.899   3.860  11.630  0.5356  0.8529 -0.1601
  914TIP3    H124233   5.964   3.926  11.604 -0.1482  0.7619 -2.2455
  914TIP3    H224234   5.915   3.786  11.572 -0.5852  0.2925  0.2155
  915TIP3   OH224235   0.627   2.479   2.715  0.1161 -0.0460 -0.3210
  915TIP3    H124236   0.706   2.426   2.715 -0.5312 -1.0340  0.2412
  915TIP3    H224237   0.632   2.531   2.795  0.6960  0.6892 -0.8175
  916TIP3   OH224238   2.915   1.574  11.415 -0.3493 -0.2767  0.8972
  916TIP3    H124239   2.953   1.661  11.422 -2.9410  0.8104  2.8158
  916TIP3    H224240   2.951   1.539  11.333  0.6922  2.5958  0.0029
  917TIP3   OH224241   5.775   6.033   4.777 -0.2672  0.2108  0.0968
  917TIP3    H124242   5.821   6.035   4.861 -0.7149  1.3931  0.3332
  917TIP3    H224243   5.683   6.045   4.800 -0.4394  0.1336 -0.5358
  918TIP3   OH224244   3.254   5.921  14.402  0.0809  0.2288 -0.3156
  918TIP3    H124245   3.223   5.943  14.490 -0.0249 -1.7521  0.1825
  918TIP3    H224246   3.191   5.857  14.369  1.2416 -0.6143 -0.9868
  919TIP3   OH224247   1.839   0.857   2.443  0.4237  0.3192 -0.0724
  919TIP3    H124248   1.754   0.834   2.407  0.1880  1.2186 -0.1141
  919TIP3    H224249   1.856   0.790   2.510  0.3546 -0.7065 -1.0597
  920TIP3   OH224250   5.438   0.302  12.101 -0.3479 -0.5274  0.0620
  920TIP3    H124251   5.345   0.282  12.110 -0.3154 -0.0585  1.8095
  920TIP3    H224252   5.481   0.236  12.155  0.2792 -0.2232 -0.0628
  921TIP3   OH224253   2.041   2.825   5.778  0.3188  0.0811 -0.3807
  921TIP3    H124254   1.970   2.828   5.843 -0.0749  0.9341 -0.8320
  921TIP3    H224255   2.046   2.914   5.744 -0.2092 -0.5727 -2.2918
  922TIP3   OH224256   4.927   1.867  12.706 -0.6959 -0.7443  0.0154
  922TIP3    H124257   4.981   1.866  12.627  1.2669 -2.6336  1.2661
  922TIP3    H224258   4.890   1.779  12.712 -0.0872 -0.9435  1.5980
  923TIP3   OH224259   3.414   6.121   0.403 -0.0991 -0.5793  0.0505
  923TIP3    H124260   3.405   6.193   0.340  3.8137  1.1933  1.2000
  923TIP3    H224261   3.428   6.044   0.348  0.1061  0.3485 -1.2589
  924TIP3   OH224262   3.990   4.093   1.605  0.0917  0.5572  0.2981
  924TIP3    H124263   3.955   4.167   1.555  0.8762  0.4410 -0.4377
  924TIP3    H224264   4.022   4.033   1.539 -2.1653 -1.3305  0.7724
  925TIP3   OH224265   6.525   0.531   0.347 -0.2043  0.6522 -0.0217
  925TIP3    H124266   6.570   0.447   0.351  0.9123  1.1382 -1.6401
  925TIP3    H224267   6.432   0.508   0.347 -0.0309 -0.4080  2.4558
  926TIP3   OH224268   1.201   2.726  13.109 -0.0724  0.1783  0.3049
  926TIP3    H124269   1.246   2.810  13.101  0.5995  0.0053  1.9772
  926TIP3    H224270   1.185   2.700  13.018  0.1073  1.8772 -0.2660
  927TIP3   OH224271   3.544   2.483  14.350 -0.5395  0.3969  0.1325
  927TIP3    H124272   3.573   2.569  14.320  0.1352  0.1003 -0.0823
  927TIP3    H224273   3.455   2.498  14.381 -0.9718  0.8932 -1.2366
  928TIP3   OH224274   4.328   4.453  13.828 -0.1001 -0.5319  0.5177
  928TIP3    H124275   4.255   4.513  13.814  1.5556  1.8063  1.1116
  928TIP3    H224276   4.404   4.499  13.792  1.2252 -2.5349  0.5629
  929TIP3   OH224277   4.083   5.890   2.655  0.3961  0.7489  0.2882
  929TIP3    H124278   4.116   5.815   2.705 -0.1103  0.1884 -0.1967
  929TIP3    H224279   3.989   5.891   2.674 -0.2128 -0.7068 -2.1392
  930TIP3   OH224280   1.032   6.564   3.579  0.1204  0.3803  0.0177
  930TIP3    H124281   1.091   6.612   3.520  0.5829  0.0918  0.2394
  930TIP3    H224282   1.033   6.475   3.545 -1.2297  0.6296 -0.7779
  931TIP3   OH224283   4.865   6.320   2.788  0.1904 -0.1840 -0.8537
  931TIP3    H124284   4.914   6.295   2.866 -0.7197 -0.1205 -0.2395
  931TIP3    H224285   4.858   6.240   2.737 -0.6750 -0.6469 -0.0389
  932TIP3   OH224286   1.240   1.442   0.836 -0.6386  0.1066  0.1667
  932TIP3    H124287   1.231   1.428   0.742  3.8868  0.2312 -0.5339
  932TIP3    H224288   1.210   1.532   0.850 -1.9426 -0.1216 -0.9931
  933TIP3   OH224289   3.690   6.670   5.192  0.3860  0.2454  0.1746
  933TIP3    H124290   3.674   6.670   5.098 -0.5396  0.2985  0.3227
  933TIP3    H224291   3.716   6.580   5.213 -1.6010 -0.3672  0.2058
  934TIP3   OH224292   4.161   6.402  15.686  0.1097 -0.3232  0.5195
  934TIP3    H124293   4.214   6.423  15.609 -0.4727 -0.0908  0.1700
  934TIP3    H224294   4.122   6.486  15.712 -0.4450 -0.5669  0.4880
  935TIP3   OH224295   0.868   5.713   0.612  0.4442  0.2647  0.1046
  935TIP3    H124296   0.872   5.790   0.556 -0.4907  0.6880  0.6005
  935TIP3    H224297   0.943   5.723   0.671  1.3023 -0.0695 -0.8946
  936TIP3   OH224298   2.684   3.766   5.827 -0.6946  0.2726  0.4495
  936TIP3    H124299   2.726   3.843   5.788  1.3417 -0.1198  1.7003
  936TIP3    H224300   2.612   3.803   5.879  0.2798  1.3747  1.0745
  937TIP3   OH224301   2.554   6.787  12.966  0.3449  1.1475 -0.6306
  937TIP3    H124302   2.602   6.707  12.987 -1.9902 -0.2869 -0.4027
  937TIP3    H224303   2.528   6.775  12.874 -1.1654  0.9776 -0.2013
  938TIP3   OH224304   5.871   0.456  15.985  0.1427  0.3531 -0.1695
  938TIP3    H124305   5.917   0.536  16.011  1.3967 -0.5856  0.6083
  938TIP3    H224306   5.799   0.448  16.048  0.3415  0.5752  0.0870
  939TIP3   OH224307   3.088   5.979  12.279 -0.4020  0.3489  0.5472
  939TIP3    H124308   3.064   5.934  12.198 -0.7413  2.1342 -0.4041
  939TIP3    H224309   3.007   6.022  12.307  0.2726  1.6798  0.5205
  940TIP3   OH224310   3.426   6.830   0.691 -0.2065 -0.0567 -0.2057
  940TIP3    H124311   3.508   6.874   0.669  0.7953 -0.5312  2.1945
  940TIP3    H224312   3.447   6.737   0.688 -0.4557 -0.1723  0.9593
  941TIP3   OH224313   1.161   5.853  16.673  0.2376  0.3392  0.3549
  941TIP3    H124314   1.160   5.839  16.578 -0.9067  2.5205 -0.0330
  941TIP3    H224315   1.163   5.765  16.711 -0.2144 -0.6058 -1.6806
  942TIP3   OH224316   5.197   2.550  15.581 -0.2566 -0.1939 -0.0379
  942TIP3    H124317   5.222   2.573  15.491  1.1404 -2.4353 -0.3056
  942TIP3    H224318   5.264   2.488  15.609 -1.8083 -1.1353  1.8151
  943TIP3   OH224319   0.706   2.139   5.303  0.2734  0.1618 -0.0749
  943TIP3    H124320   0.706   2.232   5.280  0.3298  0.4896  1.1853
  943TIP3    H224321   0.678   2.095   5.223 -0.1082  1.2832 -0.5858
  944TIP3   OH224322   6.744   2.502  11.608 -0.0137  0.0629  0.1972
  944TIP3    H124323   6.805   2.434  11.577  1.1773  0.8209  0.8028
  944TIP3    H224324   6.744   2.493  11.703 -0.4900  0.3825  0.2315
  945TIP3   OH224325   4.902   6.207  15.646 -0.4042  0.4532  0.1964
  945TIP3    H124326   4.937   6.284  15.601  0.6725  1.0676  1.9982
  945TIP3    H224327   4.979   6.160  15.678 -1.1056 -0.2681  0.8937
  946TIP3   OH224328   4.871   6.652   1.055  0.3559 -0.2646  0.0191
  946TIP3    H124329   4.785   6.621   1.082 -0.7115  1.1341 -1.5844
  946TIP3    H224330   4.892   6.722   1.116 -0.2479  0.2377 -0.3355
  947TIP3   OH224331   4.926   2.333   2.591 -0.1526  0.0344  0.9346
  947TIP3    H124332   5.010   2.289   2.575  0.1942  0.8200  0.5373
  947TIP3    H224333   4.861   2.270   2.560  0.4249  0.7991 -2.2564
  948TIP3   OH224334   1.851   3.618  12.091  0.3008  0.3571 -0.0124
  948TIP3    H124335   1.913   3.628  12.019  0.9932  0.5196  0.5906
  948TIP3    H224336   1.857   3.525  12.115 -0.4433  0.1505 -0.6122
  949TIP3   OH224337   6.167   2.664  16.818 -0.0788  0.1223 -0.1712
  949TIP3    H124338   6.193   2.643  16.908  1.8523  0.6860 -0.5454
  949TIP3    H224339   6.223   2.737  16.793  0.1394 -0.6497 -2.1718
  950TIP3   OH224340   1.526   2.062  12.031 -0.0895  0.7153  0.3552
  950TIP3    H124341   1.532   2.123  11.957 -3.0676  0.1884 -0.4643
  950TIP3    H224342   1.528   2.117  12.109  3.9918  1.2205  0.0768
  951TIP3   OH224343   0.763   2.394  14.509  0.0057  0.6890 -0.1536
  951TIP3    H124344   0.846   2.347  14.495  0.0082  0.1439  1.5034
  951TIP3    H224345   0.789   2.486  14.515 -0.0684  1.1381 -4.0729
  952TIP3   OH224346   1.314   3.338  16.165 -0.1615 -0.0349 -0.2385
  952TIP3    H124347   1.353   3.354  16.251  1.4710 -1.4266 -0.6665
  952TIP3    H224348   1.307   3.425  16.125  2.6958  0.3415 -0.1567
  953TIP3   OH224349   6.833   4.877  11.336 -0.0782 -0.2392 -0.2004
  953TIP3    H124350   6.907   4.932  11.362  0.1701 -1.1786  1.1441
  953TIP3    H224351   6.779   4.869  11.415 -1.2986 -0.0910 -0.9876
  954TIP3   OH224352   1.620   2.720   5.461  0.1805 -0.4835  0.4064
  954TIP3    H124353   1.616   2.694   5.553 -3.2908  3.2516  1.6161
  954TIP3    H224354   1.534   2.698   5.426 -0.0529  1.8202 -0.6533
  955TIP3   OH224355   3.620   5.837   2.365  0.5739  0.0285  0.0845
  955TIP3    H124356   3.537   5.804   2.332 -0.1458  0.6819  1.1721
  955TIP3    H224357   3.597   5.918   2.410  2.0374  1.0697 -0.9589
  956TIP3   OH224358   1.890   4.186   4.681 -0.4618 -0.0675  0.8607
  956TIP3    H124359   1.879   4.093   4.697  0.3555 -0.5269 -0.9570
  956TIP3    H224360   1.980   4.194   4.649 -1.3244  0.9075 -1.5879
  957TIP3   OH224361   0.928   5.006   1.950 -0.2781 -0.1569  0.5068
  957TIP3    H124362   0.855   4.951   1.924 -0.7271  0.2534  0.8676
  957TIP3    H224363   0.975   4.955   2.016  0.0841 -0.6461 -0.1259
  958TIP3   OH224364   1.387   6.687  16.647  0.3769  0.3682  0.1987
  958TIP3    H124365   1.414   6.715  16.560 -0.4300  1.1430  0.1766
  958TIP3    H224366   1.358   6.597  16.636 -0.1365  0.6049 -0.4283
  959TIP3   OH224367   0.970   1.227  13.648 -0.2367 -0.2020  0.4539
  959TIP3    H124368   0.884   1.189  13.669 -0.1818  0.1916  1.4363
  959TIP3    H224369   0.980   1.300  13.709  0.2492  0.5658 -0.5127
  960TIP3   OH224370   5.636   1.588  15.883  0.3318 -0.7078  0.4055
  960TIP3    H124371   5.625   1.549  15.796  2.3697 -0.1367 -0.1701
  960TIP3    H224372   5.619   1.682  15.869 -0.2050 -0.7454  0.8135
  961TIP3   OH224373   5.090   5.767   4.589 -0.1326 -0.0939  0.0290
  961TIP3    H124374   5.015   5.769   4.528 -0.2319  2.5499  0.1009
  961TIP3    H224375   5.055   5.727   4.669 -0.3890 -2.2993 -1.1126
  962TIP3   OH224376   2.147   0.873   3.795 -0.0043  0.5732 -0.4260
  962TIP3    H124377   2.177   0.817   3.724 -1.8082 -0.6718 -0.2554
  962TIP3    H224378   2.140   0.960   3.755  0.4314  0.1904 -1.3649
  963TIP3   OH224379   5.623   6.661  12.581  0.3058  0.4613  0.5045
  963TIP3    H124380   5.618   6.567  12.597  0.9427 -0.2903 -2.8542
  963TIP3    H224381   5.717   6.680  12.577  0.2835  0.4796 -1.8343
  964TIP3   OH224382   4.615   5.504  16.640  0.1108  0.0524  0.1001
  964TIP3    H124383   4.639   5.419  16.677 -0.5909 -0.6247 -0.9658
  964TIP3    H224384   4.675   5.517  16.568 -0.0682  0.2545 -0.0129
  965TIP3   OH224385   4.896   0.380   3.616 -0.4557 -0.2850  0.2894
  965TIP3    H124386   4.826   0.391   3.552 -0.2927  0.3265  0.2133
  965TIP3    H224387   4.960   0.323   3.572 -0.0503  0.6268 -0.3413
  966TIP3   OH224388   5.085   6.022   0.549  0.2509 -1.1830 -0.0835
  966TIP3    H124389   5.076   5.952   0.613 -0.4693 -0.1583  0.9672
  966TIP3    H224390   5.099   6.101   0.601  0.4013 -0.4368 -1.2177
  967TIP3   OH224391   0.239   5.431   4.447 -0.1569 -0.5769  0.1075
  967TIP3    H124392   0.286   5.349   4.456  1.1228  0.0734 -0.3899
  967TIP3    H224393   0.179   5.416   4.373 -0.1929 -1.1694  0.2549
  968TIP3   OH224394   1.792   0.234   0.876  0.1926 -0.0746  0.0742
  968TIP3    H124395   1.778   0.267   0.965  0.2734  0.8788 -0.2636
  968TIP3    H224396   1.818   0.142   0.888 -0.3621 -0.1169  1.0046
  969TIP3   OH224397   1.977   2.954  13.419 -0.5704 -0.5177 -0.1630
  969TIP3    H124398   1.917   2.893  13.461  0.4134 -1.0405  0.5112
  969TIP3    H224399   1.978   3.031  13.476  0.2453 -0.9563  0.4255
  970TIP3   OH224400   1.239   0.892   5.805  0.2877 -0.0889 -0.4247
  970TIP3    H124401   1.310   0.951   5.781 -0.5255  0.7712 -0.8057
  970TIP3    H224402   1.269   0.848   5.884  1.4592 -0.1577 -0.8917
  971TIP3   OH224403   1.938   6.528  15.011  0.8445  0.0399 -0.7734
  971TIP3    H124404   2.014   6.585  14.997 -0.9109  2.6632 -0.2416
  971TIP3    H224405   1.938   6.511  15.105 -0.3070  1.7231 -0.4440
  972TIP3   OH224406   1.624   5.273   2.120 -0.0480 -0.0555 -0.2777
  972TIP3    H124407   1.703   5.225   2.144  0.5129  0.3011 -1.3199
  972TIP3    H224408   1.553   5.212   2.135  0.5829 -0.9726 -0.9110
  973TIP3   OH224409   4.207   2.739   1.834 -0.3273  0.2498  0.2992
  973TIP3    H124410   4.180   2.688   1.910  0.6416 -0.2729  0.3104
  973TIP3    H224411   4.262   2.809   1.871  0.2163 -0.0561  0.0881
  974TIP3   OH224412   3.761   4.387   2.086  0.1844 -0.3138 -0.7506
  974TIP3    H124413   3.689   4.363   2.027 -2.3201  0.1459  1.8436
  974TIP3    H224414   3.758   4.321   2.155  0.8328  0.8912  0.4840
  975TIP3   OH224415   1.282   3.304  14.715 -0.2314  0.0949  0.0052
  975TIP3    H124416   1.236   3.359  14.651  2.3738  2.5270  0.0175
  975TIP3    H224417   1.302   3.223  14.668 -0.6747  0.7577 -1.3788
  976TIP3   OH224418   5.387   5.158  15.452  0.0916  0.1213  0.2297
  976TIP3    H124419   5.422   5.227  15.395 -1.1552  0.9336  0.4123
  976TIP3    H224420   5.446   5.083  15.437  0.9131  0.9131 -0.6857
  977TIP3   OH224421   0.310   4.263   3.132  0.0718  0.1744  0.0693
  977TIP3    H124422   0.257   4.316   3.192 -1.4738 -1.3478  0.1422
  977TIP3    H224423   0.366   4.326   3.087 -1.6675  1.8783  0.1464
  978TIP3   OH224424   1.454   0.568   5.779  0.2628 -0.4524  0.0734
  978TIP3    H124425   1.453   0.489   5.834 -0.5466  0.6464  1.6952
  978TIP3    H224426   1.361   0.589   5.766  0.4308 -0.6405 -1.7174
  979TIP3   OH224427   5.224   0.590  16.331  0.1588  0.0253 -0.0532
  979TIP3    H124428   5.179   0.550  16.257  1.0401  1.6722 -1.5669
  979TIP3    H224429   5.262   0.517  16.379 -0.3446 -1.0870 -1.3102
  980TIP3   OH224430   6.284   2.630  17.055  0.3161  0.1154 -0.5615
  980TIP3    H124431   6.284   2.721  17.083  0.1994 -0.3757  1.1930
  980TIP3    H224432   6.295   2.580  17.137 -1.2103 -1.4733 -1.2533
  981TIP3   OH224433   3.118   1.338   1.705 -0.2549 -0.3023 -0.2781
  981TIP3    H124434   3.091   1.388   1.783  1.0337  0.4475 -0.2993
  981TIP3    H224435   3.213   1.330   1.713 -0.3285 -1.9571 -0.7649
  982TIP3   OH224436   2.753   6.616  11.428  0.4350 -0.5683 -0.2937
  982TIP3    H124437   2.689   6.560  11.384  0.8489 -1.7308  0.5332
  982TIP3    H224438   2.819   6.633  11.361 -1.2116  1.5876 -1.5203
  983TIP3   OH224439   4.543   0.024  11.429 -0.0698  0.2020  0.4653
  983TIP3    H124440   4.471   0.064  11.477  0.0992 -0.2604  1.1186
  983TIP3    H224441   4.504  -0.005  11.346 -0.6116  0.0297  0.7787
  984TIP3   OH224442   1.147   0.570  15.405  0.2933  0.2150 -1.0078
  984TIP3    H124443   1.177   0.494  15.453 -1.9868  0.2397  0.5813
  984TIP3    H224444   1.159   0.547  15.313  0.5648 -1.6562 -0.5338
  985TIP3   OH224445   2.672   5.443  14.736  0.0685 -0.1482  0.3304
  985TIP3    H124446   2.679   5.494  14.817  1.5656 -0.8229  0.6489
  985TIP3    H224447   2.655   5.353  14.766 -0.2865 -0.2455 -0.1499
  986TIP3   OH224448   5.853   4.770   1.626 -0.2075  0.4088  0.5478
  986TIP3    H124449   5.920   4.715   1.586  1.4413  1.5773  1.5963
  986TIP3    H224450   5.842   4.843   1.564 -0.7429  0.0817  0.2457
  987TIP3   OH224451   1.267   0.264  13.736  0.6821  0.0818 -0.9301
  987TIP3    H124452   1.246   0.323  13.808  1.6816 -1.7153  0.9185
  987TIP3    H224453   1.184   0.251  13.690 -0.0427  1.0135  0.0857
  988TIP3   OH224454   6.478   5.486   2.253  0.3902 -0.2812 -0.2413
  988TIP3    H124455   6.449   5.571   2.219  0.5736 -0.6119 -1.2837
  988TIP3    H224456   6.410   5.459   2.315  0.1229  0.4348 -0.2190
  989TIP3   OH224457   0.422   6.461   3.009 -0.2073 -0.7520 -0.0115
  989TIP3    H124458   0.460   6.514   3.079 -0.8247 -1.7766  1.1455
  989TIP3    H224459   0.495   6.442   2.951  0.3545 -0.0164  0.4349
  990TIP3   OH224460   1.539   1.145  16.450 -0.4528 -0.0185  0.1747
  990TIP3    H124461   1.504   1.228  16.418  1.3034  1.1616  1.1579
  990TIP3    H224462   1.576   1.103  16.373  0.6404  1.1832  0.0047
  991TIP3   OH224463   3.845   5.763   5.170  0.1938  0.6477 -0.3617
  991TIP3    H124464   3.863   5.856   5.155 -1.7530  1.2140  0.4681
  991TIP3    H224465   3.760   5.748   5.130  0.3139 -0.7042 -0.1612
  992TIP3   OH224466   6.544   5.220   1.715 -0.3968  0.1029  0.4360
  992TIP3    H124467   6.452   5.243   1.707 -0.1302  0.7985 -1.2630
  992TIP3    H224468   6.589   5.281   1.656  1.4313  1.3378  2.9046
  993TIP3   OH224469   1.996   5.027  13.332 -0.8447  0.4103  0.3640
  993TIP3    H124470   2.029   5.116  13.324  1.2968 -0.3794 -0.4337
  993TIP3    H224471   2.047   4.989  13.404 -0.9281 -0.4932 -0.0449
  994TIP3   OH224472   4.765   0.315  14.369  0.0532 -0.5388  0.6824
  994TIP3    H124473   4.824   0.383  14.404 -0.0727 -0.6436  1.0990
  994TIP3    H224474   4.691   0.364  14.334 -0.2243 -0.4798  1.3414
  995TIP3   OH224475   0.323   2.072   0.315 -0.1123 -0.2701 -0.4685
  995TIP3    H124476   0.230   2.098   0.317  0.0790  0.5442 -1.3906
  995TIP3    H224477   0.322   1.980   0.289 -0.6563 -0.2294 -0.6111
  996TIP3   OH224478   6.505   3.584  13.869 -0.3328 -0.1759 -0.6203
  996TIP3    H124479   6.502   3.528  13.792  1.0675  0.0005 -0.8449
  996TIP3    H224480   6.526   3.671  13.834  2.6798 -0.5083  0.0366
  997TIP3   OH224481   4.693   2.519   4.678  0.1111 -0.2359  0.0441
  997TIP3    H124482   4.660   2.573   4.750  0.2201 -0.3243  0.1603
  997TIP3    H224483   4.732   2.443   4.721  0.2318 -0.2590 -0.1064
  998TIP3   OH224484   2.255   6.590  12.412  0.2112  0.1856 -0.2576
  998TIP3    H124485   2.314   6.543  12.471  0.0019  0.8966  0.5327
  998TIP3    H224486   2.311   6.652  12.365  0.1671  0.5425  0.1612
  999TIP3   OH224487   4.527   4.959   5.911 -0.0505 -0.0974 -0.5746
  999TIP3    H124488   4.538   4.966   6.006 -0.9550 -0.7625 -0.4098
  999TIP3    H224489   4.434   4.972   5.896  0.3255  1.9095 -1.5865
 1000TIP3   OH224490   3.130   5.941   2.043 -0.2370 -0.3389 -0.3189
 1000TIP3    H124491   3.055   6.001   2.051 -0.5294 -0.8914  1.5839
 1000TIP3    H224492   3.202   5.987   2.087  0.2228 -0.3282 -1.0729
 1001TIP3   OH224493   4.421   5.332   2.218  0.0829  0.1470  0.2062
 1001TIP3    H124494   4.363   5.365   2.149 -0.4164 -0.4484  0.3262
 1001TIP3    H224495   4.382   5.364   2.300  1.6708  2.3694  0.1542
 1002TIP3   OH224496   6.116   2.779  14.983 -0.1266  0.2061 -0.0694
 1002TIP3    H124497   6.075   2.706  14.936  0.9883  0.6024 -1.7498
 1002TIP3    H224498   6.103   2.758  15.076 -1.9082 -0.9051 -0.5246
 1003TIP3   OH224499   1.341   0.721  12.528 -0.0426 -0.1896 -0.1479
 1003TIP3    H124500   1.334   0.804  12.574 -1.0785 -0.7225  0.7052
 1003TIP3    H224501   1.428   0.723  12.488  0.5641  0.6564  1.1317
 1004TIP3   OH224502   3.306   6.278   4.404 -0.1911  0.0644 -0.3823
 1004TIP3    H124503   3.348   6.329   4.473  2.2414 -1.2068 -0.8177
 1004TIP3    H224504   3.248   6.218   4.451 -2.7871  2.7483  0.1558
 1005TIP3   OH224505   2.873   0.524   3.465  0.2805 -0.1005  0.0626
 1005TIP3    H124506   2.894   0.610   3.428  2.0919 -0.8902 -0.8635
 1005TIP3    H224507   2.793   0.497   3.420  0.0113  0.8496 -0.0442
 1006TIP3   OH224508   3.383   3.461  14.425  0.3135  0.3287  0.0176
 1006TIP3    H124509   3.393   3.547  14.465  0.2387  0.3638 -0.0376
 1006TIP3    H224510   3.305   3.424  14.466  0.0961  0.4646 -0.2714
 1007TIP3   OH224511   1.977   0.147   1.526 -0.2450  0.1565 -0.5629
 1007TIP3    H124512   1.951   0.199   1.602  0.9967  0.2388 -0.1604
 1007TIP3    H224513   1.945   0.059   1.545  2.2853 -0.4678  1.3829
 1008TIP3   OH224514   0.555   5.024  12.669  0.1115 -0.3570 -0.3476
 1008TIP3    H124515   0.643   5.060  12.670 -0.2740  0.6892 -1.4684
 1008TIP3    H224516   0.533   5.017  12.576 -1.0483 -0.4542 -0.0824
 1009TIP3   OH224517   5.368   1.598   0.342 -0.4762 -0.4174 -0.4742
 1009TIP3    H124518   5.455   1.597   0.383  0.0093  1.8266 -1.2807
 1009TIP3    H224519   5.307   1.602   0.415  0.2495  0.6459  0.0967
 1010TIP3   OH224520   4.297   4.454   2.394  0.1058 -0.4751 -0.2235
 1010TIP3    H124521   4.319   4.500   2.313 -2.4294 -1.3802 -1.5131
 1010TIP3    H224522   4.253   4.521   2.447 -0.6184 -0.5647 -0.7093
 1011TIP3   OH224523   5.014   2.666  14.243 -0.1495 -0.2354 -0.4697
 1011TIP3    H124524   5.079   2.605  14.277  0.7287  0.1213 -1.4713
 1011TIP3    H224525   4.953   2.611  14.193 -0.4828 -0.5311  0.2418
 1012TIP3   OH224526   0.434   0.201   1.659 -0.1002 -0.2472  0.6105
 1012TIP3    H124527   0.398   0.289   1.670  1.4761  0.7128 -1.2369
 1012TIP3    H224528   0.391   0.148   1.726 -0.3005  2.1585  2.4991
 1013TIP3   OH224529   5.541   5.993   2.811  0.0223 -0.3347  0.3528
 1013TIP3    H124530   5.451   6.024   2.803  0.4473  0.6883 -0.8153
 1013TIP3    H224531   5.549   5.923   2.747  0.3841  0.4176 -0.4444
 1014TIP3   OH224532   2.196   1.396   3.785 -0.5388 -0.6227 -0.0913
 1014TIP3    H124533   2.257   1.368   3.717  1.7126  0.2612  1.4578
 1014TIP3    H224534   2.189   1.491   3.774 -0.0807 -0.4547  0.9249
 1015TIP3   OH224535   0.832   3.997  14.131  0.0782  0.0867 -0.2440
 1015TIP3    H124536   0.766   3.931  14.154 -0.3920  0.4378 -0.5637
 1015TIP3    H224537   0.907   3.946  14.102  0.9390 -0.4090  2.5692
 1016TIP3   OH224538   4.152   4.216   2.083 -0.2056 -0.4219 -0.0490
 1016TIP3    H124539   4.094   4.292   2.084 -2.1350 -1.8431  0.0456
 1016TIP3    H224540   4.129   4.169   2.003 -0.4189 -1.9009  0.8404
 1017TIP3   OH224541   4.906   1.921  14.909 -0.2128  0.1133  0.2261
 1017TIP3    H124542   4.922   1.979  14.984 -1.3560  1.5854 -0.6114
 1017TIP3    H224543   4.933   1.835  14.940 -1.5133  0.4776  2.6831
 1018TIP3   OH224544   6.156   1.780  15.110  0.4761 -0.1539  0.0357
 1018TIP3    H124545   6.250   1.764  15.118  0.4039 -0.4797  0.2325
 1018TIP3    H224546   6.116   1.720  15.172  0.0577 -0.9511 -0.9906
 1019TIP3   OH224547   6.269   4.185   2.610  0.3858  0.2071 -0.1015
 1019TIP3    H124548   6.317   4.267   2.601  0.0620  0.9334  3.3388
 1019TIP3    H224549   6.316   4.137   2.678 -0.9395 -1.2849 -0.1789
 1020TIP3   OH224550   2.326   2.550   5.058 -0.0089 -0.2936 -0.5519
 1020TIP3    H124551   2.287   2.497   4.988 -0.3043 -0.9410  0.0937
 1020TIP3    H224552   2.265   2.623   5.070  0.0871 -0.1322 -1.0255
 1021TIP3   OH224553   1.500   5.782  16.550 -0.2697  0.6826 -0.0969
 1021TIP3    H124554   1.507   5.707  16.491  1.1020  1.4877 -1.0353
 1021TIP3    H224555   1.459   5.851  16.498  0.8771  1.3793 -0.1205
 1022TIP3   OH224556   5.659   6.314   1.709 -0.1741 -0.4680  0.1495
 1022TIP3    H124557   5.569   6.280   1.706 -0.6162  0.3114  2.3833
 1022TIP3    H224558   5.708   6.246   1.755  0.2732 -0.6309 -0.5547
 1023TIP3   OH224559   4.136   3.106  16.311 -0.0594 -0.2341 -0.2348
 1023TIP3    H124560   4.088   3.109  16.395  0.4385  0.0705  0.0417
 1023TIP3    H224561   4.145   3.013  16.293  1.5851 -0.3699  1.0782
 1024TIP3   OH224562   3.970   6.048   3.580  0.0091  0.6484 -0.5434
 1024TIP3    H124563   4.003   6.126   3.536  1.4325 -0.1635 -1.0045
 1024TIP3    H224564   4.010   6.050   3.667  1.2789 -0.2906 -1.0694
 1025TIP3   OH224565   0.430   2.414   4.166 -0.1288  0.2810  0.4257
 1025TIP3    H124566   0.504   2.392   4.110  0.0299 -0.3087  0.8620
 1025TIP3    H224567   0.416   2.336   4.219 -0.8198  0.5294  0.6137
 1026TIP3   OH224568   5.053   0.868   4.012 -0.6327  0.0652  0.3596
 1026TIP3    H124569   5.131   0.815   3.998 -1.0307 -0.9547  1.7915
 1026TIP3    H224570   5.086   0.957   4.026  0.1027  0.0469 -1.0847
 1027TIP3   OH224571   0.493   3.050   0.437  0.6019  0.0432  0.2927
 1027TIP3    H124572   0.428   2.986   0.468  0.4267  1.5872  3.5483
 1027TIP3    H224573   0.468   3.132   0.480  1.7967  1.9489 -2.4098
 1028TIP3   OH224574   4.623   5.910   6.528  0.2078  0.3780  0.0907
 1028TIP3    H124575   4.646   5.934   6.438  1.9001  1.1970  0.6996
 1028TIP3    H224576   4.603   5.993   6.571  0.2518  0.0798  0.6989
 1029TIP3   OH224577   4.007   6.813  13.327 -0.2788 -0.0851 -0.3078
 1029TIP3    H124578   3.916   6.841  13.325 -0.4213 -0.5199 -0.1197
 1029TIP3    H224579   4.058   6.892  13.307 -0.7307 -0.0351 -1.2870
 1030TIP3   OH224580   6.112   0.804   5.465 -0.5054 -0.0195  0.4053
 1030TIP3    H124581   6.053   0.854   5.521  0.0999 -0.1109  1.1499
 1030TIP3    H224582   6.096   0.713   5.489 -0.9187 -0.1208 -0.2548
 1031TIP3   OH224583   0.259   1.250  16.811 -0.4630  0.1443  0.7726
 1031TIP3    H124584   0.329   1.188  16.790 -0.2801  0.0679  1.5721
 1031TIP3    H224585   0.178   1.202  16.792 -0.3661  1.1081 -2.7031
 1032TIP3   OH224586   2.268   6.076   3.102  0.2608 -0.3420 -0.2970
 1032TIP3    H124587   2.262   6.171   3.093  2.2679 -0.1035  0.3862
 1032TIP3    H224588   2.330   6.062   3.173 -3.3464 -2.1907  2.8591
 1033TIP3   OH224589   4.557   0.876  13.750  0.3657  0.4326  0.1914
 1033TIP3    H124590   4.482   0.931  13.729  0.3259  1.9491  3.5525
 1033TIP3    H224591   4.624   0.901  13.687 -0.9269  1.4212 -0.8470
 1034TIP3   OH224592   1.528   5.494  12.905 -0.2284 -0.2693 -0.2776
 1034TIP3    H124593   1.582   5.534  12.838  0.8905  0.7491  1.1564
 1034TIP3    H224594   1.513   5.564  12.969  0.7190 -1.7338  1.6783
 1035TIP3   OH224595   2.540   6.394  12.300  0.2048 -0.4481 -0.1096
 1035TIP3    H124596   2.452   6.356  12.292 -0.8972  2.2139 -2.2040
 1035TIP3    H224597   2.580   6.381  12.214  1.9267 -1.6527  0.8297
 1036TIP3   OH224598   4.676   6.850   0.927  0.1282  0.4052 -0.1448
 1036TIP3    H124599   4.712   6.764   0.908 -0.2331  0.0607  0.6809
 1036TIP3    H224600   4.587   6.848   0.890 -0.7618 -0.4429  1.8804
 1037TIP3   OH224601   6.820   3.936  14.070  0.2337  0.4324 -0.1531
 1037TIP3    H124602   6.751   3.876  14.098 -0.0429  2.0161  2.8636
 1037TIP3    H224603   6.775   4.002  14.017  0.4319 -1.4552 -2.8785
 1038TIP3   OH224604   3.775   0.906   2.199 -0.6342  0.0111 -0.1760
 1038TIP3    H124605   3.685   0.872   2.200 -0.0385 -1.7221 -1.3653
 1038TIP3    H224606   3.815   0.866   2.122  2.2837 -2.3392  2.3330
 1039TIP3   OH224607   2.501   6.643   0.370  0.4659 -0.5289 -0.1742
 1039TIP3    H124608   2.525   6.691   0.450  0.3310 -0.8597  0.0652
 1039TIP3    H224609   2.516   6.551   0.392 -0.6223 -0.7125 -0.1588
 1040TIP3   OH224610   6.464   1.310  13.061 -0.5384  0.2283 -0.3143
 1040TIP3    H124611   6.548   1.272  13.087  0.9654  2.6108 -1.3674
 1040TIP3    H224612   6.467   1.310  12.965 -1.1071  1.5964 -0.3513
 1041TIP3   OH224613   2.429   4.020  11.687  0.1726 -0.2981  0.7683
 1041TIP3    H124614   2.440   4.102  11.640  1.2463 -1.0611 -0.3870
 1041TIP3    H224615   2.517   3.995  11.713 -0.2174 -0.7563  1.7140
 1042TIP3   OH224616   3.639   1.084  15.163 -0.1200 -0.2518  0.1408
 1042TIP3    H124617   3.715   1.030  15.140 -0.5914 -1.1583  0.6361
 1042TIP3    H224618   3.669   1.174  15.154  1.0641 -0.5952  0.5232
 1043TIP3   OH224619   1.030   2.560   5.035  0.1176 -0.3234  0.5834
 1043TIP3    H124620   0.936   2.562   5.051  0.3335  2.0432  1.9235
 1043TIP3    H224621   1.051   2.648   5.003  2.1633 -0.1499  2.2286
 1044TIP3   OH224622   4.612   1.256   5.298  1.0347  0.1923 -1.1922
 1044TIP3    H124623   4.670   1.327   5.325  0.5478  0.8345 -1.7878
 1044TIP3    H224624   4.670   1.182   5.279  1.6814  0.8723 -1.9331
 1045TIP3   OH224625   5.443   3.529  10.729 -0.0672 -0.0632 -0.1077
 1045TIP3    H124626   5.475   3.570  10.810  1.9007  1.1044 -1.3817
 1045TIP3    H224627   5.425   3.438  10.754  2.1125 -0.1945  1.3187
 1046TIP3   OH224628   1.540   2.659   0.175  0.0227  0.2169  0.0829
 1046TIP3    H124629   1.594   2.726   0.133  0.5004  0.3977  0.9672
 1046TIP3    H224630   1.496   2.615   0.102  1.1450  0.2410 -0.6287
 1047TIP3   OH224631   4.605   5.199  12.619  0.2363  0.3255  0.0927
 1047TIP3    H124632   4.694   5.215  12.650 -0.2265  1.9608  0.6243
 1047TIP3    H224633   4.612   5.203  12.523 -0.0110  5.4747  0.0484
 1048TIP3   OH224634   3.764   3.511  11.135 -0.3604 -0.6203  0.3052
 1048TIP3    H124635   3.736   3.589  11.183  3.1220  1.4629 -0.6430
 1048TIP3    H224636   3.695   3.496  11.071 -0.9718  2.0559  0.2150
 1049TIP3   OH224637   1.655   3.144   1.426 -0.0284 -0.2598  0.2922
 1049TIP3    H124638   1.740   3.182   1.405 -1.2766  2.0610 -1.0009
 1049TIP3    H224639   1.672   3.050   1.438  2.5853  0.0604 -0.4225
 1050TIP3   OH224640   6.463   1.837   1.540  0.0508  0.3737  0.2456
 1050TIP3    H124641   6.413   1.783   1.601 -1.1637  0.9112 -0.2526
 1050TIP3    H224642   6.514   1.774   1.489  0.4757 -0.1324  1.2689
 1051TIP3   OH224643   0.914   3.970  12.981  0.2759 -0.1655  0.3722
 1051TIP3    H124644   0.892   3.920  12.902 -0.1210  0.6068 -0.0203
 1051TIP3    H224645   0.846   4.036  12.987  1.3377  0.9762  0.3034
 1052TIP3   OH224646   3.719   4.237  10.687  0.3585 -0.2596 -0.3246
 1052TIP3    H124647   3.683   4.319  10.652  0.1796  0.3035  1.1281
 1052TIP3    H224648   3.733   4.182  10.609 -2.0582  0.1143 -1.1284
 1053TIP3   OH224649   5.476   6.240   5.364  0.0217  0.3853  0.2378
 1053TIP3    H124650   5.446   6.149   5.369  1.6481 -0.2149 -0.3987
 1053TIP3    H224651   5.482   6.258   5.270  4.5254 -0.6071  0.1089
 1054TIP3   OH224652   4.536   3.929   4.810 -0.6333  0.0995 -0.3205
 1054TIP3    H124653   4.595   3.865   4.769  0.8527  0.3268  1.3521
 1054TIP3    H224654   4.547   4.008   4.758  0.6581  0.1696  0.0245
 1055TIP3   OH224655   4.480   5.132  14.140  0.3155  0.2599  0.1856
 1055TIP3    H124656   4.533   5.140  14.219  1.4034 -1.1097 -0.3777
 1055TIP3    H224657   4.527   5.070  14.085 -0.9900  0.3343 -1.0797
 1056TIP3   OH224658   5.981   0.818   0.615 -0.6162  0.3086  0.2151
 1056TIP3    H124659   5.895   0.831   0.655 -0.0129  2.8085  0.8830
 1056TIP3    H224660   6.043   0.840   0.684  0.5313  0.0128 -0.7003
 1057TIP3   OH224661   0.349   3.452  12.216  0.6848  0.1689 -0.1190
 1057TIP3    H124662   0.385   3.521  12.273 -0.6467  1.6057 -0.9360
 1057TIP3    H224663   0.260   3.438  12.249 -0.4330  1.6313 -2.2524
 1058TIP3   OH224664   1.569   1.294  16.056 -0.2940 -0.0536 -0.2742
 1058TIP3    H124665   1.493   1.317  16.110  0.0784 -0.1748  0.3170
 1058TIP3    H224666   1.640   1.349  16.090  0.6398 -2.0503  1.2300
 1059TIP3   OH224667   1.572   4.308  14.848  0.3160  0.5337 -0.3026
 1059TIP3    H124668   1.576   4.251  14.925 -0.4748 -0.9866 -1.3294
 1059TIP3    H224669   1.480   4.309  14.824  0.5324  1.1206 -1.1441
 1060TIP3   OH224670   3.219   6.203  15.847 -0.3535  0.4030 -0.0833
 1060TIP3    H124671   3.227   6.268  15.777 -0.4615  0.4968 -0.0097
 1060TIP3    H224672   3.212   6.120  15.801  0.5109  0.3702 -0.1607
 1061TIP3   OH224673   3.343   5.779   2.752  0.4795 -0.4953 -0.3317
 1061TIP3    H124674   3.307   5.845   2.694  1.2979 -0.7978 -1.2123
 1061TIP3    H224675   3.326   5.696   2.708  1.4923 -0.7000 -0.3658
 1062TIP3   OH224676   1.367   1.901  13.052  0.6907 -0.0591  0.0776
 1062TIP3    H124677   1.414   1.981  13.074 -1.6878  1.9347 -1.4506
 1062TIP3    H224678   1.288   1.904  13.106 -1.1338  0.5746 -2.4356
 1063TIP3   OH224679   6.501   5.531  16.704 -0.4379 -0.1687 -0.6007
 1063TIP3    H124680   6.502   5.448  16.656  2.3461 -0.3278 -0.4319
 1063TIP3    H224681   6.473   5.508  16.793 -0.3165 -0.8085 -0.7262
 1064TIP3   OH224682   3.549   5.942  12.888 -0.0338 -0.1818 -0.0149
 1064TIP3    H124683   3.557   5.912  12.797  1.4354 -1.2949  0.4511
 1064TIP3    H224684   3.461   5.915  12.914  0.3974 -2.0781 -0.3555
 1065TIP3   OH224685   1.985   2.416  15.670 -0.4472 -0.3190 -0.3994
 1065TIP3    H124686   1.970   2.500  15.714  1.0906 -0.5320  0.6330
 1065TIP3    H224687   1.898   2.381  15.654 -1.0991  0.3364  1.4638
 1066TIP3   OH224688   6.633   0.243  12.260 -0.3516 -0.3230 -0.0929
 1066TIP3    H124689   6.553   0.296  12.256  0.0637  0.2982 -0.3626
 1066TIP3    H224690   6.603   0.153  12.246 -1.1545 -0.2544  1.0193
 1067TIP3   OH224691   6.423   2.342   1.594  0.2862  0.1242  0.3100
 1067TIP3    H124692   6.362   2.333   1.667  2.3629  1.3792  2.3153
 1067TIP3    H224693   6.380   2.403   1.534 -0.7762  0.3327  1.2524
 1068TIP3   OH224694   2.765   4.090  16.151 -0.0274 -0.2292  0.1870
 1068TIP3    H124695   2.811   4.131  16.078 -2.5401  2.4785 -0.0874
 1068TIP3    H224696   2.810   4.123  16.229  0.4560 -0.2442 -0.0780
 1069TIP3   OH224697   1.186   1.673  11.564 -0.3666 -0.3188 -0.0640
 1069TIP3    H124698   1.271   1.687  11.606  0.2365  1.4240 -1.7516
 1069TIP3    H224699   1.165   1.756  11.522 -2.4753 -1.0010 -0.4952
 1070TIP3   OH224700   5.498   1.197   6.223  0.0127  0.7921 -0.0369
 1070TIP3    H124701   5.517   1.103   6.219 -1.8498  0.3944 -2.2398
 1070TIP3    H224702   5.529   1.225   6.309 -0.0972 -2.0201  1.0230
 1071TIP3   OH224703   2.245   4.599   4.398  0.6734 -0.0566  0.0920
 1071TIP3    H124704   2.328   4.553   4.381 -0.1554 -0.4971 -3.6944
 1071TIP3    H224705   2.177   4.534   4.380 -0.6463  0.2696  3.2081
 1072TIP3   OH224706   2.488   1.728   4.514 -0.0844  0.4149  0.0697
 1072TIP3    H124707   2.513   1.691   4.429  1.3291  1.6121 -0.0636
 1072TIP3    H224708   2.568   1.728   4.566 -0.3561  1.9894  0.5313
 1073TIP3   OH224709   2.025   5.424  14.066 -0.5076  0.0758  0.1693
 1073TIP3    H124710   2.078   5.478  14.007 -2.8612 -0.2378 -2.4494
 1073TIP3    H224711   1.949   5.478  14.087 -1.6133 -1.2106 -0.3484
 1074TIP3   OH224712   2.879   6.828  16.236 -0.0074 -0.3871 -0.2711
 1074TIP3    H124713   2.917   6.740  16.240  3.1525  0.8002 -0.5499
 1074TIP3    H224714   2.897   6.867  16.321 -2.8225 -0.4436  0.4364
 1075TIP3   OH224715   1.778   2.395  14.295 -0.4697 -0.3698  0.2225
 1075TIP3    H124716   1.843   2.336  14.256 -0.4618  0.2253 -0.7133
 1075TIP3    H224717   1.828   2.473  14.318 -0.6963 -0.2577  0.3338
 1076TIP3   OH224718   3.707   3.700  15.789 -0.2835  0.1457 -0.0381
 1076TIP3    H124719   3.741   3.611  15.794 -2.0988 -0.6578 -1.0490
 1076TIP3    H224720   3.711   3.722  15.696 -0.9197  0.6754  0.0504
 1077TIP3   OH224721   4.654   4.360   0.358 -0.2880 -0.3166 -0.1198
 1077TIP3    H124722   4.662   4.452   0.332  0.8556 -0.5312 -0.5924
 1077TIP3    H224723   4.575   4.357   0.412  0.4183  1.2395  1.0994
 1078TIP3   OH224724   3.352   1.201  13.216  0.5062  0.0359  0.1194
 1078TIP3    H124725   3.332   1.128  13.274  0.6991 -0.0322  0.0995
 1078TIP3    H224726   3.445   1.191  13.194  0.1746 -0.5900 -1.1030
 1079TIP3   OH224727   4.838   4.042  13.500 -0.1528  0.7275 -0.8614
 1079TIP3    H124728   4.930   4.021  13.489  0.3931  3.2792 -1.7355
 1079TIP3    H224729   4.795   3.999  13.426  0.0868 -1.3343  0.1008
 1080TIP3   OH224730   5.151   2.900  10.219 -0.3811  0.1211  0.4028
 1080TIP3    H124731   5.075   2.884  10.164 -1.5067 -2.0810  2.4058
 1080TIP3    H224732   5.118   2.955  10.290  0.0022 -0.4026  0.9992
 1081TIP3   OH224733   3.577   5.277   0.987 -0.0435 -0.3651 -0.5160
 1081TIP3    H124734   3.482   5.269   0.976 -0.0307 -0.0187 -0.9043
 1081TIP3    H224735   3.600   5.358   0.940  0.5852 -0.9500 -1.2381
 1082TIP3   OH224736   4.166   4.913  12.257  0.5208 -0.2127  0.2085
 1082TIP3    H124737   4.116   4.865  12.192  2.4425 -1.0536 -0.7226
 1082TIP3    H224738   4.160   4.861  12.337  0.2621 -0.5150 -0.0101
 1083TIP3   OH224739   1.830   6.725   0.592 -0.2753 -0.5000  0.2008
 1083TIP3    H124740   1.884   6.661   0.639 -0.7517 -0.4250  0.8562
 1083TIP3    H224741   1.761   6.673   0.551  2.7310 -1.3557 -4.6069
 1084TIP3   OH224742   2.564   5.675  14.045  0.5405 -0.3161 -0.4074
 1084TIP3    H124743   2.555   5.596  13.991  0.6981 -0.1876 -0.6254
 1084TIP3    H224744   2.638   5.721  14.007  1.8916 -1.1574  1.0987
 1085TIP3   OH224745   2.168   0.906   4.210  0.0179 -0.3504  0.0836
 1085TIP3    H124746   2.181   0.838   4.276  0.2293 -2.6033 -2.1241
 1085TIP3    H224747   2.073   0.908   4.195  0.0622 -0.5426 -0.2286
 1086TIP3   OH224748   6.726   2.006  13.527 -0.1458 -0.1233 -0.0137
 1086TIP3    H124749   6.747   1.922  13.568  1.4714 -0.5787 -1.6719
 1086TIP3    H224750   6.734   2.069  13.599  2.4587 -0.9089  0.4854
 1087TIP3   OH224751   4.870   3.321  13.936 -0.0675 -0.9190  0.4575
 1087TIP3    H124752   4.829   3.392  13.886  0.7050  0.6844  2.0057
 1087TIP3    H224753   4.957   3.312  13.896  0.3913  0.0664  1.2066
 1088TIP3   OH224754   0.546   5.582  17.091  0.5584 -0.3212  0.3662
 1088TIP3    H124755   0.633   5.622  17.089  0.6816 -0.4974  1.4632
 1088TIP3    H224756   0.488   5.652  17.118  0.0302  0.2867 -2.1023
 1089TIP3   OH224757   6.378   5.657   3.031  0.5825 -0.7276  0.2225
 1089TIP3    H124758   6.406   5.716   3.100  3.2765 -0.9712 -0.5358
 1089TIP3    H224759   6.343   5.581   3.078  2.0539 -0.7566  1.3766
 1090TIP3   OH224760   1.920   6.009   2.032  0.2197  0.3153  0.0449
 1090TIP3    H124761   1.857   6.059   1.980  0.3377  0.2172 -0.1901
 1090TIP3    H224762   1.868   5.977   2.106 -0.8275 -2.4421 -1.7438
 1091TIP3   OH224763   0.444   0.055   0.714  0.0224  0.0708  0.6925
 1091TIP3    H124764   0.474   0.118   0.649  2.8660 -2.2083 -0.4626
 1091TIP3    H224765   0.518   0.044   0.773 -1.3020 -0.3899  2.3575
 1092TIP3   OH224766   2.820   1.615  13.745 -0.0119 -0.1092 -0.2785
 1092TIP3    H124767   2.799   1.541  13.688 -0.6738 -0.2231  0.1000
 1092TIP3    H224768   2.826   1.577  13.832  4.5195 -0.6081 -0.5888
 1093TIP3   OH224769   4.017   3.938  11.492 -0.6690  0.2084 -0.2089
 1093TIP3    H124770   4.072   3.860  11.500 -1.6354 -0.3287  2.1071
 1093TIP3    H224771   3.928   3.905  11.485 -1.2056  1.0283  1.8841
 1094TIP3   OH224772   4.357   0.252  15.872  0.9275  0.3534  0.3719
 1094TIP3    H124773   4.406   0.325  15.836  1.0464  0.4313  0.6853
 1094TIP3    H224774   4.267   0.283  15.877  0.7129 -0.0105 -0.8085
 1095TIP3   OH224775   5.679   6.434   2.826 -0.2201  0.3230  0.2121
 1095TIP3    H124776   5.701   6.471   2.912  1.1477 -1.5228  0.7324
 1095TIP3    H224777   5.763   6.426   2.782 -0.6344 -0.8208 -0.4088
 1096TIP3   OH224778   5.354   5.006  16.858 -0.0519 -0.5051  0.4709
 1096TIP3    H124779   5.360   5.004  16.763 -2.1390  2.2058  0.1690
 1096TIP3    H224780   5.421   5.069  16.886 -2.6473  2.6545  0.1897
 1097TIP3   OH224781   5.345   0.596  16.033  0.4230 -0.1896  0.0211
 1097TIP3    H124782   5.368   0.616  16.124 -0.8594  1.3262  0.0596
 1097TIP3    H224783   5.422   0.623  15.982  1.3842 -1.5895  0.6603
 1098TIP3   OH224784   0.487   4.814   5.854 -0.1402  0.1289  0.4063
 1098TIP3    H124785   0.412   4.775   5.810  1.2360 -3.8880  1.1833
 1098TIP3    H224786   0.474   4.794   5.947  0.0473  2.9158  1.1177
 1099TIP3   OH224787   3.009   2.770  10.295 -0.0816  0.1150  0.3626
 1099TIP3    H124788   2.951   2.831  10.248 -1.2570 -1.2563 -0.0417
 1099TIP3    H224789   3.024   2.812  10.379 -0.7832  1.0212  0.0579
 1100TIP3   OH224790   3.660   4.786   6.093 -0.3293  0.0100  0.0267
 1100TIP3    H124791   3.609   4.831   6.161  1.0222  1.3044  0.2272
 1100TIP3    H224792   3.746   4.827   6.096  0.2102 -0.9178 -1.4956
 1101TIP3   OH224793   3.916   5.455  16.380  0.2119  0.4242  0.7806
 1101TIP3    H124794   3.993   5.512  16.380  0.3108  0.3123 -0.3022
 1101TIP3    H224795   3.947   5.373  16.344 -0.3102  0.2225  0.7813
 1102TIP3   OH224796   4.385   2.232  13.570 -0.2245 -0.1447  0.6299
 1102TIP3    H124797   4.379   2.246  13.476 -0.0244 -0.7869  0.5160
 1102TIP3    H224798   4.342   2.308  13.609  0.3593  0.4944  0.0430
 1103TIP3   OH224799   2.080   1.809   6.204  0.1113  0.7369  0.2473
 1103TIP3    H124800   2.027   1.751   6.259  0.0309  1.4257  0.9194
 1103TIP3    H224801   2.028   1.889   6.197  0.2091  0.7401 -0.6837
 1104TIP3   OH224802   6.142   4.653  12.366  0.1857  0.2890 -0.4793
 1104TIP3    H124803   6.090   4.593  12.312 -2.2262  1.6208  0.2134
 1104TIP3    H224804   6.090   4.665  12.445  0.6004  3.2017 -0.5493
 1105TIP3   OH224805   2.936   4.811   2.690 -0.0131 -0.7314  0.9640
 1105TIP3    H124806   2.929   4.905   2.705  0.3449 -0.4443 -0.4588
 1105TIP3    H224807   2.850   4.787   2.654  1.1316 -0.0835 -2.5821
 1106TIP3   OH224808   3.142   6.630  16.099  0.1070  0.4110 -0.1725
 1106TIP3    H124809   3.167   6.542  16.069 -0.9357  0.2481 -0.6466
 1106TIP3    H224810   3.158   6.629  16.193  1.5835  0.2499 -0.4043
 1107TIP3   OH224811   1.403   1.100  13.309  0.0486  0.2853 -0.2525
 1107TIP3    H124812   1.421   1.015  13.349  0.8289 -0.4329 -2.0257
 1107TIP3    H224813   1.464   1.160  13.351  0.5922 -0.3740 -0.0844
 1108TIP3   OH224814   2.119   3.373   3.049 -0.2020 -0.1989 -0.0743
 1108TIP3    H124815   2.142   3.372   2.956  0.9691 -0.4498  0.2011
 1108TIP3    H224816   2.030   3.337   3.052 -0.3281 -0.0072 -1.1098
 1109TIP3   OH224817   3.147   4.911  13.467  0.0669 -0.0622 -0.2486
 1109TIP3    H124818   3.178   4.841  13.409 -0.4583  0.2844 -0.9531
 1109TIP3    H224819   3.066   4.878  13.505 -1.0539  0.7710 -1.8198
 1110TIP3   OH224820   0.906   0.340  12.974 -0.1153 -0.0722 -0.0553
 1110TIP3    H124821   0.994   0.307  12.957  0.2550 -0.0786  1.6891
 1110TIP3    H224822   0.852   0.261  12.986 -0.0566 -0.0716  0.2293
 1111TIP3   OH224823   3.683   3.201   2.683  0.6872 -0.0638 -0.5421
 1111TIP3    H124824   3.754   3.207   2.748  0.5590  0.6368 -0.4522
 1111TIP3    H224825   3.627   3.131   2.715  1.0574 -0.2667 -0.3268
 1112TIP3   OH224826   2.686   2.300   0.240 -0.2701 -0.0049 -0.0593
 1112TIP3    H124827   2.767   2.290   0.191  0.0298 -0.1341  0.4591
 1112TIP3    H224828   2.623   2.244   0.193 -0.2829  0.7224 -0.9310
 1113TIP3   OH224829   0.796   2.605  16.691 -0.3179  0.0590 -0.5194
 1113TIP3    H124830   0.823   2.604  16.599  0.7577 -0.3434 -0.2179
 1113TIP3    H224831   0.803   2.697  16.716 -2.3813  0.4864 -1.3027
 1114TIP3   OH224832   1.244   1.198   0.967 -0.2519 -0.7238  0.1720
 1114TIP3    H124833   1.224   1.276   0.915 -1.2253 -0.6286  0.6537
 1114TIP3    H224834   1.339   1.190   0.963 -0.1024  0.6786  0.3837
 1115TIP3   OH224835   4.792   2.610   4.092  0.1118 -0.0154 -0.2205
 1115TIP3    H124836   4.834   2.696   4.098 -1.8691  0.9105  1.8593
 1115TIP3    H224837   4.741   2.615   4.011  1.3781  0.0557 -1.0501
 1116TIP3   OH224838   0.296   6.336   2.143  0.4406 -0.6072 -0.6449
 1116TIP3    H124839   0.359   6.394   2.186  0.4009 -0.4349 -0.8203
 1116TIP3    H224840   0.230   6.319   2.210 -1.4355  2.3327 -1.5630
 1117TIP3   OH224841   4.309   2.518  15.402 -0.3327  0.5069  0.3264
 1117TIP3    H124842   4.309   2.523  15.306  0.0225  0.0678  0.3030
 1117TIP3    H224843   4.216   2.522  15.426 -0.6405 -2.0896 -0.1941
 1118TIP3   OH224844   1.277   1.676   4.461 -0.2013  0.6557 -0.5831
 1118TIP3    H124845   1.304   1.585   4.472 -2.6041 -0.1630 -1.0062
 1118TIP3    H224846   1.275   1.689   4.366  0.2165  1.1946 -0.5241
 1119TIP3   OH224847   5.482   6.585  12.236 -0.2953 -0.5746  0.0674
 1119TIP3    H124848   5.386   6.582  12.232 -0.4762  2.0316  0.3872
 1119TIP3    H224849   5.504   6.541  12.318 -1.3151 -0.3275  0.4918
 1120TIP3   OH224850   1.795   5.583  14.013 -0.6496 -0.3066 -0.1927
 1120TIP3    H124851   1.793   5.633  13.932 -1.2562 -0.7946 -0.4876
 1120TIP3    H224852   1.803   5.649  14.082  0.7737  0.0645 -0.6802
 1121TIP3   OH224853   1.403   0.497  11.865  0.0676 -0.0091 -0.3231
 1121TIP3    H124854   1.427   0.420  11.918  3.5357 -0.2718 -2.0029
 1121TIP3    H224855   1.391   0.567  11.929 -0.2751 -1.2701  1.0667
 1122TIP3   OH224856   4.473   6.784  14.699  0.3623  0.2541 -0.5091
 1122TIP3    H124857   4.569   6.785  14.697  0.3789  1.5384 -0.2979
 1122TIP3    H224858   4.451   6.742  14.783  0.7812  1.1314  0.0578
 1123TIP3   OH224859   0.436   2.111  14.977  0.0273  0.2812  0.2150
 1123TIP3    H124860   0.400   2.024  14.991  0.7354 -0.1295 -0.4276
 1123TIP3    H224861   0.360   2.167  14.965 -0.4273 -0.5293 -0.8974
 1124TIP3   OH224862   5.487   6.107  16.592 -0.5926  0.3192 -0.5513
 1124TIP3    H124863   5.462   6.043  16.525 -0.5368  0.0159 -0.2798
 1124TIP3    H224864   5.441   6.187  16.566 -2.5322 -0.4393  0.3886
 1125TIP3   OH224865   2.395   5.442  15.853  0.4538 -1.1217 -0.2743
 1125TIP3    H124866   2.300   5.440  15.840  0.5426  0.1104 -1.3336
 1125TIP3    H224867   2.407   5.488  15.936  0.1260 -2.0145  0.2909
 1126TIP3   OH224868   2.893   0.349   5.534  0.4678 -0.2012 -0.0429
 1126TIP3    H124869   2.971   0.367   5.586 -0.4604  1.5795  0.8405
 1126TIP3    H224870   2.835   0.303   5.594 -0.2840  1.1210  0.2823
 1127TIP3   OH224871   6.309   5.420   0.557 -0.0915  0.2039  0.0065
 1127TIP3    H124872   6.283   5.394   0.469 -1.8720 -0.0100  0.5672
 1127TIP3    H224873   6.402   5.397   0.561 -0.2399 -0.8470 -1.4294
 1128TIP3   OH224874   4.952   2.951   1.232 -0.3405  0.0065 -0.2608
 1128TIP3    H124875   4.919   2.865   1.260 -0.0812  0.4002  1.3521
 1128TIP3    H224876   4.941   3.007   1.308  1.1835  0.9468 -0.6769
 1129TIP3   OH224877   2.859   0.330  13.874 -0.0105 -0.7747  0.0799
 1129TIP3    H124878   2.856   0.259  13.809 -0.9904 -1.2204  0.5847
 1129TIP3    H224879   2.919   0.394  13.836 -0.8243 -0.8530 -1.4564
 1130TIP3   OH224880   2.090   0.917  15.691 -0.3257 -0.1201  0.2203
 1130TIP3    H124881   2.042   0.839  15.720  0.4684 -0.2402  1.2791
 1130TIP3    H224882   2.182   0.898  15.711  0.1001  0.4023 -1.0966
 1131TIP3   OH224883   2.882   1.718   3.041 -0.8492  0.2684  0.4416
 1131TIP3    H124884   2.971   1.747   3.062 -0.6862  0.5306 -0.5372
 1131TIP3    H224885   2.889   1.623   3.031 -0.7597  0.2433  0.7274
 1132TIP3   OH224886   2.344   4.660   3.589 -0.4002  0.0443  0.3973
 1132TIP3    H124887   2.362   4.624   3.502  0.2851 -0.6068  0.8026
 1132TIP3    H224888   2.398   4.738   3.595  0.2058 -0.3842  0.5609
 1133TIP3   OH224889   4.374   2.012  14.796 -0.3848 -0.7569 -0.0304
 1133TIP3    H124890   4.460   2.026  14.836 -0.7788  0.5139  0.4177
 1133TIP3    H224891   4.312   2.019  14.868 -1.0536  0.9261 -0.7064
 1134TIP3   OH224892   4.941   5.136   2.808  0.1331 -0.1877 -0.5702
 1134TIP3    H124893   4.883   5.120   2.882  0.4932  1.3226  0.0760
 1134TIP3    H224894   4.924   5.064   2.747 -2.8983  0.5392 -0.7136
 1135TIP3   OH224895   6.637   1.614   3.150  0.5407 -0.5898  0.4334
 1135TIP3    H124896   6.630   1.700   3.109  1.4792 -1.0221 -0.6619
 1135TIP3    H224897   6.551   1.600   3.191  0.4481  0.9521  0.8331
 1136TIP3   OH224898   5.289   4.935   0.832 -0.6248  0.0786  0.4169
 1136TIP3    H124899   5.256   4.862   0.780 -1.3397  0.8255 -0.2023
 1136TIP3    H224900   5.280   5.012   0.775 -2.4366  1.1120  1.9432
 1137TIP3   OH224901   2.600   6.389  16.088  0.2609  0.8117 -0.0425
 1137TIP3    H124902   2.679   6.389  16.142 -0.2853  1.5630  0.7561
 1137TIP3    H224903   2.540   6.449  16.131 -1.0898 -0.3839 -0.1566
 1138TIP3   OH224904   4.366   2.503  12.451  0.5009  1.2060  0.2819
 1138TIP3    H124905   4.455   2.486  12.420  0.0794 -0.9085  0.0818
 1138TIP3    H224906   4.311   2.489  12.374 -0.0370  2.3996  0.4294
 1139TIP3   OH224907   6.127   6.779   2.750 -0.3160  0.0399  0.4302
 1139TIP3    H124908   6.058   6.787   2.816 -0.9992  0.3764 -0.3044
 1139TIP3    H224909   6.080   6.765   2.667  0.3704  2.4473 -0.4502
 1140TIP3   OH224910   4.080   5.072   4.885 -0.1070  0.2245 -0.6622
 1140TIP3    H124911   4.120   5.146   4.839 -0.5427 -0.7465 -2.7024
 1140TIP3    H224912   4.154   5.028   4.926  0.1254  1.9248  0.8952
 1141TIP3   OH224913   4.732   3.968  13.751  0.2391 -0.0907 -0.4720
 1141TIP3    H124914   4.737   4.057  13.785 -0.3560 -0.0487 -0.4962
 1141TIP3    H224915   4.771   3.973  13.664  0.5959  0.0537 -0.3087
 1142TIP3   OH224916   1.421   5.478  14.564 -0.2379 -0.0953 -0.1186
 1142TIP3    H124917   1.367   5.547  14.603 -0.8100 -1.1158  0.9560
 1142TIP3    H224918   1.388   5.470  14.474 -2.8871 -1.6066  0.8656
 1143TIP3   OH224919   4.137   6.799   1.198  0.4247 -0.2208 -0.0409
 1143TIP3    H124920   4.182   6.825   1.278 -1.2884  1.5187  0.4272
 1143TIP3    H224921   4.085   6.723   1.223  0.6277 -0.2675  0.2407
 1144TIP3   OH224922   2.791   4.545  12.247 -0.1216 -0.2137 -0.6765
 1144TIP3    H124923   2.882   4.520  12.265 -0.1101  0.5764  0.4906
 1144TIP3    H224924   2.788   4.639  12.267 -1.1316 -0.1818 -0.9434
 1145TIP3   OH224925   2.213   3.943   0.589  0.1501  0.5325  0.1828
 1145TIP3    H124926   2.247   3.925   0.677 -0.0290 -1.0518 -0.0419
 1145TIP3    H224927   2.287   3.929   0.531 -0.2648 -0.6478 -0.0966
 1146TIP3   OH224928   0.295   0.884  11.069  0.8704 -0.6116  0.6809
 1146TIP3    H124929   0.305   0.813  11.005  1.4933 -0.6922  0.8645
 1146TIP3    H224930   0.381   0.923  11.076  0.6874 -0.2711  1.0941
 1147TIP3   OH224931   5.784   3.324  15.890  0.4823  0.0627 -0.5301
 1147TIP3    H124932   5.849   3.387  15.923 -0.5764  0.9043  0.0222
 1147TIP3    H224933   5.835   3.245  15.870  1.3898 -0.0606  1.9243
 1148TIP3   OH224934   1.833   0.895   6.709  0.2844  0.5660  0.0366
 1148TIP3    H124935   1.852   0.978   6.666  0.0517  1.2835  1.2539
 1148TIP3    H224936   1.807   0.920   6.798  3.5371 -0.9816  1.5953
 1149TIP3   OH224937   0.318   2.490  10.616 -0.2507 -0.4050 -0.0388
 1149TIP3    H124938   0.361   2.575  10.625 -0.0684 -0.4373 -0.5526
 1149TIP3    H224939   0.237   2.498  10.667  0.7389 -0.6274  1.6522
 1150TIP3   OH224940   1.461   4.521   1.282  0.0742  0.4818 -0.4814
 1150TIP3    H124941   1.404   4.571   1.224 -0.6871  0.0064 -0.1686
 1150TIP3    H224942   1.516   4.586   1.325 -0.9382  1.0590 -0.0348
 1151TIP3   OH224943   4.135   2.252  11.450  0.4719 -0.8436  0.5183
 1151TIP3    H124944   4.077   2.190  11.406 -1.2364  1.4264 -0.6377
 1151TIP3    H224945   4.169   2.307  11.380 -0.1048  1.1296  1.6985
 1152TIP3   OH224946   1.617   0.401  16.667 -0.0646 -0.3049  0.2434
 1152TIP3    H124947   1.525   0.425  16.681 -0.0969  0.3609 -0.9677
 1152TIP3    H224948   1.667   0.478  16.694  0.0371 -0.1298 -0.4063
 1153TIP3   OH224949   3.935   2.367  14.190 -0.0602  0.3606  0.0279
 1153TIP3    H124950   4.019   2.325  14.207  0.0172  0.9223  1.0796
 1153TIP3    H224951   3.871   2.312  14.234 -0.2895 -0.1726 -0.9289
 1154TIP3   OH224952   6.582   0.754  10.585 -0.1323  0.2784 -1.0372
 1154TIP3    H124953   6.532   0.808  10.647  2.3252 -0.3920  1.7624
 1154TIP3    H224954   6.533   0.761  10.503 -2.0618  3.5329  0.1826
 1155TIP3   OH224955   2.468   4.742   1.420  0.0162 -0.2808 -0.0173
 1155TIP3    H124956   2.435   4.763   1.508 -1.8049  3.0758 -1.3139
 1155TIP3    H224957   2.531   4.813   1.402 -1.6399  0.7029 -2.3421
 1156TIP3   OH224958   5.629   3.152   5.331  0.0111  0.5046  0.4191
 1156TIP3    H124959   5.670   3.239   5.336  0.9918  0.0162  3.7253
 1156TIP3    H224960   5.692   3.098   5.283  0.1423  1.2414 -0.2589
 1157TIP3   OH224961   5.345   1.479  11.448  0.4202 -0.3769 -0.2758
 1157TIP3    H124962   5.348   1.469  11.543 -0.0291  0.2838 -0.1860
 1157TIP3    H224963   5.351   1.390  11.414  1.1478 -0.5841  0.3525
 1158TIP3   OH224964   3.354   5.016  14.216 -0.1754 -0.2827 -0.1527
 1158TIP3    H124965   3.383   5.106  14.227 -1.2967 -0.0705  1.3480
 1158TIP3    H224966   3.391   4.969  14.292 -1.1996 -0.6448  0.1386
 1159TIP3   OH224967   4.313   0.452   1.087 -0.5537  0.1765 -0.3196
 1159TIP3    H124968   4.262   0.477   1.010  1.3826 -0.3648 -1.8156
 1159TIP3    H224969   4.251   0.462   1.160 -2.1778  1.5483 -1.7987
 1160TIP3   OH224970   2.450   3.293  10.470 -0.2929  0.8415 -0.0079
 1160TIP3    H124971   2.513   3.307  10.540 -0.3216  0.5968  0.0674
 1160TIP3    H224972   2.430   3.381  10.437  1.8177  0.8316 -1.5636
 1161TIP3   OH224973   4.887   6.283  12.783 -0.4399 -0.3052  0.8220
 1161TIP3    H124974   4.936   6.243  12.854 -0.3159 -0.0194  0.8993
 1161TIP3    H224975   4.797   6.251  12.795 -0.2549 -0.9091  0.6196
 1162TIP3   OH224976   2.359   6.166  13.913  0.2334 -0.3398  0.8509
 1162TIP3    H124977   2.441   6.214  13.902  0.0368 -0.2948 -0.7313
 1162TIP3    H224978   2.384   6.083  13.953  1.2175 -0.7563 -0.5459
 1163TIP3   OH224979   5.229   3.042   5.180  0.0988 -0.4001  0.1210
 1163TIP3    H124980   5.205   3.104   5.249  0.9334 -0.3740  0.4008
 1163TIP3    H224981   5.149   2.992   5.165 -0.5690  0.6734 -0.0491
 1164TIP3   OH224982   6.377   0.442  15.814  0.2653 -0.3662  0.6512
 1164TIP3    H124983   6.381   0.442  15.719 -1.8522  0.0034  0.5263
 1164TIP3    H224984   6.360   0.351  15.838  0.0467 -0.3334  0.6238
 1165TIP3   OH224985   3.082   5.924   4.303  0.2876 -0.0948  0.5738
 1165TIP3    H124986   3.166   5.903   4.261 -0.6986 -1.6887 -0.7010
 1165TIP3    H224987   3.060   6.011   4.269  1.6002  0.5589  1.2842
 1166TIP3   OH224988   1.394   6.466  17.033  0.3305  0.3634 -0.2520
 1166TIP3    H124989   1.324   6.401  17.028 -1.5698  2.2962 -0.6799
 1166TIP3    H224990   1.470   6.424  16.993 -0.8881 -1.4761 -0.7238
 1167TIP3   OH224991   4.344   2.827  11.834  0.2349 -0.7487  0.1687
 1167TIP3    H124992   4.260   2.811  11.791  0.7458 -2.2340 -0.3009
 1167TIP3    H224993   4.359   2.921  11.821 -0.2425 -0.8976 -1.7528
 1168TIP3   OH224994   1.891   2.637  16.334  0.5224  0.6300  0.1201
 1168TIP3    H124995   1.809   2.589  16.336  0.5228  0.3447 -2.4631
 1168TIP3    H224996   1.951   2.585  16.388 -0.3067 -0.6131 -0.1066
 1169TIP3   OH224997   1.392   6.509   3.581 -0.0418  0.2733  0.5188
 1169TIP3    H124998   1.421   6.491   3.671 -1.1865  1.1553  1.1014
 1169TIP3    H224999   1.458   6.468   3.526  1.1642  0.4318  1.7700
 1170TIP3   OH225000   4.145   2.151  15.285 -0.0845  0.6010  0.1742
 1170TIP3    H125001   4.061   2.130  15.244  0.0728 -0.4107  0.3403
 1170TIP3    H225002   4.173   2.232  15.243 -1.0717  0.8763  0.0151
 1171TIP3   OH225003   6.096   6.487  15.612  0.2727 -0.3043 -0.5366
 1171TIP3    H125004   6.118   6.573  15.647  1.3616 -1.3820  1.5809
 1171TIP3    H225005   6.001   6.483  15.615  0.2779  0.1446  1.1861
 1172TIP3   OH225006   6.476   1.038   4.471 -0.4017  0.0061 -0.4053
 1172TIP3    H125007   6.441   1.122   4.441  0.3830  0.6871  0.5209
 1172TIP3    H225008   6.411   1.006   4.533  0.4225  1.1201  1.0802
 1173TIP3   OH225009   2.774   5.536  15.396 -0.5226 -0.2951 -0.2830
 1173TIP3    H125010   2.708   5.594  15.358 -0.9643 -0.1686  0.6434
 1173TIP3    H225011   2.830   5.594  15.448 -1.3085 -0.7466  1.1094
 1174TIP3   OH225012   4.310   5.852   5.955 -0.2635 -0.0901  0.1140
 1174TIP3    H125013   4.235   5.824   6.007 -0.6728  0.7867  0.0104
 1174TIP3    H225014   4.386   5.814   6.000 -0.6364  0.3707  1.1606
 1175TIP3   OH225015   2.422   6.330  15.041 -0.1248  0.0140 -0.2644
 1175TIP3    H125016   2.381   6.271  14.978 -1.0775  0.2474  0.1226
 1175TIP3    H225017   2.440   6.410  14.991 -1.9532  0.6369  0.0042
 1176TIP3   OH225018   1.071   5.168   3.855 -0.5284  0.7342  0.2639
 1176TIP3    H125019   0.978   5.164   3.875  0.0292 -0.3588  3.1705
 1176TIP3    H225020   1.094   5.260   3.865 -1.0128  0.7627  1.2110
 1177TIP3   OH225021   5.296   4.737  13.434  0.5107  0.0593  0.1804
 1177TIP3    H125022   5.333   4.818  13.469  0.3179  0.8568 -1.3758
 1177TIP3    H225023   5.204   4.758  13.417  0.7471 -0.0744 -1.3820
 1178TIP3   OH225024   6.145   0.664  14.730  0.0995  0.3592 -0.0966
 1178TIP3    H125025   6.160   0.691  14.821  2.1140 -1.1993  0.0929
 1178TIP3    H225026   6.057   0.695  14.711  0.0018  1.6392  2.0408
 1179TIP3   OH225027   1.176   2.268  11.292  0.4439  0.3484  0.8066
 1179TIP3    H125028   1.191   2.328  11.365  2.5634 -0.2786  0.9473
 1179TIP3    H225029   1.089   2.292  11.259  0.7199  2.7041  1.5763
 1180TIP3   OH225030   6.786   0.582   5.163  0.2395  0.2728  0.2804
 1180TIP3    H125031   6.860   0.542   5.207 -0.1802 -0.8038  0.0295
 1180TIP3    H225032   6.709   0.552   5.212 -0.1117  0.4257 -0.1681
 1181TIP3   OH225033   5.824   6.300  15.977  0.0371 -0.2121  0.3226
 1181TIP3    H125034   5.897   6.305  15.914  0.1332  1.6666  0.5407
 1181TIP3    H225035   5.867   6.279  16.061  0.4051  1.2820  0.5301
 1182TIP3   OH225036   2.456   5.968  11.167 -0.0510  0.2073 -0.2355
 1182TIP3    H125037   2.472   6.058  11.138 -3.1564  1.0201  0.2463
 1182TIP3    H225038   2.450   5.918  11.085  0.5013  0.6507 -0.5589
 1183TIP3   OH225039   0.216   4.343  13.621 -0.0609 -0.0059  0.0525
 1183TIP3    H125040   0.299   4.369  13.660 -0.5683  0.1718  1.0647
 1183TIP3    H225041   0.214   4.387  13.536 -0.1085  1.8910  0.9794
 1184TIP3   OH225042   5.048   3.264   1.670 -0.0853  0.0446  0.4327
 1184TIP3    H125043   5.003   3.339   1.706  0.8036  0.3595  0.9291
 1184TIP3    H225044   5.128   3.300   1.632 -0.3951 -0.4480 -0.7329
 1185TIP3   OH225045   0.198   4.863   5.304 -0.3435  0.1901 -0.0402
 1185TIP3    H125046   0.251   4.820   5.371  0.9543  0.9266 -0.5435
 1185TIP3    H225047   0.114   4.878   5.346  0.0842 -0.3433  1.0614
 1186TIP3   OH225048   1.720   2.575   1.358  0.0808  0.1027 -0.2465
 1186TIP3    H125049   1.668   2.538   1.287  0.0052  0.3829 -0.3378
 1186TIP3    H225050   1.683   2.537   1.437 -0.9623  1.1116 -0.2285
 1187TIP3   OH225051   5.709   2.008  13.869  0.1055  0.1322 -0.6213
 1187TIP3    H125052   5.663   1.935  13.911  0.8564  0.4644  0.8218
 1187TIP3    H225053   5.654   2.084  13.887  1.6264  0.7318  2.0590
 1188TIP3   OH225054   4.057   4.500  16.448 -0.1493 -0.1485 -0.3139
 1188TIP3    H125055   4.030   4.516  16.357  0.8387 -1.3077 -0.8245
 1188TIP3    H225056   4.143   4.541  16.455  0.1628 -0.8301 -0.1572
 1189TIP3   OH225057   6.762   6.508   4.681  0.3394 -0.6761 -0.2222
 1189TIP3    H125058   6.711   6.513   4.601  0.5357 -0.0976 -0.3146
 1189TIP3    H225059   6.697   6.496   4.750  0.0614  0.1795 -0.3261
 1190TIP3   OH225060   5.276   3.049   4.193 -0.5889  0.2689  0.5656
 1190TIP3    H125061   5.242   2.980   4.136 -0.4925 -1.2406  2.2636
 1190TIP3    H225062   5.198   3.091   4.229 -0.6453  0.9566 -0.3197
 1191TIP3   OH225063   1.268   6.661  13.891  0.1623  0.6090 -0.3549
 1191TIP3    H125064   1.342   6.692  13.839  0.9595  1.3782  1.1958
 1191TIP3    H225065   1.267   6.716  13.969 -1.4155 -0.0705  0.1585
 1192TIP3   OH225066   2.993   6.380  15.106  0.4944 -0.0411  0.2020
 1192TIP3    H125067   3.063   6.412  15.049 -0.9644  2.3393 -0.3689
 1192TIP3    H225068   3.015   6.415  15.193 -0.2551  1.2313 -0.0993
 1193TIP3   OH225069   3.747   5.621   0.168 -0.4475 -0.5871 -0.2876
 1193TIP3    H125070   3.751   5.677   0.246 -0.2930  0.1228 -0.7916
 1193TIP3    H225071   3.838   5.608   0.144 -0.4693 -1.3537  0.0244
 1194TIP3   OH225072   0.530   5.526  15.691 -0.2320 -0.1894 -0.3356
 1194TIP3    H125073   0.485   5.529  15.607 -0.2234  0.6455 -0.3221
 1194TIP3    H225074   0.599   5.461  15.680 -0.3123 -0.1755 -0.9324
 1195TIP3   OH225075   6.274   4.203   4.073  0.7779  0.3400 -0.0275
 1195TIP3    H125076   6.202   4.147   4.103  0.0630  0.9281 -0.6040
 1195TIP3    H225077   6.350   4.145   4.071  0.2826 -0.3432  0.4197
 1196TIP3   OH225078   6.088   3.339   0.247 -0.0599 -0.2012  0.2478
 1196TIP3    H125079   6.159   3.348   0.184 -0.3489 -1.5250 -0.2942
 1196TIP3    H225080   6.078   3.245   0.259 -1.7353 -0.0478  0.2834
 1197TIP3   OH225081   0.009   0.841  15.230 -0.0062  0.3122  0.0709
 1197TIP3    H125082   0.028   0.933  15.213  1.3574 -0.2632 -1.7600
 1197TIP3    H225083   0.049   0.794  15.157 -1.3438 -1.6870  0.5519
 1198TIP3   OH225084   5.928   6.646  15.385 -0.3661 -0.3650 -0.6184
 1198TIP3    H125085   6.019   6.676  15.388 -0.1562 -0.8776 -1.5159
 1198TIP3    H225086   5.935   6.553  15.365 -1.0304 -0.8595  1.2730
 1199TIP3   OH225087   0.392   0.751  12.733 -0.2266  0.5215  0.1900
 1199TIP3    H125088   0.463   0.704  12.776  0.2425  1.5978  0.6197
 1199TIP3    H225089   0.373   0.825  12.790  0.2207  1.8360 -1.2807
 1200TIP3   OH225090   0.293   3.202  13.019 -0.4367 -0.3280  0.0381
 1200TIP3    H125091   0.282   3.187  13.113  0.0373 -0.2609  0.1061
 1200TIP3    H225092   0.251   3.286  13.002  0.2480  0.0894  0.3558
 1201TIP3   OH225093   5.625   0.805  12.589 -0.6323 -0.0122 -0.0994
 1201TIP3    H125094   5.642   0.711  12.598 -1.9057 -0.1881  0.8103
 1201TIP3    H225095   5.674   0.845  12.661 -0.1760  0.0104 -0.4215
 1202TIP3   OH225096   3.089   0.664   0.527  0.4637 -0.2363 -0.1533
 1202TIP3    H125097   3.003   0.645   0.489  1.1345 -0.0698 -1.8383
 1202TIP3    H225098   3.091   0.614   0.609 -2.4371  2.1790  1.6216
 1203TIP3   OH225099   3.778   5.018   5.374 -0.5137  0.3432 -0.4836
 1203TIP3    H125100   3.755   5.011   5.466  0.1286  2.2829 -0.1461
 1203TIP3    H225101   3.764   5.110   5.352  2.0332  0.5542 -1.5668
 1204TIP3   OH225102   3.465   5.348   0.482 -0.0331  0.3757  0.6396
 1204TIP3    H125103   3.452   5.344   0.387 -1.4866  0.2641  0.8197
 1204TIP3    H225104   3.510   5.432   0.496 -0.0575  0.5267 -0.1204
 1205TIP3   OH225105   6.483   3.230   3.220  0.4142  0.0880 -0.0391
 1205TIP3    H125106   6.529   3.296   3.169 -0.9785  0.6814 -0.5789
 1205TIP3    H225107   6.437   3.177   3.155 -0.9611  0.5278  0.5259
 1206TIP3   OH225108   2.599   3.262  12.443 -0.0624  0.2797  0.4247
 1206TIP3    H125109   2.540   3.222  12.379  0.7097  1.4169 -1.0555
 1206TIP3    H225110   2.552   3.339  12.474 -0.1719  0.0856  0.7390
 1207TIP3   OH225111   6.357   4.573  11.213 -0.1386 -0.2518  0.3749
 1207TIP3    H125112   6.381   4.661  11.245  1.2301  0.2088 -1.7079
 1207TIP3    H225113   6.262   4.571  11.219 -0.1727  1.2151  0.8993
 1208TIP3   OH225114   0.711   5.599   1.455  0.4038 -0.2188 -0.2739
 1208TIP3    H125115   0.701   5.529   1.390  0.5709 -1.1806  0.7114
 1208TIP3    H225116   0.804   5.599   1.476  0.4505  0.4967 -0.4671
 1209TIP3   OH225117   0.836   5.901   5.652 -0.4065 -0.1240  0.0876
 1209TIP3    H125118   0.892   5.920   5.577 -0.5071  0.1293  0.0772
 1209TIP3    H225119   0.894   5.912   5.728  0.1461 -1.9688 -0.0148
 1210TIP3   OH225120   3.127   4.258  17.054  0.0760  0.4647  0.3585
 1210TIP3    H125121   3.162   4.267  17.142 -1.5576  0.3722  1.0481
 1210TIP3    H225122   3.198   4.219  17.003  0.2703 -1.7658  2.2028
 1211TIP3   OH225123   6.826   6.153  15.444  0.1969  0.4094  0.3989
 1211TIP3    H125124   6.769   6.156  15.367  2.2729 -1.8127 -1.3745
 1211TIP3    H225125   6.832   6.244  15.473 -1.8999  1.1001 -1.0848
 1212TIP3   OH225126   5.329   2.935  14.451 -0.3433  0.5593  0.0926
 1212TIP3    H125127   5.390   2.997  14.411  0.8298 -0.0359  0.9016
 1212TIP3    H225128   5.284   2.895  14.376  0.1314  1.1281 -0.5146
 1213TIP3   OH225129   1.614   1.688   6.342 -0.1872 -0.0829  0.1655
 1213TIP3    H125130   1.523   1.709   6.365 -0.7164  1.1423 -2.6535
 1213TIP3    H225131   1.618   1.592   6.346 -1.2532 -0.1042  1.4085
 1214TIP3   OH225132   1.359   6.376   2.898  0.2596  0.4869 -0.2529
 1214TIP3    H125133   1.277   6.406   2.860  0.2973 -1.4547 -2.1016
 1214TIP3    H225134   1.424   6.441   2.872 -0.5496  1.7275  0.7277
 1215TIP3   OH225135   4.846   4.395  10.498  0.0546 -0.0912 -0.1100
 1215TIP3    H125136   4.751   4.399  10.487  0.2139  2.3778 -1.1860
 1215TIP3    H225137   4.872   4.316  10.451 -1.3699 -0.3967 -0.4465
 1216TIP3   OH225138   3.674   2.513  16.930  0.2230 -0.2770 -0.1399
 1216TIP3    H125139   3.622   2.444  16.973  0.3316 -0.5258 -0.4053
 1216TIP3    H225140   3.650   2.507  16.838 -1.3835  1.4457  0.1015
 1217TIP3   OH225141   3.470   5.220   5.179 -0.6952 -0.4921 -0.8705
 1217TIP3    H125142   3.552   5.210   5.131  1.1572 -0.6700  2.0683
 1217TIP3    H225143   3.484   5.170   5.260 -2.7510  1.4693  0.8125
 1218TIP3   OH225144   1.998   0.170  13.348 -0.1650  0.3225  0.6628
 1218TIP3    H125145   2.006   0.202  13.258  2.5722  2.6753  1.5964
 1218TIP3    H225146   1.904   0.167  13.364 -0.7180  0.4172 -2.0303
 1219TIP3   OH225147   5.228   4.047   3.813 -0.1469 -0.3932  0.1567
 1219TIP3    H125148   5.284   4.074   3.885 -1.5411  0.0002  1.1277
 1219TIP3    H225149   5.192   3.963   3.841  0.0352 -0.7029 -0.5125
 1220TIP3   OH225150   6.295   5.749  12.651  0.4476  0.2740 -0.6699
 1220TIP3    H125151   6.322   5.671  12.604  1.5886 -0.7538  1.5530
 1220TIP3    H225152   6.233   5.717  12.717 -0.6594  1.5795 -1.0227
 1221TIP3   OH225153   2.382   6.496  14.788  0.3048 -0.1274  0.0375
 1221TIP3    H125154   2.306   6.551  14.769 -0.1183  0.2264  2.4498
 1221TIP3    H225155   2.428   6.489  14.704 -2.8624 -1.1876 -1.7839
 1222TIP3   OH225156   3.583   4.156  13.480 -0.3510  0.6392  0.4379
 1222TIP3    H125157   3.644   4.084  13.466  1.7271  2.5059 -0.8384
 1222TIP3    H225158   3.617   4.203  13.556 -0.3871  1.4849 -0.0530
 1223TIP3   OH225159   3.212   2.886  11.914 -0.8595  0.4195 -0.6803
 1223TIP3    H125160   3.228   2.897  12.007  0.1801  0.3730 -0.8495
 1223TIP3    H225161   3.159   2.806  11.908  0.4076 -0.4803 -0.2418
 1224TIP3   OH225162   1.314   1.273   5.642  0.3967 -0.1842 -0.0245
 1224TIP3    H125163   1.342   1.201   5.699 -1.3297 -0.8068  0.0891
 1224TIP3    H225164   1.239   1.238   5.594  1.6656  0.3881 -2.5887
 1225TIP3   OH225165   2.210   2.573   3.552  0.3700 -0.3100  0.6234
 1225TIP3    H125166   2.146   2.503   3.567  1.3478 -0.6576  3.8602
 1225TIP3    H225167   2.166   2.653   3.579 -0.2380  0.2120 -1.6937
 1226TIP3   OH225168   0.259   6.275   3.180 -0.4183 -0.2972 -0.1270
 1226TIP3    H125169   0.313   6.309   3.109  0.2455  1.4206  1.1565
 1226TIP3    H225170   0.172   6.266   3.141 -0.1765  1.0601 -1.0563
 1227TIP3   OH225171   1.363   0.738   1.823 -0.2398  0.5387  0.0727
 1227TIP3    H125172   1.377   0.789   1.902  0.8359 -0.9291  0.8551
 1227TIP3    H225173   1.400   0.652   1.841  0.3744  0.2571 -2.1488
 1228TIP3   OH225174   6.299   3.959  11.649  0.2599  0.4489  0.5356
 1228TIP3    H125175   6.218   3.983  11.604  0.9598 -1.1516 -1.7704
 1228TIP3    H225176   6.284   3.869  11.680  1.1748  0.0971 -0.0171
 1229TIP3   OH225177   3.652   4.246   3.238  0.4105  0.1319  0.2413
 1229TIP3    H125178   3.738   4.252   3.197 -0.1824  0.1136 -1.0494
 1229TIP3    H225179   3.625   4.155   3.226 -0.3516  0.4497 -0.5781
 1230TIP3   OH225180   5.054   6.012   4.322  0.3377 -0.0079 -0.2925
 1230TIP3    H125181   4.974   5.960   4.319 -0.4557  1.1668 -0.5522
 1230TIP3    H225182   5.125   5.949   4.313 -0.5625 -1.0718 -0.1205
 1231TIP3   OH225183   2.042   6.134  11.183  0.5165  0.0134  0.3960
 1231TIP3    H125184   2.086   6.065  11.233  1.9209  0.6461  0.0708
 1231TIP3    H225185   2.103   6.208  11.185 -1.4998  1.7592  1.8795
 1232TIP3   OH225186   2.008   3.954   2.788 -0.2190 -0.7016  0.1254
 1232TIP3    H125187   1.981   4.033   2.835  1.0519  1.2718 -2.2072
 1232TIP3    H225188   1.963   3.960   2.703  3.8543  0.5385 -2.2422
 1233TIP3   OH225189   0.396   5.706  11.477  0.1714 -0.3627 -0.1105
 1233TIP3    H125190   0.455   5.638  11.443 -0.8125 -1.8246  0.9750
 1233TIP3    H225191   0.351   5.664  11.551 -1.6183  0.9742 -0.3716
 1234TIP3   OH225192   2.059   4.315   3.124  0.1879 -0.5856  0.0259
 1234TIP3    H125193   2.073   4.328   3.218  1.2135  0.1641 -0.2096
 1234TIP3    H225194   2.061   4.403   3.087 -0.9594 -0.8134 -0.6123
 1235TIP3   OH225195   4.864   6.743   6.643  0.7979 -0.1231 -0.4122
 1235TIP3    H125196   4.941   6.704   6.602  0.2170 -0.1596 -1.5251
 1235TIP3    H225197   4.810   6.772   6.569  0.0468  0.4868  0.3540
 1236TIP3   OH225198   5.994   5.598  12.027  0.1566  0.2696  0.0411
 1236TIP3    H125199   6.001   5.649  11.947  2.7898  0.8987  0.5920
 1236TIP3    H225200   6.080   5.603  12.067 -0.5509 -1.5632  2.0102
 1237TIP3   OH225201   3.284   4.608  12.775  0.2622 -0.2667  0.7052
 1237TIP3    H125202   3.221   4.656  12.721  0.4214  0.2586  0.9818
 1237TIP3    H225203   3.340   4.562  12.712  0.5557  0.4774  0.4091
 1238TIP3   OH225204   4.619   4.963  13.311  0.1436 -0.0130  0.0610
 1238TIP3    H125205   4.638   5.044  13.264  1.7672 -0.7940 -0.7127
 1238TIP3    H225206   4.680   4.899  13.274 -0.9774 -1.5541  0.7689
 1239TIP3   OH225207   1.147   6.135  13.404  0.3466 -0.9288  0.3472
 1239TIP3    H125208   1.147   6.049  13.446  0.2586 -0.7711  0.6743
 1239TIP3    H225209   1.145   6.116  13.310  1.1744 -1.2919  0.3968
 1240TIP3   OH225210   5.515   0.794  12.328 -0.1549  0.2054  0.2542
 1240TIP3    H125211   5.531   0.842  12.410  0.3742  1.2277 -0.4240
 1240TIP3    H225212   5.574   0.834  12.265 -1.6913  0.5536 -1.0350
 1241TIP3   OH225213   5.150   4.200  10.492  0.3001 -0.3235 -0.4207
 1241TIP3    H125214   5.173   4.206  10.400 -1.9215 -1.5338 -1.1311
 1241TIP3    H225215   5.097   4.120  10.498  0.1596 -0.1219  1.8503
 1242TIP3   OH225216   6.307   6.358   3.547 -0.1118 -0.0505 -0.1976
 1242TIP3    H125217   6.232   6.300   3.566  0.3718 -0.5044  0.3745
 1242TIP3    H225218   6.368   6.341   3.619  0.9140 -0.3204 -1.1112
 1243TIP3   OH225219   2.215   4.702  16.576  0.1840  0.1457 -0.0913
 1243TIP3    H125220   2.156   4.644  16.527  1.1984 -0.4930 -0.5854
 1243TIP3    H225221   2.290   4.715  16.518  0.7372  0.6039  0.7006
 1244TIP3   OH225222   6.662   3.846  15.500  0.2513 -0.1382 -0.4296
 1244TIP3    H125223   6.648   3.817  15.590 -0.3943  2.1280  0.2852
 1244TIP3    H225224   6.757   3.844  15.488  0.3344 -0.5620  0.2553
 1245TIP3   OH225225   5.192   2.971  16.802 -0.1094 -0.0127  0.2219
 1245TIP3    H125226   5.203   2.923  16.884 -0.1790  0.9933  0.8360
 1245TIP3    H225227   5.235   3.055  16.817 -0.7887  0.4835 -0.4934
 1246TIP3   OH225228   5.476   1.178   4.638 -0.3634  0.0205 -0.0325
 1246TIP3    H125229   5.556   1.226   4.660  0.2925  0.2940 -2.7311
 1246TIP3    H225230   5.495   1.087   4.661  0.3293  0.2360  0.2622
 1247TIP3   OH225231   4.308   5.994   1.123  0.0551  0.0049 -0.4898
 1247TIP3    H125232   4.316   6.000   1.028  0.5588 -0.2321 -0.4656
 1247TIP3    H225233   4.353   5.913   1.146  0.1755  0.1995 -0.0253
 1248TIP3   OH225234   3.449   4.217  14.548  0.2309  0.0141 -0.3067
 1248TIP3    H125235   3.512   4.199  14.478 -0.2503  0.0782 -0.7596
 1248TIP3    H225236   3.367   4.179  14.517 -0.3890  1.4623 -0.5019
 1249TIP3   OH225237   1.944   6.652  11.188  0.1655 -0.2027  0.6409
 1249TIP3    H125238   1.944   6.716  11.259 -1.3633  0.2365  0.2590
 1249TIP3    H225239   1.997   6.692  11.119  1.3132 -0.4574  1.3407
 1250TIP3   OH225240   1.882   1.380   6.152  0.1542  0.8327  0.1996
 1250TIP3    H125241   1.866   1.329   6.232 -1.0456  1.6545  0.5081
 1250TIP3    H225242   1.811   1.355   6.093  1.1569  0.0665 -0.7177
 1251TIP3   OH225243   0.507   4.283  13.447  0.3451  0.1133 -0.3805
 1251TIP3    H125244   0.447   4.357  13.435  1.6615  1.0952 -1.3450
 1251TIP3    H225245   0.586   4.323  13.483  0.7254 -1.0091  0.0610
 1252TIP3   OH225246   0.792   6.234  13.880 -1.0618 -0.6038  0.1278
 1252TIP3    H125247   0.873   6.267  13.841 -0.5873 -3.4890 -1.6300
 1252TIP3    H225248   0.726   6.298  13.855  0.3621  0.9674  0.2061
 1253TIP3   OH225249   2.496   6.154   1.567  0.0987  0.0347  0.5339
 1253TIP3    H125250   2.557   6.085   1.592 -1.0233 -1.0895  0.2866
 1253TIP3    H225251   2.534   6.194   1.490 -0.4485 -2.0649 -0.9121
 1254TIP3   OH225252   3.028   3.744  12.449 -0.0885 -0.7775 -0.2221
 1254TIP3    H125253   3.055   3.826  12.491 -0.7465  0.2564 -1.7250
 1254TIP3    H225254   3.026   3.765  12.356 -1.5278 -2.1424 -0.5316
 1255TIP3   OH225255   4.265   5.813   0.125  0.0364 -0.0493 -0.0935
 1255TIP3    H125256   4.322   5.784   0.196  1.2523 -0.6029 -1.2318
 1255TIP3    H225257   4.319   5.875   0.076 -1.5810  2.1367  0.7430
 1256TIP3   OH225258   2.458   0.050   5.719 -1.1284  0.7931 -0.0943
 1256TIP3    H125259   2.362   0.056   5.727 -1.2153 -1.3751  1.6349
 1256TIP3    H225260   2.479  -0.037   5.753  1.7134  2.2497  2.3586
 1257TIP3   OH225261   2.644   3.556  16.260 -0.5124 -0.1708 -0.1059
 1257TIP3    H125262   2.694   3.631  16.292 -1.4818  0.1764  0.6450
 1257TIP3    H225263   2.658   3.557  16.165  1.5835 -0.6082  0.1525
 1258TIP3   OH225264   0.935   3.231   3.689 -0.1112 -0.2435  0.5211
 1258TIP3    H125265   1.003   3.263   3.630 -2.3794  0.3562 -1.9358
 1258TIP3    H225266   0.920   3.141   3.662 -0.1254 -0.4637  1.2375
 1259TIP3   OH225267   1.459   5.807   3.434  0.5203 -0.3898  0.0220
 1259TIP3    H125268   1.411   5.816   3.516  0.6239 -1.9488  0.2927
 1259TIP3    H225269   1.525   5.876   3.436 -1.3293  1.4650 -0.1181
 1260TIP3   OH225270   1.585   4.382  15.509  0.7224 -0.1019  0.2551
 1260TIP3    H125271   1.662   4.363  15.562 -0.0389 -0.2060  1.3442
 1260TIP3    H225272   1.572   4.302  15.458  2.1823  0.4419 -1.0506
 1261TIP3   OH225273   4.235   1.748   1.484  0.2376 -0.1708  0.1012
 1261TIP3    H125274   4.290   1.680   1.524 -0.8010 -0.9298  0.2972
 1261TIP3    H225275   4.146   1.723   1.507 -0.1380  1.7107  0.8178
 1262TIP3   OH225276   2.002   3.680  11.867 -0.3266  0.0783 -0.1000
 1262TIP3    H125277   1.988   3.747  11.800  0.7500  2.6281  2.0496
 1262TIP3    H225278   2.081   3.708  11.913 -0.5282 -2.0264  1.6966
 1263TIP3   OH225279   4.037   1.591   3.206 -0.0637 -0.5003 -0.0782
 1263TIP3    H125280   4.088   1.551   3.135 -1.6336 -1.6426 -0.6172
 1263TIP3    H225281   3.994   1.517   3.249 -1.0657  0.3922  0.5026
 1264TIP3   OH225282   1.626   5.343   1.849 -1.2047 -0.6912 -0.2278
 1264TIP3    H125283   1.535   5.355   1.876 -1.2148 -2.2088  0.5129
 1264TIP3    H225284   1.674   5.329   1.931 -0.1102  1.0089 -0.5171
 1265TIP3   OH225285   2.209   3.436  15.045  0.2577 -0.1740 -0.2575
 1265TIP3    H125286   2.298   3.415  15.075  1.1562  2.9946 -0.3459
 1265TIP3    H225287   2.174   3.494  15.112 -1.8297 -1.3476 -0.2356
 1266TIP3   OH225288   6.191   2.527  11.538  0.1443  1.1278 -0.1565
 1266TIP3    H125289   6.207   2.526  11.444  3.5710  0.7396  0.3067
 1266TIP3    H225290   6.265   2.575  11.575 -1.6743  2.2705  2.3086
 1267TIP3   OH225291   1.653   4.228   4.512 -0.2571 -0.8511  0.1699
 1267TIP3    H125292   1.607   4.146   4.526 -0.1805 -1.5658 -2.9691
 1267TIP3    H225293   1.740   4.215   4.551 -1.0354 -1.2711  1.8566
 1268TIP3   OH225294   1.351   5.259   4.983  0.5979 -0.2131  0.3893
 1268TIP3    H125295   1.361   5.311   5.063 -0.4945  2.7046 -1.2431
 1268TIP3    H225296   1.440   5.235   4.958  0.9134 -2.4871  3.1529
 1269TIP3   OH225297   5.762   0.775  11.580 -0.1654 -0.7312 -0.4941
 1269TIP3    H125298   5.815   0.707  11.622 -0.0688 -0.4685 -0.1926
 1269TIP3    H225299   5.741   0.836  11.650  0.3540 -0.0642 -0.9107
 1270TIP3   OH225300   3.693   6.352   1.871 -0.1694 -0.0015  0.3134
 1270TIP3    H125301   3.608   6.333   1.833  1.3813 -2.3567 -2.3912
 1270TIP3    H225302   3.690   6.312   1.958 -1.8713  0.1831  0.3606
 1271TIP3   OH225303   0.468   2.024   1.076 -0.1777  0.2260 -0.0527
 1271TIP3    H125304   0.396   2.050   1.133 -1.2184 -1.2125 -0.6560
 1271TIP3    H225305   0.533   1.985   1.135 -1.3218 -1.4179  0.1696
 1272TIP3   OH225306   4.656   3.237  12.644 -0.4872 -0.1543 -0.0034
 1272TIP3    H125307   4.572   3.198  12.666 -0.0030 -0.8604  0.6423
 1272TIP3    H225308   4.719   3.194  12.702  0.2075  0.9230  0.0764
 1273TIP3   OH225309   3.394   4.039  11.639 -0.4360 -0.9191 -0.8466
 1273TIP3    H125310   3.474   4.010  11.595 -0.2266 -1.2599 -0.2606
 1273TIP3    H225311   3.424   4.065  11.727 -0.7406  0.3705 -1.1085
 1274TIP3   OH225312   6.707   3.281  12.646 -0.9861  0.4316 -0.1720
 1274TIP3    H125313   6.643   3.348  12.670 -1.5151 -0.4006  0.8295
 1274TIP3    H225314   6.659   3.220  12.591 -0.9293  0.0620  0.1824
 1275TIP3   OH225315   3.108   2.350  12.160  0.6133 -0.2600 -0.4312
 1275TIP3    H125316   3.144   2.301  12.234 -0.0433 -0.1694 -0.0398
 1275TIP3    H225317   3.120   2.293  12.085  0.7433 -0.6094 -0.1465
 1276TIP3   OH225318   5.211   2.028   0.198  0.2237 -0.0511  0.3275
 1276TIP3    H125319   5.277   1.978   0.246 -0.7547 -0.3141  1.4558
 1276TIP3    H225320   5.180   2.093   0.261 -1.5489 -0.8249  0.3260
 1277TIP3   OH225321   1.789   4.706  14.198 -0.0762  0.3358 -0.5794
 1277TIP3    H125322   1.736   4.753  14.261 -0.0467  3.1003 -2.4242
 1277TIP3    H225323   1.879   4.732  14.219 -0.0394  0.9756 -1.4571
 1278TIP3   OH225324   2.120   0.330  17.109 -0.6443  0.3938  0.2069
 1278TIP3    H125325   2.057   0.370  17.049 -0.9984  2.0186  1.5729
 1278TIP3    H225326   2.197   0.314  17.056 -0.5186  2.8658 -0.5141
 1279TIP3   OH225327   0.413   5.021  15.274 -0.1783 -0.0449 -0.0828
 1279TIP3    H125328   0.373   5.093  15.322  0.8927  0.2204  0.4571
 1279TIP3    H225329   0.404   5.046  15.182  1.1669  1.3800  0.1166
 1280TIP3   OH225330   4.302   1.285  13.757  0.0604  0.4317 -0.3399
 1280TIP3    H125331   4.213   1.301  13.726  0.6396  0.1174 -2.2511
 1280TIP3    H225332   4.349   1.366  13.740  0.1908  0.5811  0.6269
 1281TIP3   OH225333   1.709   3.968  12.900 -0.2236 -0.0755  0.4172
 1281TIP3    H125334   1.719   3.874  12.887  0.2272 -0.2332  1.8035
 1281TIP3    H225335   1.792   3.996  12.938 -1.2587  0.3874  2.5054
 1282TIP3   OH225336   4.539   5.178   0.635 -0.1329  0.1623 -0.1838
 1282TIP3    H125337   4.506   5.192   0.546  0.4846 -0.1173 -0.4645
 1282TIP3    H225338   4.464   5.144   0.683 -0.0663 -1.2475 -1.0158
 1283TIP3   OH225339   3.032   2.812  13.665 -0.2523  0.2296 -0.4661
 1283TIP3    H125340   3.057   2.788  13.576 -2.2566 -0.6337 -0.8501
 1283TIP3    H225341   2.957   2.756  13.685 -1.9676  2.6980  0.5146
 1284TIP3   OH225342   0.208   3.133  15.005  0.2333 -0.0969  0.1258
 1284TIP3    H125343   0.136   3.154  14.947 -0.0443 -1.6516 -0.1356
 1284TIP3    H225344   0.235   3.045  14.980  0.4076 -0.6441  2.0217
 1285TIP3   OH225345   2.472   1.684   2.732 -0.4438 -0.1200  0.4276
 1285TIP3    H125346   2.459   1.754   2.668 -0.3017  0.1336  0.6713
 1285TIP3    H225347   2.564   1.690   2.757 -0.7806  0.6382  1.6126
 1286TIP3   OH225348   6.595   2.408  13.361 -0.2560  0.3038 -0.5368
 1286TIP3    H125349   6.591   2.442  13.272  1.2210  0.0269 -0.7397
 1286TIP3    H225350   6.543   2.328  13.359 -0.5978  0.5388 -1.0280
 1287TIP3   OH225351   0.995   4.092   3.907  0.4076 -0.3713 -0.0399
 1287TIP3    H125352   1.031   4.077   3.995  0.3201  1.1684  0.2871
 1287TIP3    H225353   0.923   4.153   3.921  0.5363  0.0760 -1.2083
 1288TIP3   OH225354   0.130   2.121   4.663 -0.1914 -0.2965  0.4391
 1288TIP3    H125355   0.210   2.159   4.700 -0.6261 -0.7117  1.8868
 1288TIP3    H225356   0.143   2.027   4.670 -0.0350 -0.4070 -1.0936
 1289TIP3   OH225357   6.463   4.671   4.817  0.0418 -0.2114  0.3573
 1289TIP3    H125358   6.374   4.702   4.833  0.3619  0.0586  1.7789
 1289TIP3    H225359   6.479   4.608   4.888  0.8177 -0.5963 -0.1493
 1290TIP3   OH225360   0.044   0.779  15.494  0.1070  0.0670  0.0778
 1290TIP3    H125361   0.135   0.751  15.483 -0.3096 -1.6711  0.7428
 1290TIP3    H225362   0.020   0.816  15.409  0.3507 -2.8307 -1.3639
 1291TIP3   OH225363   6.371   2.796  14.131  0.8043 -0.1256  0.3484
 1291TIP3    H125364   6.345   2.704  14.127 -1.2459  0.4204 -0.4413
 1291TIP3    H225365   6.288   2.844  14.135  1.8406  1.6729  1.4292
 1292TIP3   OH225366   4.557   0.157  13.531 -0.2113  0.1973 -0.5915
 1292TIP3    H125367   4.495   0.090  13.504  0.9535 -0.7720 -0.9825
 1292TIP3    H225368   4.613   0.170  13.454  0.2255  0.8716 -0.1749
 1293TIP3   OH225369   4.854   1.061   0.283 -0.0388  0.7879  0.5503
 1293TIP3    H125370   4.829   1.086   0.195 -0.8884  1.5244  0.9874
 1293TIP3    H225371   4.778   1.014   0.318  0.2745  0.5295  0.8991
 1294TIP3   OH225372   1.290   2.461   4.146  0.1493  0.2922 -0.6388
 1294TIP3    H125373   1.338   2.524   4.092  1.3903 -1.1237 -1.2528
 1294TIP3    H225374   1.210   2.443   4.097  0.5185  0.2121 -1.2113
 1295TIP3   OH225375   3.780   5.059   5.985 -0.4949 -0.1366 -0.2712
 1295TIP3    H125376   3.794   5.119   5.911 -0.6427 -0.3959 -0.5122
 1295TIP3    H225377   3.793   5.113   6.063 -1.1356  0.3425 -0.4824
 1296TIP3   OH225378   5.886   0.727  11.030 -0.2684 -0.0747 -0.4546
 1296TIP3    H125379   5.824   0.660  11.001 -0.9408  1.1799 -2.0892
 1296TIP3    H225380   5.860   0.747  11.120 -0.1728 -1.8201  0.0011
 1297TIP3   OH225381   4.641   0.750   3.145  0.5246  0.0514  0.5060
 1297TIP3    H125382   4.735   0.739   3.158  0.3944 -0.7765  0.8595
 1297TIP3    H225383   4.602   0.719   3.227 -0.1122 -0.9468 -0.1509
 1298TIP3   OH225384   0.662   4.833  15.795 -0.1697 -0.1349  0.1030
 1298TIP3    H125385   0.591   4.895  15.776  0.4158  0.2788 -0.8145
 1298TIP3    H225386   0.738   4.869  15.749  0.4923 -0.8840  0.5836
 1299TIP3   OH225387   3.228   2.225   0.405 -0.3652 -0.1121  0.1602
 1299TIP3    H125388   3.266   2.287   0.467  0.3417 -1.1112  0.7593
 1299TIP3    H225389   3.301   2.202   0.347 -0.8458  0.2892 -0.6025
 1300TIP3   OH225390   0.014   0.470   0.651  0.3201 -0.1915 -0.2269
 1300TIP3    H125391   0.081   0.434   0.710  0.7852  0.4387 -0.3591
 1300TIP3    H225392  -0.049   0.512   0.710  1.0714  0.9183 -0.1789
 1301TIP3   OH225393   1.527   5.240  11.381 -0.1239 -0.1262 -0.4630
 1301TIP3    H125394   1.454   5.185  11.353 -0.1497 -1.0300  1.2190
 1301TIP3    H225395   1.492   5.329  11.381 -1.0319 -0.4770 -0.2754
 1302TIP3   OH225396   0.321   2.167  14.501 -0.4193 -0.0978  0.7321
 1302TIP3    H125397   0.331   2.253  14.541  0.3455  0.3363 -0.3427
 1302TIP3    H225398   0.411   2.132  14.497 -0.7021 -0.8818  1.0131
 1303TIP3   OH225399   5.273   1.068   4.506 -0.2332  0.4787  0.1666
 1303TIP3    H125400   5.331   1.110   4.570 -2.0552  2.4445  0.6561
 1303TIP3    H225401   5.242   0.989   4.550  0.0120  0.8277  0.9882
 1304TIP3   OH225402   3.161   2.094   0.114  0.3854 -0.4208 -0.2651
 1304TIP3    H125403   3.241   2.049   0.086 -0.6076 -0.9486 -2.5572
 1304TIP3    H225404   3.090   2.035   0.087 -0.8463  1.0721 -0.4578
 1305TIP3   OH225405   5.745   5.068  13.255  0.4786 -0.1843  0.6237
 1305TIP3    H125406   5.760   4.974  13.254 -0.4817 -0.3512 -0.0220
 1305TIP3    H225407   5.652   5.078  13.234  0.7311  0.9326 -0.1055
 1306TIP3   OH225408   4.639   3.059   1.190  0.4687 -0.1725  0.5086
 1306TIP3    H125409   4.667   3.059   1.282 -1.1589 -0.3345  1.0359
 1306TIP3    H225410   4.659   3.147   1.159 -0.0162  0.2560  1.3720
 1307TIP3   OH225411   2.081   0.956   1.230 -0.0363  0.0363 -0.4067
 1307TIP3    H125412   2.143   0.979   1.161 -0.3303  0.2548 -0.6022
 1307TIP3    H225413   2.002   0.928   1.183 -0.6073  1.2007 -0.1657
 1308TIP3   OH225414   1.340   0.805  15.466 -0.2515  0.1641  0.3092
 1308TIP3    H125415   1.364   0.841  15.552  0.3370  0.8602 -0.1393
 1308TIP3    H225416   1.247   0.825  15.458 -0.5730 -0.8452  1.2300
 1309TIP3   OH225417   6.276   6.433   2.203 -0.4531  0.6076 -0.5164
 1309TIP3    H125418   6.250   6.417   2.113 -2.0147 -0.2645  0.0479
 1309TIP3    H225419   6.356   6.382   2.215 -1.3303 -0.9091 -0.8721
 1310TIP3   OH225420   3.459   6.360  14.460  0.3843 -0.1077 -0.2295
 1310TIP3    H125421   3.486   6.333  14.372  0.4388 -1.9167  0.2847
 1310TIP3    H225422   3.517   6.432  14.483  2.4074 -1.5572 -0.5539
 1311TIP3   OH225423   4.625   6.558   1.109  0.0252  0.1540 -0.1982
 1311TIP3    H125424   4.543   6.550   1.060  0.2912 -1.3328 -0.4616
 1311TIP3    H225425   4.598   6.594   1.194 -1.0131 -0.8984 -0.0445
 1312TIP3   OH225426   2.572   6.323  13.836  0.4317  0.0791 -0.0200
 1312TIP3    H125427   2.591   6.373  13.757  0.7172 -1.6902 -1.1115
 1312TIP3    H225428   2.657   6.285  13.861  0.6239  1.6413  1.9122
 1313TIP3   OH225429   4.300   6.535  11.406  0.0973  0.2837 -0.3103
 1313TIP3    H125430   4.241   6.609  11.396  0.5300  0.6872  0.0629
 1313TIP3    H225431   4.276   6.475  11.335 -1.8125 -0.2924  0.7469
 1314TIP3   OH225432   0.713   1.852  11.145 -0.0843  0.2152 -0.2055
 1314TIP3    H125433   0.622   1.829  11.123  0.2463 -2.2442  0.6206
 1314TIP3    H225434   0.730   1.804  11.226  2.5041 -0.8700 -1.2893
 1315TIP3   OH225435   2.662   5.761   2.412  0.0660  0.5844 -0.0660
 1315TIP3    H125436   2.722   5.835   2.422  0.5103  0.2430 -0.1824
 1315TIP3    H225437   2.591   5.795   2.359  0.1349  1.0049  0.1043
 1316TIP3   OH225438   3.533   4.927  16.107 -0.5335 -0.6878 -0.3042
 1316TIP3    H125439   3.534   5.013  16.149 -1.8974 -0.8226  0.0341
 1316TIP3    H225440   3.588   4.938  16.029 -0.6117  0.4641 -0.2147
 1317TIP3   OH225441   1.618   5.825  10.524  0.6745  0.4834  0.1454
 1317TIP3    H125442   1.622   5.907  10.573  0.9738 -0.5110  1.8457
 1317TIP3    H225443   1.708   5.809  10.497  0.6706  0.5310  0.1025
 1318TIP3   OH225444   4.130   1.346   2.421 -0.1293  0.0448  0.1603
 1318TIP3    H125445   4.155   1.254   2.431 -0.5398  0.0811  1.6593
 1318TIP3    H225446   4.160   1.389   2.501  0.6755  1.3898 -0.8040
 1319TIP3   OH225447   3.969   1.889   6.602  0.8999  0.1479 -0.2870
 1319TIP3    H125448   3.989   1.983   6.612 -0.1837  0.3316  0.3177
 1319TIP3    H225449   3.882   1.879   6.640  1.2268 -1.2160  0.1607
 1320TIP3   OH225450   5.454   0.232  16.067 -0.2685  0.2466  0.0095
 1320TIP3    H125451   5.444   0.163  16.133  0.2725  0.4955  0.3575
 1320TIP3    H225452   5.373   0.228  16.016 -0.4557 -0.3139  0.3424
 1321TIP3   OH225453   3.533   4.143  14.991  0.4522 -0.1565 -0.2308
 1321TIP3    H125454   3.499   4.199  15.061  0.3838 -0.2563 -0.1846
 1321TIP3    H225455   3.531   4.055  15.028  3.1060  0.0885  0.7135
 1322TIP3   OH225456   4.588   1.013   2.586  0.8518 -0.1588  0.2262
 1322TIP3    H125457   4.556   1.084   2.530  1.3196  1.0671  1.4559
 1322TIP3    H225458   4.672   1.043   2.619  2.7173 -2.7120 -1.7717
 1323TIP3   OH225459   3.442   6.690   4.750  0.0705  0.2382  0.2922
 1323TIP3    H125460   3.366   6.644   4.786 -0.2977  1.1052  0.6733
 1323TIP3    H225461   3.478   6.631   4.685 -0.6305 -0.4073  0.4772
 1324TIP3   OH225462   0.634   3.170  11.290  0.1268 -0.0783  0.0355
 1324TIP3    H125463   0.609   3.127  11.208 -0.0203  0.4267 -0.1872
 1324TIP3    H225464   0.632   3.100  11.355  0.9038 -0.6250 -0.5163
 1325TIP3   OH225465   2.667   2.614   2.352 -0.7924  0.5806 -0.6039
 1325TIP3    H125466   2.711   2.564   2.284 -1.5990 -2.5543  0.9991
 1325TIP3    H225467   2.574   2.608   2.331 -1.0370 -0.2469  0.6193
 1326TIP3   OH225468   2.659   3.362  13.584 -0.7950  0.0733  0.1110
 1326TIP3    H125469   2.661   3.457  13.579  1.0050  0.0574  0.0370
 1326TIP3    H225470   2.713   3.341  13.661  1.2127 -0.9449 -1.4818
 1327TIP3   OH225471   4.688   5.467  13.320 -0.1245  0.2185 -0.1166
 1327TIP3    H125472   4.779   5.495  13.331 -0.2661  0.3036  1.0467
 1327TIP3    H225473   4.652   5.527  13.256  0.6388  0.1859 -0.5888
 1328TIP3   OH225474   4.538   1.826   0.330  0.0202  0.1544 -0.3663
 1328TIP3    H125475   4.512   1.738   0.303 -0.3896  0.8698 -2.4777
 1328TIP3    H225476   4.477   1.848   0.400  0.8784 -1.6434  1.0475
 1329TIP3   OH225477   1.754   3.764  11.494 -0.2144  0.1175 -0.4297
 1329TIP3    H125478   1.813   3.765  11.419  0.1363 -3.1603 -0.3243
 1329TIP3    H225479   1.812   3.771  11.570 -0.1535 -0.6746 -0.3932
 1330TIP3   OH225480   5.635   4.904  11.745 -0.1372  0.1058 -0.1752
 1330TIP3    H125481   5.673   4.984  11.710  0.7365 -0.9988 -1.9078
 1330TIP3    H225482   5.711   4.850  11.768 -0.6751  0.4807  2.9054
 1331TIP3   OH225483   6.368   4.893  13.092  0.0635  0.1805  0.3586
 1331TIP3    H125484   6.376   4.958  13.161  3.3085  0.7665 -0.3868
 1331TIP3    H225485   6.458   4.871  13.069 -0.8970 -2.4176 -1.4580
 1332TIP3   OH225486   5.782   2.655  14.702 -0.1263  0.8485 -0.0128
 1332TIP3    H125487   5.752   2.737  14.664  0.8793  1.1437 -0.2214
 1332TIP3    H225488   5.876   2.654  14.685 -0.1540 -0.4541 -0.2063
 1333TIP3   OH225489   0.302   5.984   2.273  0.2467 -0.6907  0.0830
 1333TIP3    H125490   0.291   6.060   2.328  2.0032 -1.1310  1.1415
 1333TIP3    H225491   0.322   5.912   2.334 -0.7182 -1.8644 -0.9197
 1334TIP3   OH225492   5.500   5.861   2.512  0.3268  0.4774  0.6392
 1334TIP3    H125493   5.550   5.923   2.460 -0.2455 -0.8574 -1.6400
 1334TIP3    H225494   5.529   5.775   2.481 -1.7941 -0.3446  0.8160
 1335TIP3   OH225495   4.405   4.345   0.500  0.3963 -0.4280 -0.1060
 1335TIP3    H125496   4.310   4.348   0.486  0.4910  0.0128 -0.6955
 1335TIP3    H225497   4.421   4.257   0.533  0.0212 -1.2244 -1.9077
 1336TIP3   OH225498   2.249   2.381   3.830  0.3069  0.1069  0.1200
 1336TIP3    H125499   2.305   2.457   3.817 -0.1636  0.3937 -0.2809
 1336TIP3    H225500   2.175   2.413   3.880  0.1349 -0.1012  0.0017
 1337TIP3   OH225501   6.501   5.957  16.312 -0.1981 -0.1208 -0.1362
 1337TIP3    H125502   6.434   6.024  16.295 -1.7871 -1.1225  1.7475
 1337TIP3    H225503   6.546   5.987  16.391 -0.8207 -1.1495  0.6348
 1338TIP3   OH225504   2.611   0.402   3.549 -0.6196 -0.6412  0.1949
 1338TIP3    H125505   2.658   0.398   3.632 -1.0678 -0.5106  0.4611
 1338TIP3    H225506   2.649   0.332   3.496 -0.6805 -1.0627  0.6993
 1339TIP3   OH225507   1.380   2.117   0.654 -0.5959  0.2586  0.4126
 1339TIP3    H125508   1.336   2.036   0.628 -0.2358 -0.0781  0.8369
 1339TIP3    H225509   1.411   2.155   0.572  0.4157 -0.7231  0.3234
 1340TIP3   OH225510   4.978   5.294   3.103  0.2812  0.2626  0.1573
 1340TIP3    H125511   5.037   5.368   3.083  1.6131 -0.6649  0.5098
 1340TIP3    H225512   4.972   5.293   3.198  1.8023 -1.1752  0.2882
 1341TIP3   OH225513   5.924   6.331   2.065  0.6122 -0.7822 -0.1816
 1341TIP3    H125514   5.968   6.413   2.040  0.5007 -0.6150  0.1572
 1341TIP3    H225515   5.995   6.272   2.089  0.6498 -0.4319  0.6010
 1342TIP3   OH225516   5.729   2.994   4.150 -0.5792  0.1843  0.3760
 1342TIP3    H125517   5.807   2.980   4.203 -0.0783  1.5949  0.0408
 1342TIP3    H225518   5.672   2.920   4.172  1.0977 -1.2377  0.1402
 1343TIP3   OH225519   6.370   4.040  12.234 -0.3770  0.3080 -0.3328
 1343TIP3    H125520   6.333   3.958  12.201 -1.4495 -0.0026  1.4975
 1343TIP3    H225521   6.298   4.103  12.229 -0.5446  0.2770  1.2269
 1344TIP3   OH225522   4.793   2.399   5.652 -0.3484  0.0477  0.6792
 1344TIP3    H125523   4.880   2.408   5.690 -0.0815  0.1785  0.0595
 1344TIP3    H225524   4.733   2.403   5.726  0.1749 -0.0567  1.1126
 1345TIP3   OH225525   4.742   1.883   3.093 -0.0014 -0.0137  0.3237
 1345TIP3    H125526   4.684   1.846   3.026 -0.1198 -2.3203  1.5894
 1345TIP3    H225527   4.823   1.903   3.047 -0.5253 -0.3045 -0.7528
 1346TIP3   OH225528   3.705   2.461  14.570 -0.1757 -0.0129  0.2320
 1346TIP3    H125529   3.636   2.431  14.510 -0.2668  0.7930 -0.0672
 1346TIP3    H225530   3.666   2.532  14.619  0.8011  1.2759 -0.7824
 1347TIP3   OH225531   6.438   0.063   3.062  0.0271  0.2337  0.4937
 1347TIP3    H125532   6.508   0.028   3.007  0.9055  1.0050  1.0809
 1347TIP3    H225533   6.437   0.007   3.139 -0.3734 -0.0993  0.2521
 1348TIP3   OH225534   0.010   0.479  16.302 -0.1923 -0.0221  0.0973
 1348TIP3    H125535   0.098   0.449  16.321  0.4668  1.0954 -1.0782
 1348TIP3    H225536  -0.038   0.400  16.278  0.7371 -0.5035 -0.1940
 1349TIP3   OH225537   2.626   0.290   4.256 -0.2565  0.2743  0.4099
 1349TIP3    H125538   2.646   0.196   4.259  1.3481  0.5591 -0.2975
 1349TIP3    H225539   2.580   0.307   4.338  0.8698 -0.8382  1.3203
 1350TIP3   OH225540   5.388   3.767  16.175 -0.0154 -0.0804 -0.3030
 1350TIP3    H125541   5.460   3.716  16.213 -1.2252 -0.8577  1.0747
 1350TIP3    H225542   5.430   3.843  16.136  1.6090 -0.8553 -0.1482
 1351TIP3   OH225543   3.722   6.646  11.618  0.0971  0.1971  0.2076
 1351TIP3    H125544   3.764   6.616  11.538  1.8019 -1.1947  1.5609
 1351TIP3    H225545   3.777   6.717  11.650 -1.7344  2.2415 -0.8646
 1352TIP3   OH225546   6.303   0.475  11.778 -0.3292 -0.5674  0.3535
 1352TIP3    H125547   6.324   0.470  11.871  3.2456 -0.1128 -0.2654
 1352TIP3    H225548   6.377   0.432  11.735 -0.5684  1.4346 -2.3357
 1353TIP3   OH225549   2.062   5.754  14.274 -0.2652  0.3103  0.0324
 1353TIP3    H125550   2.038   5.694  14.344  0.7100  0.4824  0.5373
 1353TIP3    H225551   1.979   5.794  14.246 -0.9879 -1.5219 -0.5847
 1354TIP3   OH225552   5.072   0.886  14.223  0.0749  0.5072 -0.6243
 1354TIP3    H125553   5.076   0.791  14.234 -1.1212  0.3442 -1.3893
 1354TIP3    H225554   5.140   0.920  14.281  0.6998 -0.8264 -0.5446
 1355TIP3   OH225555   5.400   5.712  12.687  0.5215  0.3871 -0.4836
 1355TIP3    H125556   5.385   5.652  12.760  1.3388  0.7733  0.0211
 1355TIP3    H225557   5.495   5.720  12.682  0.5265 -0.5336 -2.3539
 1356TIP3   OH225558   3.281   6.453   5.945 -0.2633  0.0376 -0.3187
 1356TIP3    H125559   3.284   6.362   5.974 -0.0814 -0.6611 -2.3638
 1356TIP3    H225560   3.204   6.457   5.888 -0.2641  1.1739 -0.2484
 1357TIP3   OH225561   1.072   4.248   1.704  0.2007 -0.1113 -0.4708
 1357TIP3    H125562   1.146   4.242   1.765 -0.8570 -1.3530  0.7370
 1357TIP3    H225563   1.102   4.201   1.626  1.0675  0.3373 -0.4266
 1358TIP3   OH225564   4.830   5.920   6.724  0.1933  0.5949 -0.4195
 1358TIP3    H125565   4.900   5.872   6.768 -0.4401  0.5763  0.5968
 1358TIP3    H225566   4.780   5.853   6.677  0.0334  0.4196 -0.0027
 1359TIP3   OH225567   3.203   0.644   2.340 -0.1001 -0.1737  0.2561
 1359TIP3    H125568   3.195   0.622   2.432 -0.3270 -2.6410 -0.2966
 1359TIP3    H225569   3.114   0.639   2.306  0.3328 -2.6412 -0.7245
 1360TIP3   OH225570   3.851   2.412   4.657  0.5029  0.3556 -0.8112
 1360TIP3    H125571   3.921   2.392   4.595  0.2271  0.6580 -1.2241
 1360TIP3    H225572   3.887   2.484   4.709  0.8954 -0.1705 -0.3361
 1361TIP3   OH225573   4.423   6.139  13.223 -0.0811 -0.6684 -0.2378
 1361TIP3    H125574   4.506   6.110  13.184 -0.8528 -1.2691 -1.4802
 1361TIP3    H225575   4.412   6.083  13.300  0.5184 -0.7720 -0.2179
 1362TIP3   OH225576   2.787   1.920  10.625 -0.3583 -0.0649 -0.1043
 1362TIP3    H125577   2.798   1.985  10.557 -1.7653  0.5726  0.2492
 1362TIP3    H225578   2.866   1.867  10.620  0.1441  0.7580 -1.3652
 1363TIP3   OH225579   2.826   2.621  13.691  0.5123 -0.2211  0.0418
 1363TIP3    H125580   2.879   2.547  13.718  0.1888 -0.7113 -0.6414
 1363TIP3    H225581   2.795   2.598  13.603  1.2556  1.1619 -0.6203
 1364TIP3   OH225582   1.718   2.096  16.758 -0.2672  0.4093 -0.0108
 1364TIP3    H125583   1.659   2.156  16.803 -1.6713  0.0181 -1.2596
 1364TIP3    H225584   1.688   2.009  16.784  0.1779  0.2101 -0.1464
 1365TIP3   OH225585   3.455   3.097   0.118 -0.6544 -0.0388 -0.1298
 1365TIP3    H125586   3.366   3.115   0.086 -0.9258  2.6108  1.7340
 1365TIP3    H225587   3.446   3.014   0.166 -2.4293  0.6707  0.8866
 1366TIP3   OH225588   6.538   1.746  16.250  0.3441 -0.2775  0.0067
 1366TIP3    H125589   6.499   1.669  16.209 -0.3917  0.2026 -0.2248
 1366TIP3    H225590   6.569   1.715  16.335  1.2845 -1.1252 -0.6267
 1367TIP3   OH225591   6.272   5.678  16.706  0.6324  0.3340 -0.1613
 1367TIP3    H125592   6.215   5.604  16.688  0.6760  0.2701 -0.0382
 1367TIP3    H225593   6.358   5.639  16.720  0.8578  0.4833 -1.0300
 1368TIP3   OH225594   1.841   3.280  11.413  0.1469 -0.2046  0.6919
 1368TIP3    H125595   1.862   3.230  11.335 -1.3057 -0.8339  0.6775
 1368TIP3    H225596   1.747   3.268  11.426 -0.1733  2.0802  0.9966
 1369TIP3   OH225597   3.429   4.056   4.465 -0.2161 -0.1499 -0.8619
 1369TIP3    H125598   3.447   3.975   4.416 -1.1389 -0.0512 -1.3904
 1369TIP3    H225599   3.342   4.082   4.436 -0.4309  0.3754  0.2238
 1370TIP3   OH225600   3.690   3.323  15.213 -0.1508  0.1251 -0.2510
 1370TIP3    H125601   3.711   3.230  15.219 -1.5310 -0.2131 -0.2517
 1370TIP3    H225602   3.706   3.346  15.122  1.3684  0.2140  0.0106
 1371TIP3   OH225603   5.667   0.021   6.036 -0.6084 -0.0860  0.1418
 1371TIP3    H125604   5.670   0.113   6.065 -1.0812  0.1801 -0.6288
 1371TIP3    H225605   5.726   0.018   5.960 -0.1749 -0.5480  0.4905
 1372TIP3   OH225606   0.941   2.201  16.764  0.0061  0.2249  0.0819
 1372TIP3    H125607   0.894   2.197  16.848 -1.3197  0.0441 -0.6417
 1372TIP3    H225608   0.916   2.121  16.719 -0.3451  0.9236 -1.0079
 1373TIP3   OH225609   2.464   4.439  16.074  0.2615 -0.3444  0.2912
 1373TIP3    H125610   2.412   4.517  16.093 -0.1796 -1.0484  2.2280
 1373TIP3    H225611   2.546   4.454  16.120 -0.6050 -1.8563  2.4959
 1374TIP3   OH225612   5.573   0.734   0.293  0.0159  0.2900  0.5116
 1374TIP3    H125613   5.587   0.639   0.283 -2.2302 -0.0469  0.1256
 1374TIP3    H225614   5.536   0.762   0.210 -0.2363  1.3292  0.9586
 1375TIP3   OH225615   6.144   5.610   5.680  0.1253 -0.0650 -0.1526
 1375TIP3    H125616   6.197   5.618   5.760  0.8306 -4.3454  0.0118
 1375TIP3    H225617   6.054   5.616   5.712  0.4079  0.1855  0.6452
 1376TIP3   OH225618   5.988   0.571   5.526 -0.4152  0.4101  0.1821
 1376TIP3    H125619   5.911   0.623   5.551  0.0798  1.3852 -0.2258
 1376TIP3    H225620   5.952   0.490   5.490 -1.2124  0.3765  1.0133
 1377TIP3   OH225621   2.297   5.217   3.855  0.5913 -0.3211  0.1715
 1377TIP3    H125622   2.240   5.141   3.854  1.9264 -1.3880 -1.2152
 1377TIP3    H225623   2.259   5.277   3.790  1.1546 -1.1388 -0.9393
 1378TIP3   OH225624   1.199   4.074  12.207 -0.3734  0.0357 -0.1032
 1378TIP3    H125625   1.172   4.156  12.249 -1.6367  0.7626 -2.2057
 1378TIP3    H225626   1.291   4.064  12.232  0.1245  2.6227 -0.5484
 1379TIP3   OH225627   5.548   2.359   3.467  0.0752 -0.2544 -0.2066
 1379TIP3    H125628   5.593   2.444   3.463 -0.9491  0.2728 -0.8476
 1379TIP3    H225629   5.615   2.299   3.500  0.9310  0.7205 -0.0920
 1380TIP3   OH225630   6.517   2.316  13.047  0.6933  0.0146  0.2811
 1380TIP3    H125631   6.576   2.391  13.041  1.4500 -0.5613  0.4239
 1380TIP3    H225632   6.536   2.264  12.969  0.7818 -0.4586  0.6105
 1381TIP3   OH225633   6.765   0.387   2.100 -0.2530 -0.4738  0.2568
 1381TIP3    H125634   6.689   0.329   2.100  0.5640 -1.6056 -0.9020
 1381TIP3    H225635   6.793   0.391   2.191  0.0280 -2.4331  0.3034
 1382TIP3   OH225636   6.388   6.847   2.777  0.2608  0.4147 -0.1264
 1382TIP3    H125637   6.298   6.820   2.794  0.4346  0.0564  0.2627
 1382TIP3    H225638   6.400   6.925   2.831  0.4460 -0.0386  0.5008
 1383TIP3   OH225639   0.291   4.864   1.678 -0.0293 -0.4374  0.7365
 1383TIP3    H125640   0.228   4.907   1.621  0.6002  0.6353  0.8113
 1383TIP3    H225641   0.245   4.852   1.761 -0.6989 -1.3113  0.2485
 1384TIP3   OH225642   6.004   2.051   5.180 -0.3533 -0.3467 -0.3162
 1384TIP3    H125643   6.043   1.967   5.157  1.1924  0.1710  0.2211
 1384TIP3    H225644   6.003   2.052   5.276  0.0794  0.4086 -0.3074
 1385TIP3   OH225645   6.065   3.970  14.743  0.2644 -0.0667 -0.4241
 1385TIP3    H125646   6.029   3.915  14.673  0.5309 -0.6831 -0.0883
 1385TIP3    H225647   6.074   3.911  14.817  1.1008  0.2946 -0.2279
 1386TIP3   OH225648   1.108   4.568   4.762 -0.0427  0.0196  0.0438
 1386TIP3    H125649   1.176   4.566   4.829  1.4878  0.5908 -1.4210
 1386TIP3    H225650   1.064   4.652   4.774  1.7944  1.2142 -1.0717
 1387TIP3   OH225651   3.457   3.410   0.670  0.4621  0.4196  0.5255
 1387TIP3    H125652   3.419   3.413   0.758  0.6929 -2.2814  0.8025
 1387TIP3    H225653   3.468   3.316   0.652  2.1223  0.9599 -1.6584
 1388TIP3   OH225654   4.661   0.780  12.922 -0.0057  0.1914 -0.0624
 1388TIP3    H125655   4.715   0.857  12.940 -2.1230  1.7485  0.0180
 1388TIP3    H225656   4.657   0.733  13.006  0.3387  0.6217  0.1962
 1389TIP3   OH225657   0.480   2.844   1.411  0.1271 -0.4523 -0.3805
 1389TIP3    H125658   0.419   2.864   1.340  1.2735 -1.5438 -1.7249
 1389TIP3    H225659   0.540   2.919   1.413 -0.6653  0.1911  0.3413
 1390TIP3   OH225660   1.174   2.660  13.616  0.7181 -0.5578 -0.4705
 1390TIP3    H125661   1.118   2.671  13.539 -0.2881 -2.2104 -0.0318
 1390TIP3    H225662   1.171   2.745  13.659 -1.6552 -0.5926 -0.3932
 1391TIP3   OH225663   4.888   3.793   5.675  0.3896  0.5339  0.6264
 1391TIP3    H125664   4.862   3.702   5.693 -1.6406  1.1442  1.0806
 1391TIP3    H225665   4.967   3.806   5.726  1.2181 -1.2223 -0.1261
 1392TIP3   OH225666   3.955   4.343  14.683  0.0962 -0.0552  0.1694
 1392TIP3    H125667   3.973   4.309  14.595  2.1666  1.0900  0.0965
 1392TIP3    H225668   3.902   4.422  14.667  0.4175  0.1185 -0.0416
 1393TIP3   OH225669   2.177   2.429   4.846  0.1359  0.1703 -0.2306
 1393TIP3    H125670   2.086   2.427   4.875  0.2751 -1.5198  0.1993
 1393TIP3    H225671   2.173   2.466   4.757 -0.6876  2.1433  0.5735
 1394TIP3   OH225672   1.009   2.126   2.288 -0.6123  0.1035 -0.2738
 1394TIP3    H125673   0.970   2.087   2.210 -1.5394  0.3784  0.0369
 1394TIP3    H225674   1.103   2.118   2.274 -0.7660 -1.3788 -0.6500
 1395TIP3   OH225675   1.491   5.774   5.318  0.3049 -0.6551 -0.2689
 1395TIP3    H125676   1.418   5.797   5.375  1.1371 -0.3142  0.6909
 1395TIP3    H225677   1.456   5.784   5.229 -0.7642 -0.3590  0.1687
 1396TIP3   OH225678   1.468   2.940  13.129  0.2811  0.2202  0.3549
 1396TIP3    H125679   1.427   2.924  13.214  0.3665  2.2908  0.8371
 1396TIP3    H225680   1.557   2.967  13.150  0.3327  0.6517 -0.3773
 1397TIP3   OH225681   4.739   3.527  10.724 -0.4710 -0.2725  0.7541
 1397TIP3    H125682   4.753   3.478  10.643 -0.3949  1.2252 -0.1855
 1397TIP3    H225683   4.687   3.468  10.779  0.4434 -1.7624  0.0798
 1398TIP3   OH225684   6.620   1.009   1.867 -0.1883  0.8994 -0.5538
 1398TIP3    H125685   6.532   0.987   1.896 -1.3445  2.1749 -2.8231
 1398TIP3    H225686   6.631   1.102   1.889  0.4827  0.8137 -0.4935
 1399TIP3   OH225687   2.706   1.130   3.097 -0.4457  0.0486 -0.3358
 1399TIP3    H125688   2.612   1.127   3.116 -0.5523 -0.1884 -0.8721
 1399TIP3    H225689   2.741   1.052   3.140 -0.7051 -0.5549 -1.2033
 1400TIP3   OH225690   6.302   2.889  13.859 -0.6770 -0.4906 -0.5990
 1400TIP3    H125691   6.374   2.862  13.802 -0.1701 -0.1542 -0.1206
 1400TIP3    H225692   6.327   2.861  13.946 -0.1218  1.4626 -0.0767
 1401TIP3   OH225693   4.380   5.878   1.458 -0.1604 -0.3931  0.0884
 1401TIP3    H125694   4.410   5.968   1.473 -0.8818 -0.2103  0.5393
 1401TIP3    H225695   4.288   5.888   1.434 -0.0409 -0.9709 -0.6419
 1402TIP3   OH225696   1.429   0.801   1.314  0.1169  0.1268  0.4403
 1402TIP3    H125697   1.498   0.740   1.338  0.5813  0.5281  0.1339
 1402TIP3    H225698   1.451   0.830   1.226  0.1862  1.1260  0.7709
 1403TIP3   OH225699   3.450   2.359   3.575  0.1585  0.0432 -0.0237
 1403TIP3    H125700   3.438   2.423   3.645 -0.5961  0.3167 -0.3951
 1403TIP3    H225701   3.544   2.341   3.575  0.2102  0.2825  0.8444
 1404TIP3   OH225702   3.852   5.555   4.791 -0.6319 -0.3655  0.4830
 1404TIP3    H125703   3.799   5.481   4.762  0.1517 -1.0635  0.7714
 1404TIP3    H225704   3.789   5.621   4.819 -1.4864  0.4730 -2.9788
 1405TIP3   OH225705   3.684   6.393  14.798  0.2952  0.2565 -0.7637
 1405TIP3    H125706   3.593   6.420  14.780 -0.0971 -0.4740  0.0391
 1405TIP3    H225707   3.698   6.419  14.889  2.0129  3.3074 -1.7635
 1406TIP3   OH225708   5.798   4.410  11.623  0.4802 -0.5905  0.1826
 1406TIP3    H125709   5.893   4.418  11.620  0.6558 -0.7999  2.9047
 1406TIP3    H225710   5.781   4.317  11.640 -0.2403 -0.5971 -0.4806
 1407TIP3   OH225711   6.440   0.580  12.642 -0.3422  0.0901  0.5914
 1407TIP3    H125712   6.415   0.663  12.684  0.7515  1.4528 -1.2959
 1407TIP3    H225713   6.435   0.599  12.548 -1.3558 -2.4163  0.0803
 1408TIP3   OH225714   4.960   3.368   5.599 -0.0707 -0.4342 -0.4583
 1408TIP3    H125715   4.904   3.298   5.568  1.4353 -2.7892  1.7048
 1408TIP3    H225716   4.910   3.411   5.669 -0.3631 -0.4656 -0.6504
 1409TIP3   OH225717   5.537   3.392  16.045 -0.1939 -0.2821 -0.2516
 1409TIP3    H125718   5.580   3.448  16.110  0.3307  0.2379 -1.0323
 1409TIP3    H225719   5.609   3.355  15.994 -0.6341  0.0048 -1.0974
 1410TIP3   OH225720   4.369   0.728  12.251  0.3267 -0.2820 -0.3685
 1410TIP3    H125721   4.299   0.790  12.231  1.3501  1.6216  1.5676
 1410TIP3    H225722   4.450   0.778  12.242  1.3713 -2.0114 -1.0714
 1411TIP3   OH225723   3.250   6.168   1.828 -0.1017 -0.1706 -0.3335
 1411TIP3    H125724   3.338   6.177   1.790  0.9318 -1.1349  1.6457
 1411TIP3    H225725   3.217   6.085   1.793 -0.8586  0.8531 -2.1698
 1412TIP3   OH225726   6.125   6.376  12.526 -0.1650  0.5688  0.0841
 1412TIP3    H125727   6.136   6.423  12.608 -1.9767  1.2822 -0.0397
 1412TIP3    H225728   6.133   6.284  12.550  1.1700  0.8228  0.7136
 1413TIP3   OH225729   3.314   6.731   1.746  0.2180 -0.2688 -0.4419
 1413TIP3    H125730   3.327   6.636   1.747 -0.1461 -0.3281  1.0958
 1413TIP3    H225731   3.310   6.754   1.653  1.9427 -1.5086 -0.8678
 1414TIP3   OH225732   3.852   0.516   5.837 -0.1050  0.6119 -0.5985
 1414TIP3    H125733   3.768   0.531   5.794 -0.4220 -1.9275 -1.0200
 1414TIP3    H225734   3.831   0.464   5.914  1.0412  0.1747 -0.5540
 1415TIP3   OH225735   1.447   4.882  13.957  0.1835 -0.2887 -0.1811
 1415TIP3    H125736   1.389   4.888  13.881  0.2051 -1.4146 -0.3034
 1415TIP3    H225737   1.429   4.796  13.994  0.5276  0.0500  0.8074
 1416TIP3   OH225738   4.042   0.443   4.390  0.1510 -0.0838 -0.2192
 1416TIP3    H125739   3.969   0.477   4.441 -0.6254 -1.0658 -0.6583
 1416TIP3    H225740   4.086   0.381   4.448  0.6465  0.4900  0.0372
 1417TIP3   OH225741   6.273   0.505  16.713  0.1278  0.1221  0.3666
 1417TIP3    H125742   6.339   0.568  16.743 -0.0727  1.1222 -1.1401
 1417TIP3    H225743   6.298   0.486  16.622 -0.0374 -1.7332  0.6752
 1418TIP3   OH225744   4.546   1.098  12.340  0.0193  0.3001  0.0503
 1418TIP3    H125745   4.623   1.042  12.331 -1.2709 -1.3552 -1.5029
 1418TIP3    H225746   4.521   1.089  12.432  0.5031 -0.8094  0.0944
 1419TIP3   OH225747   4.825   4.068  12.480 -0.7782  0.1213 -0.6783
 1419TIP3    H125748   4.760   4.062  12.410 -0.2933 -0.3526 -1.0936
 1419TIP3    H225749   4.800   4.146  12.529 -0.8526  0.7294 -1.6603
 1420TIP3   OH225750   4.938   1.654   1.427 -0.3414 -0.3289 -0.4662
 1420TIP3    H125751   4.911   1.703   1.505  1.8976  0.5008 -0.1583
 1420TIP3    H225752   4.994   1.585   1.460  1.4889  0.6572 -1.3643
 1421TIP3   OH225753   0.462   2.106  12.598 -0.1377 -0.3972 -0.9211
 1421TIP3    H125754   0.443   2.106  12.692  0.3715  0.7168 -0.7945
 1421TIP3    H225755   0.551   2.071  12.592  0.7645  1.7010 -0.7221
 1422TIP3   OH225756   4.638   3.500   0.032 -0.4250 -0.3394 -0.4862
 1422TIP3    H125757   4.546   3.481   0.018 -0.1156 -2.2900 -0.1650
 1422TIP3    H225758   4.669   3.429   0.089  1.2194  0.4050 -0.3817
 1423TIP3   OH225759   3.009   0.428  12.327  1.0532  0.1792 -0.3944
 1423TIP3    H125760   2.975   0.493  12.266 -0.9880 -0.4394  0.0108
 1423TIP3    H225761   3.045   0.479  12.400 -0.9388  0.9026  0.1401
 1424TIP3   OH225762   4.101   1.126   1.753 -0.6896 -0.2695 -0.2897
 1424TIP3    H125763   4.100   1.128   1.848  0.0466 -1.7540 -0.2173
 1424TIP3    H225764   4.108   1.033   1.731  3.0914  0.1437 -1.6837
 1425TIP3   OH225765   4.082   3.317   4.738  0.0707  0.0026  0.1050
 1425TIP3    H125766   4.023   3.371   4.791 -2.1957 -0.3216 -1.9023
 1425TIP3    H225767   4.024   3.273   4.676  2.4949 -0.0721 -2.2839
 1426TIP3   OH225768   0.569   4.021  16.631  0.2368 -0.0368  0.4527
 1426TIP3    H125769   0.565   4.051  16.722  2.8000 -0.9041  0.9224
 1426TIP3    H225770   0.494   4.063  16.589 -1.2249  0.1320  3.0164
 1427TIP3   OH225771   1.736   5.990   3.278  0.1082  0.1325 -0.6683
 1427TIP3    H125772   1.812   5.935   3.299 -0.1423 -0.4575 -1.2655
 1427TIP3    H225773   1.774   6.077   3.262  0.3896  0.4286  1.3506
 1428TIP3   OH225774   4.481   6.221   4.211 -0.2807  0.3525 -0.3436
 1428TIP3    H125775   4.576   6.224   4.197 -0.0625 -1.9918  0.2420
 1428TIP3    H225776   4.445   6.198   4.125 -0.2861  0.7818 -0.4581
 1429TIP3   OH225777   5.965   1.798  10.563 -0.0128 -0.3764 -0.1492
 1429TIP3    H125778   5.898   1.748  10.515 -0.8735 -0.5695  1.2093
 1429TIP3    H225779   5.996   1.737  10.630 -0.6743  0.7123  1.1750
 1430TIP3   OH225780   6.626   2.107   2.450  0.2728 -0.7573  0.1442
 1430TIP3    H125781   6.704   2.151   2.415  0.9359 -2.6121 -0.8941
 1430TIP3    H225782   6.561   2.176   2.459  1.6942  0.6617 -0.0018
 1431TIP3   OH225783   0.488   6.812  13.156  0.0178  0.4586 -0.2324
 1431TIP3    H125784   0.564   6.762  13.127  1.9516  2.6349  0.7797
 1431TIP3    H225785   0.472   6.782  13.246 -1.0472 -0.7544 -0.8013
 1432TIP3   OH225786   0.627   0.630   1.498 -0.1659  0.0752  0.7481
 1432TIP3    H125787   0.602   0.552   1.448 -1.3869  0.2264  1.1022
 1432TIP3    H225788   0.661   0.691   1.432 -0.6724 -0.1684  0.2524
 1433TIP3   OH225789   2.256   3.332   2.810  0.5343  0.3274  0.0104
 1433TIP3    H125790   2.316   3.286   2.868 -0.9120 -0.2200  1.1232
 1433TIP3    H225791   2.281   3.303   2.722  0.4412 -1.6461  0.5912
 1434TIP3   OH225792   4.866   4.371   3.370  0.3349  0.1560 -0.6714
 1434TIP3    H125793   4.919   4.388   3.448 -1.0552  1.2680  0.0935
 1434TIP3    H225794   4.792   4.318   3.402  0.6992 -0.9694 -1.6167
 1435TIP3   OH225795   3.803   4.795   5.189 -0.0703 -0.0691  0.4665
 1435TIP3    H125796   3.782   4.874   5.238  0.2810 -0.7358  1.7404
 1435TIP3    H225797   3.805   4.823   5.097 -0.7552  1.2097  0.8216
 1436TIP3   OH225798   0.608   6.062   0.600  0.2074  0.2517  0.0666
 1436TIP3    H125799   0.671   6.026   0.537  0.6254 -0.9773  1.1519
 1436TIP3    H225800   0.662   6.112   0.662 -0.0165  0.1264  0.3610
 1437TIP3   OH225801   0.215   2.267  14.263  0.1631 -0.3631 -0.5232
 1437TIP3    H125802   0.267   2.268  14.344 -1.3306  0.5702  0.4742
 1437TIP3    H225803   0.216   2.175  14.236  3.2901 -0.2434 -1.2699
 1438TIP3   OH225804   0.816   6.088   5.035 -0.1341 -0.3104  0.3123
 1438TIP3    H125805   0.880   6.017   5.039 -1.4926 -1.6369 -0.5056
 1438TIP3    H225806   0.797   6.099   4.942 -1.7818 -0.6230  0.5807
 1439TIP3   OH225807   4.472   5.663   4.930 -0.6864 -0.0727 -0.0971
 1439TIP3    H125808   4.423   5.583   4.946  0.1187 -0.6649 -0.5654
 1439TIP3    H225809   4.564   5.636   4.927 -0.2034  1.1589  1.7128
 1440TIP3   OH225810   0.658   3.926   3.380 -0.7713 -0.4426  0.3510
 1440TIP3    H125811   0.565   3.936   3.401 -0.9743  1.9269 -1.2246
 1440TIP3    H225812   0.698   3.898   3.462 -2.6348  0.1165  1.5259
 1441TIP3   OH225813   6.152   5.203  13.129 -0.3214  0.4490 -0.1589
 1441TIP3    H125814   6.234   5.242  13.158  1.0113 -0.0824 -2.8522
 1441TIP3    H225815   6.145   5.121  13.179  1.5099 -0.1258 -0.7648
 1442TIP3   OH225816   5.192   3.884   2.377 -0.1177  0.1163 -0.1529
 1442TIP3    H125817   5.126   3.816   2.392 -1.6484  0.9538 -2.5197
 1442TIP3    H225818   5.264   3.837   2.334 -0.5204 -0.2758 -0.4168
 1443TIP3   OH225819   6.265   0.206  11.845  0.2319 -0.0007 -0.1116
 1443TIP3    H125820   6.179   0.164  11.848  0.1583  0.1144 -0.5359
 1443TIP3    H225821   6.319   0.155  11.905 -0.3381  0.3938  0.7587
 1444TIP3   OH225822   5.875   2.904  13.673 -0.2147 -0.1436  0.0740
 1444TIP3    H125823   5.908   2.917  13.762 -1.1969  0.8234  0.3165
 1444TIP3    H225824   5.797   2.958  13.669 -0.2145 -0.2313 -1.3696
 1445TIP3   OH225825   1.465   6.751   3.275  0.5082 -0.4211 -0.3862
 1445TIP3    H125826   1.481   6.705   3.357  0.1770 -1.9393 -1.1345
 1445TIP3    H225827   1.542   6.806   3.262  1.0768 -1.0360  0.3652
 1446TIP3   OH225828   4.130   1.050  15.907 -0.6750 -0.4874  0.1210
 1446TIP3    H125829   4.083   1.082  15.831  0.6159 -0.2957 -0.6166
 1446TIP3    H225830   4.132   0.955  15.895  0.2618 -0.3957 -0.5438
 1447TIP3   OH225831   4.933   4.919   5.305  0.2046 -0.4583 -0.1046
 1447TIP3    H125832   4.960   4.870   5.383 -1.8602 -2.1903 -0.3862
 1447TIP3    H225833   4.852   4.963   5.331  0.0131 -0.2639 -1.0074
 1448TIP3   OH225834   5.499   2.004  16.824  0.7146 -0.0950  0.1595
 1448TIP3    H125835   5.470   2.002  16.733 -0.8703 -0.0771  0.6452
 1448TIP3    H225836   5.530   2.094  16.838 -0.6735  0.4126  0.1059
 1449TIP3   OH225837   3.440   3.691   3.194 -0.2817  0.3953  0.1396
 1449TIP3    H125838   3.377   3.634   3.151 -2.1033  2.1401  0.3666
 1449TIP3    H225839   3.525   3.651   3.175 -1.3883 -1.8515 -0.4592
 1450TIP3   OH225840   1.946   4.781  10.495 -0.3005  0.1825  0.0320
 1450TIP3    H125841   2.003   4.816  10.563  1.1989  0.4376 -1.2985
 1450TIP3    H225842   1.998   4.711  10.454 -2.4316 -2.2929  1.2949
 1451TIP3   OH225843   3.524   6.563   0.675  0.1394 -0.4073  0.3960
 1451TIP3    H125844   3.460   6.526   0.613 -1.0147  0.3993  1.0786
 1451TIP3    H225845   3.566   6.486   0.715 -0.7887 -0.9598  0.3280
 1452TIP3   OH225846   6.166   6.508  12.109  0.8076  0.3889 -0.0869
 1452TIP3    H125847   6.130   6.587  12.148  0.7369  0.5978 -0.5703
 1452TIP3    H225848   6.255   6.531  12.086  0.8308  0.2821 -0.1039
 1453TIP3   OH225849   6.580   6.679  13.669  0.3296 -0.0012 -0.4089
 1453TIP3    H125850   6.541   6.650  13.751  0.4083 -1.3366 -0.8115
 1453TIP3    H225851   6.515   6.737  13.629  0.8522  1.7651  1.2043
 1454TIP3   OH225852   5.298   1.041  13.873  1.0266  0.0965  0.1664
 1454TIP3    H125853   5.345   0.970  13.829  1.5497  1.1286 -1.0051
 1454TIP3    H225854   5.263   1.001  13.953  1.2518 -1.4785 -0.4933
 1455TIP3   OH225855   1.229   2.204  12.525 -0.1628  0.6253 -0.0097
 1455TIP3    H125856   1.203   2.152  12.449 -0.8666  0.3344  0.4127
 1455TIP3    H225857   1.323   2.218  12.514 -0.2432  0.5276 -0.8898
 1456TIP3   OH225858   4.063   2.955   4.524 -0.4192  0.0095  0.0346
 1456TIP3    H125859   4.000   2.889   4.553 -0.3557  0.2913  0.8221
 1456TIP3    H225860   4.016   3.038   4.533 -0.3198  0.1208 -0.4578
 1457TIP3   OH225861   2.910   5.318   2.620 -0.4860  0.2157  0.2248
 1457TIP3    H125862   3.005   5.329   2.628 -0.4085 -0.4412  0.1911
 1457TIP3    H225863   2.874   5.391   2.671  0.0308  1.2155 -0.7730
 1458TIP3   OH225864   1.198   4.358  16.169 -0.1756  0.3523 -0.2833
 1458TIP3    H125865   1.115   4.404  16.161  0.1404  1.0050  0.0645
 1458TIP3    H225866   1.224   4.372  16.260  0.0824 -0.2519 -0.2604
 1459TIP3   OH225867   3.570   3.961   3.213  0.0521 -0.3343 -0.5359
 1459TIP3    H125868   3.521   3.879   3.205 -0.9899  0.3636 -1.6849
 1459TIP3    H225869   3.583   3.990   3.122 -0.2980  1.1646 -0.1347
 1460TIP3   OH225870   2.594   1.015   4.552  0.3354  0.1913  0.0090
 1460TIP3    H125871   2.654   0.983   4.485  0.1930 -0.7621  0.3172
 1460TIP3    H225872   2.644   1.081   4.600  0.2933  1.2089 -1.2833
 1461TIP3   OH225873   2.538   1.826  16.230 -0.6031  0.0577 -0.1740
 1461TIP3    H125874   2.617   1.781  16.200 -0.5000  0.8573 -1.1497
 1461TIP3    H225875   2.561   1.858  16.318  0.5070  1.0863 -0.8126
 1462TIP3   OH225876   0.884   0.307  16.815  0.2190 -0.1605  0.0333
 1462TIP3    H125877   0.881   0.399  16.788 -0.2213  0.0331  0.7131
 1462TIP3    H225878   0.933   0.307  16.897  1.0387 -0.6659 -0.4365
 1463TIP3   OH225879   5.767   0.828  15.578  0.0575 -0.1634  0.0564
 1463TIP3    H125880   5.841   0.823  15.517  0.6851 -0.1512  0.8025
 1463TIP3    H225881   5.717   0.905  15.549  0.6373  0.1505 -0.1244
 1464TIP3   OH225882   4.294   1.275   2.056 -0.4337 -0.5353 -0.1622
 1464TIP3    H125883   4.330   1.281   1.968  1.2418 -0.0342  0.5237
 1464TIP3    H225884   4.311   1.361   2.094 -1.6246 -0.5681  0.4901
 1465TIP3   OH225885   1.907   2.301   0.401 -0.5052  0.2813  0.0842
 1465TIP3    H125886   1.922   2.333   0.490  1.3858  1.7679 -0.6888
 1465TIP3    H225887   1.992   2.265   0.374 -1.1563 -0.5378 -0.9928
 1466TIP3   OH225888   0.933   5.621  12.548 -0.2970  0.2871 -0.7282
 1466TIP3    H125889   0.971   5.683  12.486  0.6557 -0.1159 -0.5726
 1466TIP3    H225890   0.893   5.554  12.493  1.2254 -0.4831 -0.9529
 1467TIP3   OH225891   6.642   3.232  17.095  0.1439 -0.3228 -0.1072
 1467TIP3    H125892   6.618   3.140  17.100 -3.7243  0.5534  3.5743
 1467TIP3    H225893   6.571   3.273  17.046  2.6994  0.6782 -3.2853
 1468TIP3   OH225894   1.502   3.893  13.668  0.1678  0.0727 -0.3170
 1468TIP3    H125895   1.464   3.968  13.623  3.4411  1.8589 -0.4563
 1468TIP3    H225896   1.572   3.930  13.722  1.1328 -2.7535  0.5666
 1469TIP3   OH225897   5.583   1.002   5.923 -0.5212 -0.9734 -0.0775
 1469TIP3    H125898   5.666   0.970   5.888 -0.5924 -1.6569  0.3481
 1469TIP3    H225899   5.517   0.947   5.883 -0.8169 -0.1513 -0.7401
 1470TIP3   OH225900   6.429   2.636  11.618 -0.1621  0.2235 -0.0163
 1470TIP3    H125901   6.496   2.703  11.633  0.6566 -0.7095  0.6278
 1470TIP3    H225902   6.462   2.586  11.543 -0.4781  0.1848 -0.1292
 1471TIP3   OH225903   4.340   0.966   4.311  0.6685  0.0079  0.2707
 1471TIP3    H125904   4.301   0.960   4.398  0.6057  0.6473  0.2966
 1471TIP3    H225905   4.408   1.033   4.320  2.0676 -1.3643  0.3261
 1472TIP3   OH225906   1.926   5.089  17.057  0.9615 -0.0122 -0.2300
 1472TIP3    H125907   1.985   5.083  16.982  0.1760 -0.2225 -0.8520
 1472TIP3    H225908   1.953   5.168  17.103  0.2212  1.2438 -1.8459
 1473TIP3   OH225909   4.168   0.652  16.919 -0.1100  0.3306  0.0380
 1473TIP3    H125910   4.112   0.645  16.842 -2.3433 -0.6304  1.6563
 1473TIP3    H225911   4.212   0.567  16.924  0.4888  0.6007 -0.4645
 1474TIP3   OH225912   0.654   6.374   1.477  0.0131 -0.2020  0.1075
 1474TIP3    H125913   0.576   6.351   1.427 -1.2178 -1.7106  2.5216
 1474TIP3    H225914   0.624   6.441   1.540  0.2353 -1.7304  1.9365
 1475TIP3   OH225915   0.712   0.663   6.042 -0.1000 -0.6959  0.1897
 1475TIP3    H125916   0.633   0.625   6.081  0.2440 -1.7353 -0.0957
 1475TIP3    H225917   0.681   0.710   5.965 -0.7005  0.7950  1.2876
 1476TIP3   OH225918   6.213   0.048  14.104  0.2946 -0.4302  0.0881
 1476TIP3    H125919   6.296   0.082  14.069  0.7341 -2.3450 -0.8781
 1476TIP3    H225920   6.151   0.119  14.091  1.4576  0.5233 -0.5169
 1477TIP3   OH225921   1.995   6.662   3.890 -0.0760 -0.2233  0.0045
 1477TIP3    H125922   2.071   6.643   3.945 -0.6054 -1.5654  0.3038
 1477TIP3    H225923   2.007   6.754   3.865  1.5817 -0.3704  0.1184
 1478TIP3   OH225924   1.018   3.581   3.351  0.1791  0.5444  0.2751
 1478TIP3    H125925   1.014   3.519   3.278  0.8324  1.4624 -0.5603
 1478TIP3    H225926   1.037   3.665   3.310 -0.0100  1.1787  1.4599
 1479TIP3   OH225927   4.498   2.734   0.873  0.4830  0.4366  0.2408
 1479TIP3    H125928   4.550   2.756   0.950  3.1283 -0.9384 -1.0240
 1479TIP3    H225929   4.480   2.641   0.882  0.0208  0.4615 -0.3699
 1480TIP3   OH225930   5.757   4.268   0.042 -0.2999 -0.2866  0.0248
 1480TIP3    H125931   5.837   4.270   0.095  0.0011  0.5789 -0.4458
 1480TIP3    H225932   5.690   4.306   0.099 -0.6968 -2.1096  0.8720
 1481TIP3   OH225933   1.128   4.016   6.093 -0.3663 -0.1339  0.1193
 1481TIP3    H125934   1.051   3.972   6.128 -0.6147 -0.7863 -1.1780
 1481TIP3    H225935   1.097   4.104   6.070 -0.6790 -0.3291 -0.2164
 1482TIP3   OH225936   3.667   5.267   3.508 -0.2862  0.5485  0.0171
 1482TIP3    H125937   3.611   5.274   3.430  1.8862  0.3668 -1.6823
 1482TIP3    H225938   3.675   5.173   3.523 -0.7770  0.5862  0.5376
 1483TIP3   OH225939   1.459   2.519  15.630  0.1386 -0.5290  0.6144
 1483TIP3    H125940   1.547   2.543  15.658  0.2623 -0.9973  0.6282
 1483TIP3    H225941   1.422   2.473  15.706 -0.0543 -0.4912  0.5430
 1484TIP3   OH225942   4.596   0.063  11.869 -0.0975  0.0223  0.6817
 1484TIP3    H125943   4.508   0.050  11.834 -0.7278  2.0618  1.3985
 1484TIP3    H225944   4.602   0.157  11.887  1.4713 -0.3627  2.5986
 1485TIP3   OH225945   1.976   5.792   4.282  0.2281 -0.5066  0.2936
 1485TIP3    H125946   1.987   5.878   4.324  0.5168 -0.2779 -0.2470
 1485TIP3    H225947   2.048   5.740   4.316  0.5648 -0.2688 -0.0489
 1486TIP3   OH225948   5.088   3.899  12.917 -0.4724 -0.3932 -0.2417
 1486TIP3    H125949   5.015   3.922  12.861  0.9908  4.8414 -0.5314
 1486TIP3    H225950   5.160   3.879  12.857 -0.3874 -0.4669 -0.1162
 1487TIP3   OH225951   0.958   4.056  16.752 -0.3984 -0.3450  0.0964
 1487TIP3    H125952   0.963   4.136  16.805  1.2041 -1.7804  2.2477
 1487TIP3    H225953   1.049   4.029  16.740 -0.7987 -0.9515 -2.1515
 1488TIP3   OH225954   3.718   0.730  16.357  0.1243  0.2213  0.7530
 1488TIP3    H125955   3.710   0.680  16.276 -0.4258  0.2278  0.7998
 1488TIP3    H225956   3.726   0.663  16.425  1.2610  0.2232  0.6324
 1489TIP3   OH225957   2.186   5.379   1.040  0.1145  0.3615 -0.0709
 1489TIP3    H125958   2.174   5.320   0.966 -1.9207 -0.8295  1.1200
 1489TIP3    H225959   2.273   5.357   1.074 -0.2260 -1.3163 -0.2080
 1490TIP3   OH225960   5.088   1.601   6.118  0.2081  0.5465  0.0896
 1490TIP3    H125961   5.120   1.689   6.134 -2.4651  2.0795 -2.1044
 1490TIP3    H225962   5.158   1.559   6.066  0.5757  2.2130 -0.8261
 1491TIP3   OH225963   5.746   3.388  13.175  0.3229  0.5526  0.4261
 1491TIP3    H125964   5.832   3.426  13.160  1.2065 -0.4999  2.4416
 1491TIP3    H225965   5.685   3.462  13.171  1.2684  1.3011 -1.0484
 1492TIP3   OH225966   2.123   0.653   5.921 -0.1410  0.0568  0.2852
 1492TIP3    H125967   2.118   0.688   6.009 -0.0888  0.4947  0.1157
 1492TIP3    H225968   2.216   0.650   5.901 -0.1645  0.1903  0.1527
 1493TIP3   OH225969   5.543   5.656  15.892  0.4895 -0.3391 -0.0059
 1493TIP3    H125970   5.572   5.566  15.910 -0.3929 -0.5256  0.5277
 1493TIP3    H225971   5.473   5.672  15.956 -1.2245 -0.2089 -1.8355
 1494TIP3   OH225972   5.433   1.106  12.528 -0.1426  0.0220 -0.1315
 1494TIP3    H125973   5.484   1.121  12.449 -0.5262  1.0565 -0.1997
 1494TIP3    H225974   5.465   1.172  12.590 -1.0706  0.3840 -0.0248
 1495TIP3   OH225975   3.576   1.996   0.995 -0.3591 -0.0107 -0.3658
 1495TIP3    H125976   3.592   2.050   1.072  1.1159 -0.1516 -0.5506
 1495TIP3    H225977   3.621   1.914   1.013  0.3661  0.0967 -1.5167
 1496TIP3   OH225978   2.446   2.359   6.629  0.3390 -0.1972  0.5300
 1496TIP3    H125979   2.366   2.378   6.579  1.8051 -0.3123 -2.0174
 1496TIP3    H225980   2.461   2.265   6.614  1.9952  0.2334 -0.7259
 1497TIP3   OH225981   0.852   4.948  15.637  0.1065 -0.4406 -0.8183
 1497TIP3    H125982   0.942   4.974  15.658 -0.2409 -0.1655  0.3884
 1497TIP3    H225983   0.820   5.017  15.578  0.2962  0.1140 -0.2856
 1498TIP3   OH225984   1.206   3.298   2.918 -0.2943 -0.2682  0.0261
 1498TIP3    H125985   1.118   3.271   2.891 -0.4054  0.8705 -0.8307
 1498TIP3    H225986   1.213   3.389   2.889  0.7083  0.0598  1.2168
 1499TIP3   OH225987   1.538   1.467   5.989 -0.0030 -0.5946  0.5986
 1499TIP3    H125988   1.474   1.461   6.060 -1.4019 -0.8622 -0.6395
 1499TIP3    H225989   1.577   1.380   5.985 -1.6055 -1.3122 -0.4323
 1500TIP3   OH225990   1.385   2.330   0.825  0.2858 -0.8254 -0.3474
 1500TIP3    H125991   1.371   2.243   0.786  0.4713 -0.2478 -1.7772
 1500TIP3    H225992   1.366   2.391   0.754  2.4396  0.2398 -0.0913
 1501TIP3   OH225993   4.327   1.666  15.031  0.2774  0.2052  0.5935
 1501TIP3    H125994   4.407   1.717  15.041  0.3743  0.0091  0.8239
 1501TIP3    H225995   4.342   1.613  14.952  0.8468 -0.6924  1.2916
 1502TIP3   OH225996   2.740   2.051  13.947 -0.1166 -0.4464 -0.2810
 1502TIP3    H125997   2.790   2.008  14.016 -1.5798 -0.2283  0.9578
 1502TIP3    H225998   2.754   1.996  13.869  0.2621 -1.6032  0.5757
 1503TIP3   OH225999   3.361   5.552   0.863  0.1391  0.2834 -0.7114
 1503TIP3    H126000   3.296   5.481   0.861 -1.8155  1.9339  0.7573
 1503TIP3    H226001   3.310   5.632   0.850  1.5918  1.7990  1.9731
 1504TIP3   OH226002   2.178   4.342   3.470  0.4528 -0.3952 -0.1511
 1504TIP3    H126003   2.252   4.281   3.459  0.9943 -0.0103  1.1207
 1504TIP3    H226004   2.215   4.428   3.448  0.1711 -0.3096 -0.2805
 1505TIP3   OH226005   4.619   3.290   4.927  0.0285  0.0140  0.2331
 1505TIP3    H126006   4.530   3.293   4.892  0.4193 -0.8678 -0.8979
 1505TIP3    H226007   4.644   3.381   4.938 -0.9453  0.2690  0.3839
 1506TIP3   OH226008   2.881   5.717   5.310  0.1260  0.1162 -0.0547
 1506TIP3    H126009   2.866   5.672   5.392 -0.9585 -0.0334 -0.3239
 1506TIP3    H226010   2.900   5.808   5.335  0.7938 -0.1410  0.3982
 1507TIP3   OH226011   4.708   1.980   4.689 -0.4681 -0.4572 -0.4208
 1507TIP3    H126012   4.703   1.959   4.595 -1.1127 -1.4907 -0.1638
 1507TIP3    H226013   4.683   1.899   4.733  2.7747 -0.9919  0.7291
 1508TIP3   OH226014   0.628   6.270  16.829 -0.5059 -0.4121  0.1012
 1508TIP3    H126015   0.695   6.276  16.761 -0.9603 -1.3752 -0.4559
 1508TIP3    H226016   0.554   6.228  16.786 -1.6592  1.0419  0.5736
 1509TIP3   OH226017   3.709   2.945   0.408 -0.8354 -0.4493 -0.0329
 1509TIP3    H126018   3.751   3.017   0.454 -1.0637  0.2831 -0.9373
 1509TIP3    H226019   3.678   2.983   0.326 -0.6462 -1.6570 -0.6947
 1510TIP3   OH226020   5.634   4.489  11.410 -0.9683  0.0915  0.5940
 1510TIP3    H126021   5.696   4.458  11.477 -0.7464 -1.6137 -0.3519
 1510TIP3    H226022   5.557   4.434  11.421 -0.4521 -1.0865 -1.3380
 1511TIP3   OH226023   4.425   4.633  10.443 -0.6301 -0.5713  0.1184
 1511TIP3    H126024   4.440   4.686  10.365  0.2207  0.0780  0.6910
 1511TIP3    H226025   4.360   4.683  10.493 -0.2602 -0.3493  0.3861
 1512TIP3   OH226026   3.674   1.368  15.192 -0.0037  0.7558  0.5165
 1512TIP3    H126027   3.618   1.442  15.213  0.0184  1.2977 -1.1809
 1512TIP3    H226028   3.762   1.398  15.215 -0.2664  0.2074  2.4011
 1513TIP3   OH226029   1.018   4.584  14.907  0.2324 -0.1900 -0.0779
 1513TIP3    H126030   0.959   4.557  14.837  1.7316 -0.8857 -1.1188
 1513TIP3    H226031   1.041   4.503  14.952  1.4926 -0.1470 -0.5975
 1514TIP3   OH226032   6.830   1.958  17.033  0.2970 -0.2706  0.8427
 1514TIP3    H126033   6.845   1.863  17.033  1.9569 -0.0413  0.8077
 1514TIP3    H226034   6.779   1.975  16.954  1.9652 -0.8891 -0.4347
 1515TIP3   OH226035   0.708   5.932  12.144  0.1456 -0.3422  0.1064
 1515TIP3    H126036   0.791   5.934  12.098 -0.0994 -0.3774 -0.3446
 1515TIP3    H226037   0.663   6.012  12.117  0.9379  0.8270  2.0878
 1516TIP3   OH226038   0.530   5.217  11.605 -0.3465 -0.8101  0.3327
 1516TIP3    H126039   0.480   5.247  11.530 -1.4464  0.9175  1.6973
 1516TIP3    H226040   0.465   5.204  11.675  0.7515 -1.4244  1.2919
 1517TIP3   OH226041   2.316   1.783  15.488 -0.3492  0.7351  0.0018
 1517TIP3    H126042   2.384   1.725  15.524 -0.3302  0.3910 -0.5767
 1517TIP3    H226043   2.289   1.837  15.562 -0.3174  0.0295  0.5433
 1518TIP3   OH226044   4.682   2.878  11.810 -0.2479  0.3087  0.3274
 1518TIP3    H126045   4.767   2.837  11.796 -0.2212  0.6383 -0.5449
 1518TIP3    H226046   4.641   2.827  11.879  0.4095 -0.2347  0.3160
 1519TIP3   OH226047   0.733   1.509  12.782  0.0456  0.2090  0.4267
 1519TIP3    H126048   0.656   1.518  12.838 -1.0431  1.1506 -1.1294
 1519TIP3    H226049   0.740   1.416  12.765 -0.4985  0.0745  0.9162
 1520TIP3   OH226050   5.841   5.527   2.175 -0.2333 -0.3497  0.0541
 1520TIP3    H126051   5.906   5.476   2.222  0.0329  0.1880  0.2758
 1520TIP3    H226052   5.800   5.465   2.115 -0.8759 -1.1577  1.2759
 1521TIP3   OH226053   6.205   5.527   4.307  0.6594  0.2600 -0.0664
 1521TIP3    H126054   6.206   5.433   4.326  1.1816  0.3083  0.1589
 1521TIP3    H226055   6.295   5.547   4.283  0.4845  0.6494 -0.4012
 1522TIP3   OH226056   5.461   3.566   6.459 -1.0095 -0.3877  0.0025
 1522TIP3    H126057   5.394   3.505   6.428 -0.8723 -0.1437 -0.7953
 1522TIP3    H226058   5.535   3.510   6.484 -0.7956 -0.5440 -0.9440
 1523TIP3   OH226059   2.143   5.025  11.144 -0.0479 -1.0736 -0.1155
 1523TIP3    H126060   2.091   4.957  11.187 -3.3381  0.6054 -1.0415
 1523TIP3    H226061   2.142   5.002  11.051 -0.6354 -0.1709 -0.3531
 1524TIP3   OH226062   3.663   0.255   1.689  0.1326 -0.4729 -0.3554
 1524TIP3    H126063   3.647   0.220   1.602 -0.8464  0.9861 -0.8087
 1524TIP3    H226064   3.575   0.270   1.725  0.5189 -1.2394  0.9635
 1525TIP3   OH226065   0.169   3.673   4.392 -0.0951 -0.3683 -0.7670
 1525TIP3    H126066   0.106   3.604   4.373  0.8814 -1.4323 -0.2581
 1525TIP3    H226067   0.202   3.700   4.306 -0.0433 -0.9613 -0.9357
 1526TIP3   OH226068   2.062   1.529   5.262  0.3238  0.1608  0.4173
 1526TIP3    H126069   2.050   1.446   5.216 -0.0921  0.7161 -0.5062
 1526TIP3    H226070   2.076   1.593   5.192  0.4454  0.9007  1.1093
 1527TIP3   OH226071   3.739   1.032  14.495  0.2075 -0.2089  0.4001
 1527TIP3    H126072   3.801   0.981  14.547  0.7716 -0.1486 -0.1831
 1527TIP3    H226073   3.769   1.122  14.503 -0.1567 -0.1033  0.5843
 1528TIP3   OH226074   1.918   3.874  13.354 -0.1213 -0.3668 -0.4205
 1528TIP3    H126075   1.993   3.919  13.315  0.0529 -1.1911 -1.0802
 1528TIP3    H226076   1.939   3.781  13.346 -0.1637 -0.5842  1.5299
 1529TIP3   OH226077   5.001   0.292   2.185  0.1421 -0.0402  0.3565
 1529TIP3    H126078   4.928   0.317   2.130  0.3783 -0.9870 -0.4218
 1529TIP3    H226079   5.035   0.212   2.145  0.9811 -0.1670  1.2723
 1530TIP3   OH226080   0.823   4.964  14.419 -0.3084  0.3298 -0.5529
 1530TIP3    H126081   0.734   4.929  14.407 -0.1779  0.1497 -1.0059
 1530TIP3    H226082   0.880   4.901  14.376 -0.0180  0.7883 -0.8593
 1531TIP3   OH226083   1.637   6.148   2.160  0.4318  0.1536  1.0142
 1531TIP3    H126084   1.686   6.066   2.170  2.1592  0.8824 -0.7458
 1531TIP3    H226085   1.611   6.149   2.068 -1.7276  0.5022  1.5664
 1532TIP3   OH226086   1.306   1.766   3.888  0.1178 -0.3733  0.0802
 1532TIP3    H126087   1.228   1.712   3.877  1.1065 -1.5725 -1.3580
 1532TIP3    H226088   1.379   1.705   3.889  1.0801  0.7144  1.5223
 1533TIP3   OH226089   4.164   3.287  13.903  0.2433 -0.3005  0.1489
 1533TIP3    H126090   4.122   3.286  13.989  0.4120 -1.0117  0.2295
 1533TIP3    H226091   4.243   3.234  13.914  0.2493 -0.4253 -0.4523
 1534TIP3   OH226092   6.647   0.663  13.999 -0.1470 -0.3993 -0.2574
 1534TIP3    H126093   6.660   0.746  14.046  1.2437 -1.5071  1.4352
 1534TIP3    H226094   6.553   0.649  14.000 -0.2873  0.4873  0.6559
 1535TIP3   OH226095   0.602   0.086   1.264  0.5391  0.6064  0.1627
 1535TIP3    H126096   0.579  -0.006   1.275 -2.2946  0.9259 -1.9896
 1535TIP3    H226097   0.664   0.086   1.191  1.4137  0.3504  0.8903
 1536TIP3   OH226098   4.400   2.066   0.142  0.5291 -0.0909 -1.2619
 1536TIP3    H126099   4.389   2.154   0.178  0.5105 -0.0009 -1.4898
 1536TIP3    H226100   4.489   2.066   0.107  1.1681 -0.6999  0.2556
 1537TIP3   OH226101   3.678   5.216   2.649  0.1349  0.9027  0.0470
 1537TIP3    H126102   3.734   5.147   2.684 -0.7675  0.0402 -0.1829
 1537TIP3    H226103   3.639   5.178   2.570 -2.0149  0.8868  1.0568
 1538TIP3   OH226104   0.343   5.535   3.831 -0.3824  0.4421  0.4645
 1538TIP3    H126105   0.288   5.613   3.824  0.2941  0.9762  0.8920
 1538TIP3    H226106   0.424   5.567   3.871  0.5465 -0.1732 -0.8635
 1539TIP3   OH226107   0.883   5.743  15.666 -0.2622  0.0156 -0.2344
 1539TIP3    H126108   0.975   5.719  15.659 -0.1925 -0.2039  1.0883
 1539TIP3    H226109   0.847   5.681  15.729 -0.6570  1.8030  1.3996
 1540TIP3   OH226110   3.133   3.532   5.649 -0.4124 -0.0775  0.1818
 1540TIP3    H126111   3.091   3.526   5.735 -0.5406 -0.8177  0.0801
 1540TIP3    H226112   3.087   3.603   5.604  0.0980  0.7598  0.9564
 1541TIP3   OH226113   2.832   2.446  16.877 -0.3499 -0.7970  0.6843
 1541TIP3    H126114   2.908   2.392  16.858  0.0993 -0.0176  0.2285
 1541TIP3    H226115   2.802   2.478  16.792 -0.9508 -0.7720  0.8953
 1542TIP3   OH226116   6.658   2.099  15.864 -0.1899  0.0914  0.8829
 1542TIP3    H126117   6.749   2.125  15.883  0.9997 -1.6140 -1.8749
 1542TIP3    H226118   6.638   2.033  15.930  1.5929 -1.3586  0.0693
 1543TIP3   OH226119   2.461   5.565  16.338  0.3591 -0.4230 -1.2530
 1543TIP3    H126120   2.506   5.541  16.257 -0.4571  1.9804 -2.5108
 1543TIP3    H226121   2.532   5.589  16.398  0.9067  0.3733 -2.1833
 1544TIP3   OH226122   4.923   4.202   1.805 -0.7239 -0.1964 -0.4055
 1544TIP3    H126123   4.968   4.280   1.837 -1.0893 -0.1955  0.1186
 1544TIP3    H226124   4.832   4.229   1.796 -0.8749 -0.5951 -0.1070
 1545TIP3   OH226125   5.992   5.236  16.845  0.4014  0.1412  0.5176
 1545TIP3    H126126   6.083   5.206  16.839  0.6595  0.6975  1.5050
 1545TIP3    H226127   5.942   5.155  16.857  0.8082 -0.1406  0.3541
 1546TIP3   OH226128   2.107   3.481   1.773  0.1638  0.0264  0.4865
 1546TIP3    H126129   2.158   3.453   1.697 -0.2396  1.2810 -0.2664
 1546TIP3    H226130   2.098   3.401   1.825  1.4760 -0.5852 -0.1737
 1547TIP3   OH226131   4.393   4.779   0.136  0.0324  0.9513 -0.3854
 1547TIP3    H126132   4.410   4.821   0.220 -0.9794 -2.5522  1.7683
 1547TIP3    H226133   4.479   4.751   0.104  0.2600  0.8628  0.3040
 1548TIP3   OH226134   3.584   4.487   5.134 -0.1305  0.6392 -0.0742
 1548TIP3    H126135   3.612   4.545   5.063  0.8167 -0.1373 -0.3545
 1548TIP3    H226136   3.662   4.474   5.187 -0.1286 -0.9798 -0.4457
 1549TIP3   OH226137   6.742   1.503  14.611  0.2627  0.1211 -0.2735
 1549TIP3    H126138   6.758   1.524  14.518  0.7525 -0.4882 -0.3386
 1549TIP3    H226139   6.779   1.577  14.658  0.9674 -0.0424 -0.5399
 1550TIP3   OH226140   5.596   1.137  14.142 -0.8303 -0.1491  0.2902
 1550TIP3    H126141   5.640   1.066  14.188 -0.2098  0.6858  1.0202
 1550TIP3    H226142   5.612   1.120  14.049 -0.8698 -1.0631  0.4447
 1551TIP3   OH226143   1.393   1.214   1.274  0.5365  0.1834 -0.9614
 1551TIP3    H126144   1.424   1.189   1.187 -1.3948  1.6009 -2.1425
 1551TIP3    H226145   1.299   1.198   1.271  0.0386  2.5247 -0.0262
 1552TIP3   OH226146   5.070   6.105  14.025 -0.6237  0.2840  0.2680
 1552TIP3    H126147   5.143   6.168  14.030 -0.2296 -0.0996 -0.5020
 1552TIP3    H226148   4.992   6.160  14.022 -0.2580  0.7729 -0.9244
 1553TIP3   OH226149   2.140   3.900   0.045 -0.0153 -0.5208  0.0709
 1553TIP3    H126150   2.200   3.966   0.079 -1.4745  0.9348 -0.0677
 1553TIP3    H226151   2.192   3.851  -0.018  1.1004  0.5206  0.1455
 1554TIP3   OH226152   0.445   5.930   3.151  0.3990  0.5533  0.2973
 1554TIP3    H126153   0.462   5.970   3.066 -0.6393  0.6940  0.1348
 1554TIP3    H226154   0.514   5.963   3.208  2.7024 -1.5708 -1.0697
 1555TIP3   OH226155   5.470   1.253  11.194  0.1469  0.5906 -0.3389
 1555TIP3    H126156   5.532   1.290  11.131  0.1183  0.7484 -0.2736
 1555TIP3    H226157   5.403   1.320  11.206  1.5109  1.7178  1.8493
 1556TIP3   OH226158   0.971   4.569   5.601 -0.0173 -0.1690  0.5718
 1556TIP3    H126159   0.953   4.519   5.521  0.8002  1.3627 -0.6329
 1556TIP3    H226160   1.060   4.544   5.626 -0.3943 -0.8926  1.2023
 1557TIP3   OH226161   0.400   6.141   5.508 -0.2825  0.1772 -0.5327
 1557TIP3    H126162   0.482   6.177   5.544 -0.1098 -1.2123  0.5594
 1557TIP3    H226163   0.337   6.148   5.580 -0.0820 -2.1406 -0.0295
 1558TIP3   OH226164   4.145   2.997   2.381 -0.1626  0.1102  0.1434
 1558TIP3    H126165   4.113   3.059   2.316  2.0116  0.3638 -0.7770
 1558TIP3    H226166   4.150   3.048   2.462 -2.6187 -0.1302  0.5094
 1559TIP3   OH226167   2.853   3.868   2.940  0.4592 -0.7025 -0.4773
 1559TIP3    H126168   2.806   3.829   2.866  1.2833  0.8126 -1.8551
 1559TIP3    H226169   2.866   3.795   3.000 -1.2743 -1.7340 -1.2616
 1560TIP3   OH226170   4.829   5.613  13.617  0.7322  0.0521 -0.2910
 1560TIP3    H126171   4.901   5.675  13.602 -0.0722  0.9956 -0.3332
 1560TIP3    H226172   4.753   5.653  13.576 -0.0837 -0.3877  0.7295
 1561TIP3   OH226173   2.485   3.864  13.332 -0.4289 -0.3697 -0.6849
 1561TIP3    H126174   2.552   3.895  13.272  0.8346  0.1993  0.9651
 1561TIP3    H226175   2.446   3.944  13.368 -0.5868 -0.6962 -0.1191
 1562TIP3   OH226176   4.770   3.932  13.253  0.3671 -0.8114  0.1104
 1562TIP3    H126177   4.743   3.990  13.182  1.2280 -0.4895  0.0282
 1562TIP3    H226178   4.860   3.907  13.231  1.0495  0.1595  1.6128
 1563TIP3   OH226179   4.166   1.165  12.253 -0.9891 -0.4139  0.8118
 1563TIP3    H126180   4.071   1.161  12.248 -1.0965  2.2074 -0.4391
 1563TIP3    H226181   4.184   1.202  12.340 -1.0838 -0.9199  1.0530
 1564TIP3   OH226182   4.368   6.027  10.583 -1.0071  0.0091  0.3166
 1564TIP3    H126183   4.443   5.968  10.598 -0.6150  0.2556 -0.5836
 1564TIP3    H226184   4.295   5.982  10.625 -0.7327 -1.1810 -0.4018
 1565TIP3   OH226185   2.828   1.349  16.811  0.2621  0.0373 -0.5045
 1565TIP3    H126186   2.772   1.292  16.863  0.6461 -1.3846 -1.6099
 1565TIP3    H226187   2.804   1.438  16.839 -4.1760 -0.2909 -2.3797
 1566TIP3   OH226188   4.150   5.276  16.404 -0.1282 -0.3944  0.1337
 1566TIP3    H126189   4.150   5.362  16.445  0.8682  0.3778 -1.3701
 1566TIP3    H226190   4.190   5.290  16.318  0.2522 -2.3989 -0.0830
 1567TIP3   OH226191   2.702   3.539  11.021 -0.4584 -0.6352  0.5272
 1567TIP3    H126192   2.675   3.613  10.967  1.2864 -1.5666 -1.7526
 1567TIP3    H226193   2.640   3.541  11.095 -1.9012  1.6910 -0.5913
 1568TIP3   OH226194   5.456   2.981   2.759  0.5330 -1.0423 -0.2658
 1568TIP3    H126195   5.542   2.942   2.776  0.6268 -0.6895  0.0889
 1568TIP3    H226196   5.475   3.059   2.708  0.3971 -1.1252 -0.4438
 1569TIP3   OH226197   3.805   2.040   6.026  0.0041  0.0062 -0.5256
 1569TIP3    H126198   3.745   2.073   6.093  0.7921 -0.6370  0.5126
 1569TIP3    H226199   3.834   2.119   5.980  0.4985  0.6110  0.7719
 1570TIP3   OH226200   2.191   5.360   6.569 -0.2064 -0.8294 -0.0438
 1570TIP3    H126201   2.140   5.305   6.629  0.3005 -3.2172 -1.6607
 1570TIP3    H226202   2.129   5.382   6.500 -1.1564  2.9773  1.7990
 1571TIP3   OH226203   2.205   5.815   2.481 -0.6292 -0.1903  0.3753
 1571TIP3    H126204   2.286   5.827   2.531 -0.4625 -1.8606  0.5767
 1571TIP3    H226205   2.136   5.822   2.546 -0.5262 -0.4996  0.5218
 1572TIP3   OH226206   6.626   2.828   0.729  0.0468 -0.2143  0.3570
 1572TIP3    H126207   6.657   2.815   0.639 -1.9835  0.0303 -0.4210
 1572TIP3    H226208   6.629   2.741   0.769 -0.6148 -0.6300 -0.4844
 1573TIP3   OH226209   5.898   2.456  16.713 -0.6599 -0.4745  0.4075
 1573TIP3    H126210   5.896   2.377  16.768  1.1111 -1.1360 -0.4007
 1573TIP3    H226211   5.953   2.517  16.761  0.7130 -0.9761 -0.4523
 1574TIP3   OH226212   6.690   4.306   0.731 -0.0134 -0.4803 -0.3819
 1574TIP3    H126213   6.653   4.226   0.694 -2.1422  0.1544  0.2391
 1574TIP3    H226214   6.720   4.280   0.818  1.7169 -1.1480 -1.1283
 1575TIP3   OH226215   5.117   4.234  14.785 -0.5101 -0.4297  0.1162
 1575TIP3    H126216   5.198   4.286  14.785 -1.5125  1.2048 -0.1106
 1575TIP3    H226217   5.147   4.144  14.774  1.2161  0.2368 -1.1218
 1576TIP3   OH226218   2.062   0.481  16.468  0.4794  0.7507  0.3004
 1576TIP3    H126219   2.087   0.484  16.561  2.2584 -0.6404 -0.0881
 1576TIP3    H226220   2.071   0.572  16.438 -1.2932  1.4719  1.7215
 1577TIP3   OH226221   4.606   4.233  14.366  0.1342  0.7379 -0.0920
 1577TIP3    H126222   4.568   4.309  14.408 -0.1132  0.2764  0.5348
 1577TIP3    H226223   4.699   4.235  14.388 -0.3468 -0.7194  2.4427
 1578TIP3   OH226224   6.268   2.014   4.803 -0.3977 -0.1641  0.1946
 1578TIP3    H126225   6.231   1.928   4.822 -0.4035 -0.0844  0.5382
 1578TIP3    H226226   6.340   2.023   4.864 -0.3224  0.0292  0.0775
 1579TIP3   OH226227   1.755   4.009  11.088  0.6065 -0.5631  0.3673
 1579TIP3    H126228   1.849   3.997  11.074  0.8269  0.2871  1.0366
 1579TIP3    H226229   1.724   4.055  11.011  1.3503  1.9379  1.4672
 1580TIP3   OH226230   2.901   2.645   2.522 -0.0696 -0.1727 -0.0870
 1580TIP3    H126231   2.836   2.596   2.471 -0.3141  1.1330 -1.0938
 1580TIP3    H226232   2.850   2.710   2.569  0.5262  1.5641 -1.6960
 1581TIP3   OH226233   2.504   6.832  14.699 -0.0622  0.1231  0.1936
 1581TIP3    H126234   2.592   6.849  14.665  1.3364 -1.1917  2.7937
 1581TIP3    H226235   2.457   6.791  14.627  2.0158 -0.6431 -0.7910
 1582TIP3   OH226236   6.848   6.462   1.702 -0.2295  0.3249  0.0992
 1582TIP3    H126237   6.864   6.484   1.610  0.1446 -0.0440  0.0729
 1582TIP3    H226238   6.753   6.466   1.711 -0.3952 -1.1177 -0.6980
 1583TIP3   OH226239   0.147   6.033   4.169  0.2047 -0.1915 -0.4743
 1583TIP3    H126240   0.098   5.996   4.242  1.1815 -1.2049 -0.3112
 1583TIP3    H226241   0.169   5.958   4.114  1.7373  0.1854 -0.4360
 1584TIP3   OH226242   2.045   0.178   0.419 -0.2641  0.7185 -0.5396
 1584TIP3    H126243   1.986   0.109   0.389 -0.6498  0.6064  0.4523
 1584TIP3    H226244   1.989   0.254   0.432 -0.1260  0.7260  0.0216
 1585TIP3   OH226245   1.252   4.210  14.502  0.1336 -0.3850 -0.8471
 1585TIP3    H126246   1.318   4.256  14.449 -0.6632 -0.6156 -2.0895
 1585TIP3    H226247   1.236   4.268  14.576  2.0082 -0.5080 -0.2928
 1586TIP3   OH226248   3.060   6.537  16.983 -0.7631 -0.7253  0.1746
 1586TIP3    H126249   3.028   6.528  17.073  0.4786  1.6851  0.9440
 1586TIP3    H226250   3.038   6.627  16.958  1.9556 -0.1672 -0.6015
 1587TIP3   OH226251   5.499   1.984   5.192 -0.5842  0.0071 -0.2348
 1587TIP3    H126252   5.520   2.037   5.115 -2.2621  1.7710  0.4513
 1587TIP3    H226253   5.412   1.947   5.172 -0.4595 -0.5761  0.2839
 1588TIP3   OH226254   5.316   6.777  12.446  0.3268  0.2382 -0.1610
 1588TIP3    H126255   5.388   6.744  12.499  0.2478 -0.0896 -0.2595
 1588TIP3    H226256   5.284   6.701  12.397 -1.1337  0.0030  1.0904
 1589TIP3   OH226257   5.632   3.743  12.781 -0.3475  0.1516 -0.1991
 1589TIP3    H126258   5.635   3.770  12.872  1.9427 -0.6349  0.0191
 1589TIP3    H226259   5.680   3.811  12.734 -1.5424  0.5727 -0.8385
 1590TIP3   OH226260   6.013   4.837  13.114 -0.1792 -0.8332 -0.0099
 1590TIP3    H126261   6.024   4.901  13.184 -1.0138  0.6571 -1.1778
 1590TIP3    H226262   6.061   4.759  13.144 -0.3707 -0.1834  2.0998
 1591TIP3   OH226263   0.240   2.975  14.610  0.0485  0.1160  0.2039
 1591TIP3    H126264   0.155   3.003  14.644 -0.9955 -0.4701 -1.7626
 1591TIP3    H226265   0.258   2.892  14.653 -0.2570  0.3481  0.7874
 1592TIP3   OH226266   2.971   5.158   4.416 -0.0225 -0.3399 -0.1512
 1592TIP3    H126267   3.009   5.214   4.348  0.4733 -0.9230 -0.3666
 1592TIP3    H226268   3.019   5.181   4.495  1.1949 -1.4280 -0.5206
 1593TIP3   OH226269   6.610   5.130  11.140  0.4781  0.2224 -0.0626
 1593TIP3    H126270   6.571   5.119  11.226 -1.2198  1.0866 -0.6758
 1593TIP3    H226271   6.538   5.160  11.084  1.6874  0.3795 -1.6228
 1594TIP3   OH226272   6.252   6.706  17.091  0.3688 -0.2913  0.6089
 1594TIP3    H126273   6.324   6.688  17.031  1.1172  2.5291  0.5224
 1594TIP3    H226274   6.228   6.798  17.074 -1.3371 -0.2783  2.6076
 1595TIP3   OH226275   1.656   3.660  14.047 -0.1305 -0.2033 -0.0313
 1595TIP3    H126276   1.726   3.596  14.063  0.7070  0.7374  0.1133
 1595TIP3    H226277   1.700   3.744  14.042 -1.2039  0.3613 -0.4157
 1596TIP3   OH226278   1.649   4.952  14.224 -0.5895 -0.1903 -0.2834
 1596TIP3    H126279   1.613   4.945  14.313 -0.8336  0.8207 -0.2901
 1596TIP3    H226280   1.572   4.946  14.167 -0.7073  1.2825 -0.3253
 1597TIP3   OH226281   1.436   1.261   5.229 -0.0307 -0.4981  0.1173
 1597TIP3    H126282   1.369   1.300   5.285 -1.5635 -0.3050 -1.7555
 1597TIP3    H226283   1.507   1.325   5.230 -0.0622 -0.4287  1.6631
 1598TIP3   OH226284   2.672   4.622  16.898 -0.1201  0.1269  0.5034
 1598TIP3    H126285   2.628   4.669  16.969  0.3761  1.4803 -0.0298
 1598TIP3    H226286   2.626   4.651  16.819  1.1258  0.9121  0.0173
 1599TIP3   OH226287   4.234   5.451   3.220  0.3307 -0.7805 -0.4648
 1599TIP3    H126288   4.295   5.511   3.176  2.2683 -2.6191 -0.4611
 1599TIP3    H226289   4.257   5.457   3.312 -0.5141 -0.4052 -0.2762
 1600TIP3   OH226290   6.170   1.337   5.871 -0.1603 -0.4845 -0.6866
 1600TIP3    H126291   6.170   1.263   5.811  1.2519 -1.0848  0.0168
 1600TIP3    H226292   6.261   1.350   5.895 -0.4050  1.2841 -0.5123
 1601TIP3   OH226293   5.252   2.514  12.073 -0.1328  0.5202 -0.6349
 1601TIP3    H126294   5.347   2.527  12.076  0.4552 -2.9886  1.1796
 1601TIP3    H226295   5.216   2.586  12.125  1.6683  0.8893  0.1580
 1602TIP3   OH226296   5.658   5.100  12.840  0.0441  0.2303  0.0959
 1602TIP3    H126297   5.649   5.188  12.877  2.0910  0.2990  0.5026
 1602TIP3    H226298   5.745   5.071  12.866 -0.1242 -1.4547 -1.0486
 1603TIP3   OH226299   1.931   1.308  14.965 -0.1224  0.4927 -0.3081
 1603TIP3    H126300   1.902   1.357  14.888 -0.8411 -0.0625 -0.3984
 1603TIP3    H226301   2.015   1.347  14.988  0.3181  0.3836 -1.6434
 1604TIP3   OH226302   2.377   3.059  12.894 -0.1396 -0.2242  0.1820
 1604TIP3    H126303   2.412   3.017  12.815  1.4148 -1.4544  1.4407
 1604TIP3    H226304   2.452   3.107  12.930 -0.8127  0.2726  0.9436
 1605TIP3   OH226305   0.469   6.293  10.589 -0.5359  0.1969  0.2068
 1605TIP3    H126306   0.414   6.366  10.619  0.0694  1.8687 -2.3966
 1605TIP3    H226307   0.554   6.308  10.631 -1.0220 -0.3158  1.4045
 1606TIP3   OH226308   5.895   3.318  16.605 -0.2487 -0.2068 -0.2580
 1606TIP3    H126309   5.909   3.373  16.682 -0.3572 -1.4605  0.6645
 1606TIP3    H226310   5.914   3.229  16.634 -0.5607 -0.7354 -1.6022
 1607TIP3   OH226311   1.357   3.441  13.875  0.1570  0.0201 -0.0471
 1607TIP3    H126312   1.371   3.531  13.904 -0.5033  0.1060  0.0170
 1607TIP3    H226313   1.317   3.449  13.788  0.9532 -0.2254 -0.4461
 1608TIP3   OH226314   6.485   4.875   5.936 -0.2593  0.1567 -0.0976
 1608TIP3    H126315   6.531   4.881   6.019  2.6524 -0.9800 -1.4939
 1608TIP3    H226316   6.535   4.932   5.877 -2.5312  1.3257 -1.0318
 1609TIP3   OH226317   6.299   6.486   4.647 -0.4496 -0.2075 -0.0445
 1609TIP3    H126318   6.221   6.505   4.699  0.7426 -1.0742  2.1648
 1609TIP3    H226319   6.346   6.569   4.642 -1.0042  0.0870 -0.5487
 1610TIP3   OH226320   1.773   1.648   1.411  0.4398 -0.6434  0.6734
 1610TIP3    H126321   1.781   1.619   1.320  2.3818 -0.7098  0.8384
 1610TIP3    H226322   1.770   1.567   1.462 -0.7905 -0.6105  0.6972
 1611TIP3   OH226323   0.840   3.013  13.140  0.5939 -0.3528  0.1673
 1611TIP3    H126324   0.824   3.023  13.234 -0.4138  1.0075 -0.1113
 1611TIP3    H226325   0.820   3.099  13.103  0.1004 -1.1042 -1.4118
 1612TIP3   OH226326   3.691   0.907  16.572  0.5570 -0.2766 -0.1279
 1612TIP3    H126327   3.713   0.998  16.552 -1.3934 -0.0158 -1.3970
 1612TIP3    H226328   3.708   0.860  16.490 -0.1319 -0.7069 -0.0295
 1613TIP3   OH226329   4.540   3.689   1.698 -0.2998 -0.1275  0.5207
 1613TIP3    H126330   4.485   3.709   1.623  0.5332 -0.4999 -0.2121
 1613TIP3    H226331   4.479   3.660   1.766 -0.9885 -0.7865 -0.3539
 1614TIP3   OH226332   0.577   3.279  11.554 -0.1454 -0.0748  0.0407
 1614TIP3    H126333   0.670   3.278  11.576  0.4163 -0.7630 -2.1756
 1614TIP3    H226334   0.570   3.227  11.474 -2.5598 -0.6752  0.5535
 1615TIP3   OH226335   6.713   1.118   4.232  0.6996  0.0418 -0.0593
 1615TIP3    H126336   6.699   1.096   4.140  0.0281  0.8263 -0.1559
 1615TIP3    H226337   6.769   1.048   4.265  0.5145 -0.5326 -0.9294
 1616TIP3   OH226338   6.278   2.958   1.187 -0.4024  0.0165 -0.4143
 1616TIP3    H126339   6.294   3.035   1.132  1.6299 -0.4731 -0.5889
 1616TIP3    H226340   6.314   2.981   1.273  0.2522 -0.7370 -0.4749
 1617TIP3   OH226341   2.306   5.251   3.053  0.2759  0.1479  0.0962
 1617TIP3    H126342   2.308   5.322   3.117 -1.4008 -0.7969  1.3049
 1617TIP3    H226343   2.303   5.295   2.968 -2.3517  1.6514  0.8443
 1618TIP3   OH226344   3.822   2.559   2.610  0.3288  0.2624 -0.0244
 1618TIP3    H126345   3.850   2.501   2.539  2.8954  1.6399 -0.2513
 1618TIP3    H226346   3.846   2.646   2.581  0.6900  0.9583  2.1607
 1619TIP3   OH226347   1.256   2.057   3.842 -0.1132  0.0706  0.4704
 1619TIP3    H126348   1.223   2.122   3.904  2.2604 -0.1438  2.0957
 1619TIP3    H226349   1.268   1.978   3.895  1.2243 -0.3687 -0.4548
 1620TIP3   OH226350   1.232   2.943  16.630  0.2278 -0.0200  0.0174
 1620TIP3    H126351   1.150   2.984  16.601  0.8789 -0.2085 -2.2938
 1620TIP3    H226352   1.215   2.849  16.626  0.0523 -0.0499  1.1923
 1621TIP3   OH226353   2.753   4.893   5.471  0.6188  0.0841 -0.0668
 1621TIP3    H126354   2.774   4.804   5.499 -1.6228 -0.5393 -0.1476
 1621TIP3    H226355   2.694   4.881   5.395 -0.7904  1.5653  0.7214
 1622TIP3   OH226356   3.933   1.734  15.195  0.1054  0.1973  0.0232
 1622TIP3    H126357   3.888   1.732  15.111  0.4200 -2.4415 -0.1466
 1622TIP3    H226358   4.014   1.783  15.178 -0.1404  0.2511 -1.0268
 1623TIP3   OH226359   1.858   3.982   5.425  0.0495 -0.0051 -0.4211
 1623TIP3    H126360   1.841   3.888   5.428 -1.1610  0.0392 -3.0768
 1623TIP3    H226361   1.950   3.991   5.451  1.2611 -2.3518 -3.3460
 1624TIP3   OH226362   0.255   1.301  14.898 -1.0440  0.2891 -0.2716
 1624TIP3    H126363   0.162   1.295  14.920 -0.8605 -0.2055  0.4245
 1624TIP3    H226364   0.300   1.272  14.978 -0.2960  0.4981 -0.6099
 1625TIP3   OH226365   4.400   0.239   2.988 -0.5173  0.4917  0.8152
 1625TIP3    H126366   4.351   0.157   2.992 -2.0897  1.4151  1.3454
 1625TIP3    H226367   4.477   0.224   3.043 -0.0759 -1.0434 -0.1587
 1626TIP3   OH226368   0.037   1.376  12.697  0.0527  0.9844 -0.2578
 1626TIP3    H126369   0.081   1.429  12.763 -0.4007  0.4158  0.5126
 1626TIP3    H226370  -0.004   1.439  12.638 -0.3506  1.4978  0.5617
 1627TIP3   OH226371   5.331   3.494   3.479  0.5697 -0.2178 -0.3413
 1627TIP3    H126372   5.260   3.470   3.419  0.3749 -0.0668 -0.1731
 1627TIP3    H226373   5.334   3.590   3.475  1.7167 -0.2705 -1.4443
 1628TIP3   OH226374   4.724   6.090   1.289 -0.0878 -1.2772  0.2224
 1628TIP3    H126375   4.727   6.022   1.221 -4.1031 -1.0903 -0.3637
 1628TIP3    H226376   4.752   6.170   1.243  0.0999 -1.6787 -0.3806
 1629TIP3   OH226377   4.702   0.193   5.633 -0.5182 -0.1414 -0.5152
 1629TIP3    H126378   4.643   0.163   5.564 -3.0560  0.0946  1.3883
 1629TIP3    H226379   4.690   0.287   5.637 -0.7464 -0.1944  0.4802
 1630TIP3   OH226380   3.698   2.743  13.996 -0.2092  0.0527 -0.5312
 1630TIP3    H126381   3.722   2.835  13.994  2.6248 -0.6020 -0.8881
 1630TIP3    H226382   3.656   2.727  13.911  0.7476  0.6719 -1.1322
 1631TIP3   OH226383   5.120   2.484   0.102  0.4171 -0.5290 -0.4593
 1631TIP3    H126384   5.054   2.485   0.032  0.5880  0.0798 -0.6081
 1631TIP3    H226385   5.181   2.414   0.076  2.4440  1.8961 -2.7422
 1632TIP3   OH226386   0.581   5.715   2.085 -0.0774 -0.0766 -0.8699
 1632TIP3    H126387   0.550   5.625   2.092 -1.9938  0.4667 -1.7486
 1632TIP3    H226388   0.670   5.712   2.122 -0.7183 -1.9512  0.7399
 1633TIP3   OH226389   3.110   3.311   3.356 -0.5785 -0.3911  0.1425
 1633TIP3    H126390   3.026   3.351   3.379 -0.1581 -0.0895  1.2065
 1633TIP3    H226391   3.159   3.308   3.438  0.5189 -0.4134 -0.4875
 1634TIP3   OH226392   4.604   4.192  16.216  0.5508 -0.0053 -0.0886
 1634TIP3    H126393   4.634   4.275  16.251  3.0453 -0.2928 -1.3225
 1634TIP3    H226394   4.640   4.126  16.276 -0.9338 -0.2451  0.5688
 1635TIP3   OH226395   4.481   6.577   4.624 -0.1200  0.7228  0.0173
 1635TIP3    H126396   4.510   6.581   4.533  0.4920 -0.2985  0.1489
 1635TIP3    H226397   4.536   6.642   4.669 -0.8086  1.6294 -0.4236
 1636TIP3   OH226398   2.970   6.252  15.558  0.3491  0.8889 -0.2016
 1636TIP3    H126399   2.964   6.157  15.546 -0.7743  0.6278  1.9929
 1636TIP3    H226400   3.021   6.282  15.483  0.9097 -1.4651 -0.8437
 1637TIP3   OH226401   5.510   1.202   3.125 -0.2645  0.0888 -0.6279
 1637TIP3    H126402   5.528   1.219   3.217 -0.4559  0.8118 -0.7148
 1637TIP3    H226403   5.456   1.124   3.125 -1.1463  0.6790 -0.0493
 1638TIP3   OH226404   2.175   4.786   1.379 -0.3001  0.0648 -0.5112
 1638TIP3    H126405   2.257   4.751   1.345 -0.3321  0.0260 -0.5484
 1638TIP3    H226406   2.154   4.729   1.454 -0.7628 -0.4875 -1.0534
 1639TIP3   OH226407   0.973   5.315  13.023  0.0258  0.1604 -0.3127
 1639TIP3    H126408   0.947   5.378  12.955 -3.1189 -0.5293  0.1248
 1639TIP3    H226409   0.994   5.235  12.974 -1.3082 -0.0508 -0.5758
 1640TIP3   OH226410   3.245   3.568   3.059 -0.1037  0.0387 -0.3994
 1640TIP3    H126411   3.229   3.474   3.049 -0.8938 -0.1993  2.3217
 1640TIP3    H226412   3.234   3.603   2.971  0.5485 -2.4410 -1.5717
 1641TIP3   OH226413   2.957   2.942   2.358  0.4045  0.1420  0.2232
 1641TIP3    H126414   2.868   2.906   2.360 -0.3320  1.5600 -2.0842
 1641TIP3    H226415   2.954   3.015   2.420  0.0598 -0.0573  0.4444
 1642TIP3   OH226416   6.702   4.162  12.762 -0.0982 -0.6324 -0.0571
 1642TIP3    H126417   6.683   4.153  12.669  1.9847 -2.1792 -0.4007
 1642TIP3    H226418   6.617   4.180  12.802 -1.0428  0.1085 -2.2210
 1643TIP3   OH226419   6.481   6.029  13.280  0.2399  0.1348 -0.0842
 1643TIP3    H126420   6.536   6.095  13.322  0.9665 -1.2314  1.2165
 1643TIP3    H226421   6.395   6.070  13.271 -0.1204  0.3505  3.2721
 1644TIP3   OH226422   6.110   3.315  15.292  0.5179 -0.2019  0.1837
 1644TIP3    H126423   6.182   3.374  15.272 -0.5583  0.8442 -0.7729
 1644TIP3    H226424   6.150   3.228  15.294  1.6753  0.2622 -1.0855
 1645TIP3   OH226425   0.103   4.843  13.073  0.0494  0.3318 -0.0119
 1645TIP3    H126426   0.047   4.844  12.996  0.5657  1.9131 -0.3903
 1645TIP3    H226427   0.150   4.926  13.071  1.9699 -0.6551  0.6129
 1646TIP3   OH226428   2.965   2.096  16.063 -0.1274 -0.0533 -0.4207
 1646TIP3    H126429   3.006   2.065  15.982  2.6139  0.6595  0.5795
 1646TIP3    H226430   3.026   2.163  16.097 -0.7238 -0.8954  2.6310
 1647TIP3   OH226431   2.451   2.177  15.597 -0.1021  0.0373 -0.4982
 1647TIP3    H126432   2.426   2.253  15.650  1.4333  0.5388 -0.4457
 1647TIP3    H226433   2.489   2.115  15.659  2.5461  0.9919 -1.0169
 1648TIP3   OH226434   3.306   3.676  15.441 -0.2933 -0.3600  0.2660
 1648TIP3    H126435   3.340   3.651  15.354  0.6578 -2.0117  1.0515
 1648TIP3    H226436   3.352   3.757  15.462 -2.2673  1.3948 -1.7025
 1649TIP3   OH226437   4.127   2.560   2.730  0.7050  0.3651  0.5691
 1649TIP3    H126438   4.045   2.607   2.750 -0.2867 -0.8634 -0.4524
 1649TIP3    H226439   4.114   2.473   2.766  0.2695 -0.8098 -2.1657
 1650TIP3   OH226440   0.407   0.482   6.520  0.4889 -0.1702 -0.0640
 1650TIP3    H126441   0.482   0.441   6.477 -0.0196 -0.0334 -1.1086
 1650TIP3    H226442   0.429   0.575   6.523 -0.7278  0.3234 -2.8613
 1651TIP3   OH226443   1.329   4.504  15.990  0.3234 -0.0042  0.1521
 1651TIP3    H126444   1.298   4.449  16.062  0.1191 -1.1907 -0.8127
 1651TIP3    H226445   1.259   4.499  15.925  0.8396  0.4375 -0.4471
 1652TIP3   OH226446   4.537   1.124   2.005 -0.3905 -0.1317 -0.0744
 1652TIP3    H126447   4.601   1.100   2.072 -0.9073  0.6539  0.7188
 1652TIP3    H226448   4.504   1.209   2.032 -1.4469 -0.3149 -0.7164
 1653TIP3   OH226449   2.720   6.158  16.760 -0.1040  0.1225  0.0816
 1653TIP3    H126450   2.674   6.080  16.726  0.0203 -0.1618  0.5599
 1653TIP3    H226451   2.755   6.130  16.844 -0.9933  1.0342  0.7680
 1654TIP3   OH226452   3.376   6.757  13.281  0.0065 -0.6321 -0.5027
 1654TIP3    H126453   3.315   6.757  13.208 -0.2684 -1.5492 -0.2796
 1654TIP3    H226454   3.454   6.711  13.249 -0.3246 -1.5266 -0.0634
 1655TIP3   OH226455   2.422   0.746   5.547 -0.1159 -0.0816  0.3543
 1655TIP3    H126456   2.471   0.762   5.628 -0.4385  2.6620  0.0944
 1655TIP3    H226457   2.366   0.823   5.537  1.6308  0.9154 -3.7148
 1656TIP3   OH226458   6.271   5.753   2.778 -0.1113 -1.1387  0.1919
 1656TIP3    H126459   6.192   5.701   2.762 -0.7982 -0.4323  1.1866
 1656TIP3    H226460   6.299   5.726   2.866  0.7331 -1.3393 -0.1299
 1657TIP3   OH226461   1.489   0.026   5.000 -0.7395  0.2437 -0.2109
 1657TIP3    H126462   1.422   0.006   4.935  0.3399  0.6172 -1.4907
 1657TIP3    H226463   1.572   0.006   4.956 -0.0202 -1.7551  1.8652
 1658TIP3   OH226464   5.166   5.827  11.413 -0.2877  0.1053  0.1597
 1658TIP3    H126465   5.090   5.779  11.447 -1.5296  0.3391 -2.0817
 1658TIP3    H226466   5.188   5.890  11.483 -1.0839 -1.0736  1.5305
 1659TIP3   OH226467   6.658   0.443  16.970 -0.2370  0.0577 -0.0964
 1659TIP3    H126468   6.598   0.489  17.030 -0.4553  1.3003 -1.2163
 1659TIP3    H226469   6.606   0.372  16.934 -0.3105 -0.2885  0.6717
 1660TIP3   OH226470   0.709   1.454   3.064  0.4627 -0.4294  0.4610
 1660TIP3    H126471   0.744   1.492   3.145  0.3956  1.0089 -0.1526
 1660TIP3    H226472   0.615   1.448   3.080  0.3455  0.5743  0.2364
 1661TIP3   OH226473   6.410   5.218  11.620  0.3212 -0.4877 -0.2879
 1661TIP3    H126474   6.325   5.192  11.582 -0.2407 -1.0338  1.2398
 1661TIP3    H226475   6.412   5.313  11.611 -1.5770 -0.1736  1.7365
 1662TIP3   OH226476   2.973   4.432  12.664  0.0082 -0.4078 -0.4029
 1662TIP3    H126477   2.902   4.468  12.611 -0.4327  0.4472  0.7319
 1662TIP3    H226478   2.949   4.341  12.678 -0.3770 -0.3755 -0.8378
 1663TIP3   OH226479   3.985   1.462  16.539 -0.3771  0.0973  0.3686
 1663TIP3    H126480   3.927   1.475  16.614  0.2470 -1.6138  1.2068
 1663TIP3    H226481   3.967   1.536  16.481 -3.5379 -0.4392  0.4909
 1664TIP3   OH226482   6.698   6.649   3.168 -0.0244 -0.3577 -0.3448
 1664TIP3    H126483   6.620   6.613   3.125 -0.9845 -0.7395  1.6387
 1664TIP3    H226484   6.668   6.731   3.206  0.4663 -0.6230  0.6380
 1665TIP3   OH226485   2.717   5.742  12.766 -0.3325 -0.4169 -0.4784
 1665TIP3    H126486   2.699   5.653  12.797 -0.0482 -0.0781  0.6948
 1665TIP3    H226487   2.663   5.798  12.821 -0.4824  0.1556 -1.1940
 1666TIP3   OH226488   4.626   3.379  15.824  0.6581  0.0823  0.0885
 1666TIP3    H126489   4.703   3.347  15.872  0.4798  2.2091  1.9765
 1666TIP3    H226490   4.613   3.468  15.856 -0.3684  1.1712 -2.9758
 1667TIP3   OH226491   5.681   2.600  16.875 -0.3427  0.2032  0.0074
 1667TIP3    H126492   5.621   2.637  16.811 -0.3699 -0.5481 -0.4099
 1667TIP3    H226493   5.755   2.568  16.824  0.9071  2.0145  0.6083
 1668TIP3   OH226494   2.710   5.296   5.800 -0.2202  0.2352 -0.2408
 1668TIP3    H126495   2.717   5.209   5.761 -0.3827  0.5919 -1.0965
 1668TIP3    H226496   2.789   5.341   5.772 -0.6242  0.6896 -0.6641
 1669TIP3   OH226497   0.277   0.937  16.963 -0.0628 -0.1842 -0.0723
 1669TIP3    H126498   0.347   0.980  16.914 -0.0879  0.1873  0.2167
 1669TIP3    H226499   0.318   0.908  17.044  0.1119 -1.2911 -0.5405
 1670TIP3   OH226500   2.139   3.963  12.804  0.2656  0.0457 -0.2388
 1670TIP3    H126501   2.191   4.035  12.768 -0.3660  0.7182  0.1500
 1670TIP3    H226502   2.063   3.957  12.746 -0.4204  0.6860  0.5637
 1671TIP3   OH226503   6.808   0.915  10.551  0.1803  0.4823  0.1072
 1671TIP3    H126504   6.862   0.863  10.491  0.5364  0.1464  0.7160
 1671TIP3    H226505   6.738   0.856  10.577  0.7576  0.1847  1.0432
 1672TIP3   OH226506   2.603   4.667   4.263  0.9258  1.0481  0.5793
 1672TIP3    H126507   2.642   4.592   4.219 -1.5410 -1.3543  2.1798
 1672TIP3    H226508   2.611   4.647   4.356 -1.8331  1.5453  1.0074
 1673TIP3   OH226509   5.305   2.311   3.598 -0.0551 -0.0960  0.1251
 1673TIP3    H126510   5.392   2.274   3.612 -0.4346 -0.6876  1.0816
 1673TIP3    H226511   5.321   2.399   3.564  0.9674  0.4890  1.9717
 1674TIP3   OH226512   2.937   5.063  14.757  0.2058 -0.4008  0.4627
 1674TIP3    H126513   3.002   5.133  14.748  0.2591 -0.5368 -0.2598
 1674TIP3    H226514   2.955   5.004  14.684 -0.2710 -0.8168  0.6777
 1675TIP3   OH226515   5.116   2.396  10.728  0.0787  0.2316  0.0798
 1675TIP3    H126516   5.166   2.327  10.684 -1.4647 -1.6472  1.1199
 1675TIP3    H226517   5.025   2.380  10.703 -0.6429  0.1216  2.5373
 1676TIP3   OH226518   1.373   2.485  10.886 -0.1281 -0.4125 -0.2732
 1676TIP3    H126519   1.291   2.445  10.857 -0.4253 -1.4952  1.8307
 1676TIP3    H226520   1.367   2.485  10.981  1.0539  2.2679 -0.1086
 1677TIP3   OH226521   2.872   5.385  13.029 -0.0473  0.2907  0.4753
 1677TIP3    H126522   2.899   5.355  12.943 -0.0280 -0.6705  0.8079
 1677TIP3    H226523   2.953   5.390  13.080 -0.3250 -1.5685  1.1586
 1678TIP3   OH226524   0.386   4.578  11.792 -0.2622 -0.6056 -0.8660
 1678TIP3    H126525   0.419   4.549  11.877 -0.6464  0.3078 -0.3861
 1678TIP3    H226526   0.292   4.560  11.795 -0.9688  2.6407  0.3709
 1679TIP3   OH226527   1.505   2.683  13.330 -0.2078  0.4602 -0.1871
 1679TIP3    H126528   1.443   2.754  13.342 -0.5317  0.4411 -1.5363
 1679TIP3    H226529   1.585   2.725  13.298 -0.5384  0.2120 -1.4058
 1680TIP3   OH226530   4.216   0.898   1.171 -0.0909 -0.1723 -0.0748
 1680TIP3    H126531   4.295   0.927   1.124 -0.1501 -0.1085 -0.1342
 1680TIP3    H226532   4.152   0.882   1.102 -0.6282  1.2707  0.0536
 1681TIP3   OH226533   3.827   4.721  11.525  0.2407  0.3941 -0.1732
 1681TIP3    H126534   3.837   4.717  11.430  0.1790 -2.2639 -0.1261
 1681TIP3    H226535   3.752   4.780  11.539 -1.0767 -0.7897 -1.8891
 1682TIP3   OH226536   3.238   0.067  16.788 -0.4275  0.7722  0.2553
 1682TIP3    H126537   3.225   0.029  16.875  1.2143  2.8273  1.4997
 1682TIP3    H226538   3.327   0.042  16.764 -0.1457  1.8551  0.1000
 1683TIP3   OH226539   4.888   1.259   2.261  1.0133  0.0392 -1.0197
 1683TIP3    H126540   4.831   1.187   2.238  0.9700  0.2183 -1.4792
 1683TIP3    H226541   4.835   1.316   2.316  1.3032 -0.6984  0.0660
 1684TIP3   OH226542   0.897   0.100  11.268  0.2135  0.4575 -0.0303
 1684TIP3    H126543   0.947   0.111  11.187 -0.6216 -0.9491 -0.7700
 1684TIP3    H226544   0.810   0.134  11.246  0.5286  1.9493  0.9312
 1685TIP3   OH226545   4.289   2.590   4.632 -0.2301  0.2778 -0.3774
 1685TIP3    H126546   4.323   2.666   4.585  0.4097  2.2753  2.9595
 1685TIP3    H226547   4.233   2.627   4.700  0.2359 -2.2149  1.5054
 1686TIP3   OH226548   3.711   1.273  11.021 -0.4869  0.1013 -0.7051
 1686TIP3    H126549   3.751   1.293  10.936 -1.7438 -0.7327 -1.5205
 1686TIP3    H226550   3.617   1.286  11.007 -0.6145  1.0646  0.8951
 1687TIP3   OH226551   3.540   1.756   4.357  0.1800  0.4646  0.3575
 1687TIP3    H126552   3.560   1.728   4.268  2.4897  1.3629  0.5184
 1687TIP3    H226553   3.445   1.750   4.363  0.0645 -0.9624 -1.6897
 1688TIP3   OH226554   2.271   6.737   2.867 -0.2255  0.4246 -0.1689
 1688TIP3    H126555   2.197   6.768   2.815 -1.7391  0.6454  1.9984
 1688TIP3    H226556   2.278   6.800   2.939  1.2930 -0.3004  0.3617
 1689TIP3   OH226557   5.827   0.653  14.961  0.5906 -0.3107 -0.2273
 1689TIP3    H126558   5.804   0.689  14.875 -0.2157 -0.3332 -0.0293
 1689TIP3    H226559   5.771   0.701  15.023  3.2851  1.8962  0.6725
 1690TIP3   OH226560   0.432   0.670   4.983  0.0741  0.4690 -0.6437
 1690TIP3    H126561   0.479   0.749   5.011 -0.8427  0.8191 -0.0611
 1690TIP3    H226562   0.344   0.681   5.017  0.8164 -2.5766  2.9560
 1691TIP3   OH226563   3.700   4.849  15.468  0.4007  0.3452 -0.7390
 1691TIP3    H126564   3.654   4.768  15.444 -0.4352  0.5204  0.2015
 1691TIP3    H226565   3.668   4.914  15.406  0.4683  0.1448 -0.9893
 1692TIP3   OH226566   3.049   1.473   5.286 -0.2328  0.2992  0.1673
 1692TIP3    H126567   2.988   1.459   5.213 -0.7977  0.5986  0.5729
 1692TIP3    H226568   3.017   1.415   5.355  1.1846 -1.1188 -0.3087
 1693TIP3   OH226569   6.535   3.281   3.600 -0.0310 -0.3737  0.1131
 1693TIP3    H126570   6.446   3.255   3.575  0.3591 -0.8444 -0.8627
 1693TIP3    H226571   6.592   3.219   3.553  0.8116 -0.0097  0.6347
 1694TIP3   OH226572   3.808   6.608  16.953 -0.5118 -0.5548  0.0760
 1694TIP3    H126573   3.890   6.564  16.931  0.5018 -0.1250  2.6051
 1694TIP3    H226574   3.791   6.667  16.880  1.6451 -0.3819 -0.3428
 1695TIP3   OH226575   0.902   4.959  13.417  0.2103  0.2112 -0.5527
 1695TIP3    H126576   0.846   4.928  13.488 -0.6338  0.0616 -1.2693
 1695TIP3    H226577   0.915   4.883  13.361 -0.6509  0.7529 -1.5284
 1696TIP3   OH226578   4.569   5.454  12.152  0.1056 -0.4075 -0.1916
 1696TIP3    H126579   4.568   5.529  12.211 -1.9466 -0.4084 -0.1637
 1696TIP3    H226580   4.488   5.406  12.171  0.6578 -1.8328 -1.2174
 1697TIP3   OH226581   0.777   1.774  11.407  0.3755 -0.2440  0.0194
 1697TIP3    H126582   0.872   1.782  11.402  0.3767 -0.6699 -0.7992
 1697TIP3    H226583   0.761   1.701  11.467  0.5421  0.2316  0.6547
 1698TIP3   OH226584   3.312   0.839  13.675  0.0081 -0.2318 -0.8875
 1698TIP3    H126585   3.328   0.785  13.752  2.1642  0.1944 -0.9501
 1698TIP3    H226586   3.312   0.929  13.708  1.6420  0.0026 -1.4086
 1699TIP3   OH226587   4.511   4.524   0.783  0.3571  0.5343  0.3025
 1699TIP3    H126588   4.579   4.488   0.726  0.2564  0.0201  0.4972
 1699TIP3    H226589   4.559   4.564   0.855  0.4701 -1.7517  1.6061
 1700TIP3   OH226590   5.363   4.767   3.965 -0.1718 -0.1991  0.2010
 1700TIP3    H126591   5.417   4.831   4.010 -0.4259  0.8282 -0.9068
 1700TIP3    H226592   5.347   4.699   4.031  0.1557  0.8289  1.3888
 1701TIP3   OH226593   5.218   0.924  12.966  0.1658  0.2653  0.4273
 1701TIP3    H126594   5.220   0.987  12.893 -0.8877  0.2396  0.3600
 1701TIP3    H226595   5.189   0.843  12.926  2.8054 -0.6856  0.2443
 1702TIP3   OH226596   6.769   2.468  15.958 -0.3209 -0.5059 -0.5580
 1702TIP3    H126597   6.778   2.492  15.866 -1.8173  0.1130 -0.5665
 1702TIP3    H226598   6.827   2.392  15.969  1.1323  0.3952 -1.5953
 1703TIP3   OH226599   5.733   6.183  16.398  0.4321 -0.1974 -0.7272
 1703TIP3    H126600   5.644   6.179  16.362  0.5686  1.4072 -1.3608
 1703TIP3    H226601   5.745   6.275  16.420  1.7987 -0.4703 -0.2607
 1704TIP3   OH226602   4.866   3.572  16.358  0.6063  0.4030  0.1914
 1704TIP3    H126603   4.935   3.533  16.411  1.3486 -0.1086 -1.0891
 1704TIP3    H226604   4.913   3.620  16.289 -0.3088  0.0595 -0.7026
 1705TIP3   OH226605   5.296   6.591   3.572  0.1362 -0.2148 -0.1465
 1705TIP3    H126606   5.231   6.524   3.551  0.4352 -1.5048  2.7152
 1705TIP3    H226607   5.375   6.562   3.527  0.2783 -1.8839  1.0957
 1706TIP3   OH226608   4.392   4.248  16.991 -0.2840 -0.5170 -0.1699
 1706TIP3    H126609   4.446   4.186  17.040  0.4846 -1.4135 -2.0567
 1706TIP3    H226610   4.433   4.333  17.006 -1.5967 -0.2713  2.8013
 1707TIP3   OH226611   4.466   2.613  17.027  0.7046  0.4297 -0.1873
 1707TIP3    H126612   4.527   2.675  17.067  1.0961  0.2699 -0.5249
 1707TIP3    H226613   4.429   2.565  17.102 -2.1267  3.2592  0.4009
 1708TIP3   OH226614   2.517   0.490   1.495  0.1492 -0.3051  0.9018
 1708TIP3    H126615   2.440   0.436   1.478  0.9155 -1.1711  0.0565
 1708TIP3    H226616   2.498   0.572   1.450 -0.5952 -0.2154  1.3483
 1709TIP3   OH226617   3.594   0.953  16.268  0.4345  0.3978  0.5043
 1709TIP3    H126618   3.627   1.020  16.208  0.2204 -0.7174 -0.9419
 1709TIP3    H226619   3.668   0.894  16.281  0.1177 -0.0584  0.2845
 1710TIP3   OH226620   0.451   2.358   3.782 -0.5908  0.7337 -0.1222
 1710TIP3    H126621   0.432   2.311   3.863  1.1055  2.5985  1.4481
 1710TIP3    H226622   0.370   2.407   3.763 -0.9581  0.3787  0.5058
 1711TIP3   OH226623   5.806   3.856  14.182  0.4188  0.3569  0.0321
 1711TIP3    H126624   5.856   3.824  14.106  0.1562 -0.7492  0.3060
 1711TIP3    H226625   5.865   3.919  14.224  0.4550  1.2262 -1.2385
 1712TIP3   OH226626   4.563   0.294   2.779  0.3152  0.4321  1.1186
 1712TIP3    H126627   4.485   0.283   2.834  0.6494 -0.4204  1.4440
 1712TIP3    H226628   4.599   0.206   2.770  2.0545  0.9682  2.1858
 1713TIP3   OH226629   1.387   2.570   5.346 -0.1979  0.0813  0.7887
 1713TIP3    H126630   1.374   2.481   5.315  2.3475 -0.4928  1.1336
 1713TIP3    H226631   1.347   2.626   5.279  1.5808 -1.2213 -1.4757
 1714TIP3   OH226632   6.063   2.699   1.030 -0.1437  0.5504 -0.4244
 1714TIP3    H126633   5.975   2.701   0.992  0.2339  0.5725 -1.3280
 1714TIP3    H226634   6.060   2.763   1.102 -0.4968  1.5506 -1.2985
 1715TIP3   OH226635   3.320   0.053   3.413  0.1213  0.3167 -0.4951
 1715TIP3    H126636   3.343   0.080   3.324 -1.1647  3.0842 -0.0809
 1715TIP3    H226637   3.379   0.102   3.469 -0.8379  0.6581  0.2432
 1716TIP3   OH226638   6.004   0.293   4.755 -0.2481  0.3695  0.3250
 1716TIP3    H126639   5.946   0.241   4.810  1.4612 -1.8707  0.2118
 1716TIP3    H226640   5.985   0.264   4.666  0.3942  0.2525  0.2160
 1717TIP3   OH226641   4.532   1.349  12.205 -0.2734  0.9266 -0.1474
 1717TIP3    H126642   4.533   1.266  12.254  0.6672  0.3789 -1.0592
 1717TIP3    H226643   4.466   1.402  12.250 -0.5417 -0.1284  0.7590
 1718TIP3   OH226644   4.723   5.588   4.978  0.1593 -0.2385  0.0555
 1718TIP3    H126645   4.694   5.564   5.065  0.0907  0.1839  0.1500
 1718TIP3    H226646   4.786   5.520   4.954 -1.5949 -1.7381 -0.5440
 1719TIP3   OH226647   2.609   0.741   4.871 -0.2255  0.2377 -0.5196
 1719TIP3    H126648   2.630   0.715   4.960  0.2095 -1.3048 -1.0326
 1719TIP3    H226649   2.617   0.660   4.820 -0.9866  0.9672 -1.8641
 1720TIP3   OH226650   0.525   0.309   2.439  0.5993 -0.0676  0.2048
 1720TIP3    H126651   0.567   0.230   2.404  0.5183 -0.0119 -0.0206
 1720TIP3    H226652   0.465   0.276   2.507  2.2482 -0.0112  1.7487
 1721TIP3   OH226653   0.166   4.681   3.016 -0.5410  0.5327 -0.0607
 1721TIP3    H126654   0.165   4.593   3.052 -0.5798 -0.3421 -2.0864
 1721TIP3    H226655   0.254   4.713   3.035 -0.1685 -0.3638 -0.2191
 1722TIP3   OH226656   2.346   3.610   3.199  0.2333  0.2364 -0.4424
 1722TIP3    H126657   2.281   3.589   3.266  0.5858  2.5252  0.7174
 1722TIP3    H226658   2.427   3.571   3.231  0.2617  0.7895  0.2012
 1723TIP3   OH226659   1.007   2.854  14.455  0.2413  0.2127 -0.1423
 1723TIP3    H126660   1.083   2.861  14.512 -1.0700  2.1985  1.5416
 1723TIP3    H226661   1.042   2.834  14.368  2.5875  0.4806  0.6968
 1724TIP3   OH226662   6.571   6.344   5.041 -0.2641  0.7274  0.3185
 1724TIP3    H126663   6.531   6.291   4.972  0.3824 -0.1756  0.6289
 1724TIP3    H226664   6.600   6.424   4.996 -0.8195  0.6233 -0.2413
 1725TIP3   OH226665   4.928   5.622   5.251  0.0686 -0.3968  0.3894
 1725TIP3    H126666   4.835   5.641   5.264 -0.2524 -1.6409  0.0265
 1725TIP3    H226667   4.957   5.687   5.187 -0.4608  0.2217  0.7705
 1726TIP3   OH226668   3.330   4.474  12.475 -0.0920  0.5448  0.4572
 1726TIP3    H126669   3.297   4.400  12.425  0.1653  1.6850 -1.5397
 1726TIP3    H226670   3.274   4.548  12.448 -1.0301  0.9535  3.1549
 1727TIP3   OH226671   5.277   6.335  13.386 -0.0571  0.2173 -0.4675
 1727TIP3    H126672   5.212   6.361  13.451 -1.0674 -0.4048 -1.2186
 1727TIP3    H226673   5.283   6.409  13.326  0.3592  0.5022 -0.0873
 1728TIP3   OH226674   1.029   3.146   1.239  0.2763 -0.3516  0.4976
 1728TIP3    H126675   1.093   3.129   1.308 -1.0729 -2.3529  1.3714
 1728TIP3    H226676   0.965   3.076   1.249 -0.1459 -0.5271 -2.6527
 1729TIP3   OH226677   1.861   3.722  14.331 -0.2574 -0.1035  0.2295
 1729TIP3    H126678   1.846   3.690  14.420  2.6912 -0.3481  0.7347
 1729TIP3    H226679   1.846   3.646  14.275  2.5490 -1.4115  1.0537
 1730TIP3   OH226680   6.161   4.340  16.867  0.8487  0.2539  0.2707
 1730TIP3    H126681   6.146   4.407  16.934 -1.7483 -0.9891  1.0889
 1730TIP3    H226682   6.149   4.257  16.913 -1.5934 -0.6502 -1.7476
 1731TIP3   OH226683   4.612   0.206  12.778 -0.0814 -0.6010  0.2528
 1731TIP3    H126684   4.627   0.149  12.703  0.2996 -1.5163  1.0070
 1731TIP3    H226685   4.683   0.270  12.774 -1.0356  0.4360 -1.1226
 1732TIP3   OH226686   0.921   3.125   0.133  0.5325 -0.5971  0.0456
 1732TIP3    H126687   0.924   3.157   0.223  0.4071 -0.4897  0.0113
 1732TIP3    H226688   0.924   3.204   0.079  1.4261 -0.6952 -0.0619
 1733TIP3   OH226689   0.899   6.757  11.896 -0.2584 -0.3496 -0.0303
 1733TIP3    H126690   0.923   6.760  11.803  0.2520 -0.5143  0.0907
 1733TIP3    H226691   0.983   6.767  11.942 -0.3417 -1.6211  0.4163
 1734TIP3   OH226692   2.326   6.037  10.806 -0.1770 -0.0184 -0.1275
 1734TIP3    H126693   2.245   5.990  10.825  0.6854 -1.6324 -0.2040
 1734TIP3    H226694   2.303   6.130  10.814 -1.8864 -0.4449  0.3474
 1735TIP3   OH226695   0.844   6.805   3.576 -0.2706 -0.2490  0.2491
 1735TIP3    H126696   0.807   6.786   3.662 -2.2236 -0.4388 -0.5818
 1735TIP3    H226697   0.802   6.742   3.517  1.4288 -0.4886 -0.7867
 1736TIP3   OH226698   6.034   5.248   1.772 -0.0927  0.0347  0.2872
 1736TIP3    H126699   5.982   5.312   1.722 -0.8333 -0.3452  0.5667
 1736TIP3    H226700   5.980   5.169   1.773  0.6808 -0.4964  0.2244
 1737TIP3   OH226701   5.101   6.426  14.254  0.0693 -0.5390  0.5559
 1737TIP3    H126702   5.121   6.517  14.234 -2.4839 -0.0948 -0.2499
 1737TIP3    H226703   5.102   6.421  14.350  1.4885 -0.0313  0.5968
 1738TIP3   OH226704   6.245   1.478   0.198  0.0717 -0.2974  0.3447
 1738TIP3    H126705   6.219   1.563   0.162 -0.3670 -0.2646  0.7296
 1738TIP3    H226706   6.195   1.414   0.148 -0.5519 -0.2509  0.8994
 1739TIP3   OH226707   0.209   0.345   0.092  0.6184  0.0150  0.1463
 1739TIP3    H126708   0.295   0.316   0.061  0.6252 -0.7987  0.9234
 1739TIP3    H226709   0.179   0.276   0.150 -0.9208 -0.0851 -0.7088
 1740TIP3   OH226710   2.168   5.085  12.681  0.2264  0.1892  0.1522
 1740TIP3    H126711   2.074   5.070  12.676  0.3487 -0.6620  0.2539
 1740TIP3    H226712   2.194   5.103  12.591  0.6551 -4.1270 -0.8218
 1741TIP3   OH226713   2.909   3.095  14.126  0.0884  0.2872  0.6188
 1741TIP3    H126714   2.950   3.063  14.045 -0.9283  1.1385 -0.2664
 1741TIP3    H226715   2.844   3.028  14.148  0.9682 -0.3878  1.2625
 1742TIP3   OH226716   5.829   3.720   2.522  0.0992 -0.0071  0.4414
 1742TIP3    H126717   5.775   3.670   2.461  1.8298 -1.6842  0.1669
 1742TIP3    H226718   5.849   3.802   2.476 -0.5735 -0.2284 -0.2616
 1743TIP3   OH226719   5.927   1.136  15.561  0.0916 -0.4065  0.7929
 1743TIP3    H126720   5.983   1.205  15.595  0.3394 -1.0035  1.6193
 1743TIP3    H226721   5.878   1.104  15.636 -0.1469 -1.0154  0.3931
 1744TIP3   OH226722   6.713   0.141  13.331 -0.3536  0.5276 -0.4829
 1744TIP3    H126723   6.745   0.076  13.394 -0.7712  0.0138 -0.7961
 1744TIP3    H226724   6.625   0.111  13.308 -0.5813  1.2520 -0.5715
 1745TIP3   OH226725   4.456   3.383  15.584 -0.5527  0.2739 -0.0000
 1745TIP3    H126726   4.383   3.321  15.580  0.6950 -1.2049 -1.4734
 1745TIP3    H226727   4.494   3.371  15.671 -1.2486  0.0964  0.2851
 1746TIP3   OH226728   6.672   6.088   0.970 -0.6083  0.1398 -0.1774
 1746TIP3    H126729   6.752   6.118   0.926 -0.6105  0.4306  0.0165
 1746TIP3    H226730   6.698   6.008   1.015 -0.2001  0.7163  0.6215
 1747TIP3   OH226731   3.069   6.620   4.185 -0.5021 -0.0759  0.0948
 1747TIP3    H126732   3.121   6.555   4.139  0.2921  0.5063  0.1527
 1747TIP3    H226733   2.987   6.575   4.207 -0.1446 -0.9055 -0.2660
 1748TIP3   OH226734   3.842   6.046  11.185  0.4292 -0.1911  0.4272
 1748TIP3    H126735   3.807   6.133  11.206  0.1910  0.0167 -0.7882
 1748TIP3    H226736   3.782   5.985  11.227 -0.0760  0.2078  0.2856
 1749TIP3   OH226737   6.308   1.422   2.185 -0.0560 -0.1353 -0.1702
 1749TIP3    H126738   6.334   1.431   2.277 -0.9046 -0.6633  0.1238
 1749TIP3    H226739   6.239   1.487   2.173 -1.0381 -1.1167 -0.0041
 1750TIP3   OH226740   6.227   3.448  14.544 -0.2600  0.3825 -0.3973
 1750TIP3    H126741   6.185   3.427  14.627  0.5321  0.3440  0.0018
 1750TIP3    H226742   6.166   3.416  14.478 -0.3241 -0.7216  0.1803
 1751TIP3   OH226743   5.856   3.414  15.232 -0.1597 -0.1793 -0.0990
 1751TIP3    H126744   5.857   3.496  15.183 -0.1882 -0.6259 -0.8666
 1751TIP3    H226745   5.947   3.400  15.257  0.1745 -0.8549 -1.6006
 1752TIP3   OH226746   3.868   3.845   3.219  0.2800 -0.3984 -0.4685
 1752TIP3    H126747   3.881   3.830   3.126 -0.2972 -0.1646 -0.5913
 1752TIP3    H226748   3.819   3.927   3.224 -1.3217 -1.3268 -0.0719
 1753TIP3   OH226749   0.773   1.415   2.789  0.2307 -0.8855 -0.1252
 1753TIP3    H126750   0.776   1.329   2.748 -3.7649 -1.4089  0.3058
 1753TIP3    H226751   0.744   1.398   2.878 -1.8028  0.8976 -0.3661
 1754TIP3   OH226752   2.143   2.419  12.995  0.3427  0.0265 -0.5347
 1754TIP3    H126753   2.130   2.496  12.940  0.7986  0.7259  0.3100
 1754TIP3    H226754   2.061   2.370  12.987 -0.3457  1.0918 -0.3308
 1755TIP3   OH226755   3.599   0.713  14.058  0.5862 -0.3160 -0.0995
 1755TIP3    H126756   3.592   0.759  13.974 -0.7600 -0.0817  0.1175
 1755TIP3    H226757   3.549   0.767  14.118  0.0972 -1.3913  0.4719
 1756TIP3   OH226758   3.262   5.447   6.273 -0.4368  0.3195  0.1323
 1756TIP3    H126759   3.286   5.466   6.364  0.8007  0.9847 -0.3031
 1756TIP3    H226760   3.250   5.533   6.233  1.8889  0.1771 -1.0272
 1757TIP3   OH226761   5.961   0.534  16.361 -0.1759 -0.2742  0.2844
 1757TIP3    H126762   5.975   0.579  16.278 -1.3711 -0.1597  0.1260
 1757TIP3    H226763   5.970   0.602  16.427 -1.7417  0.1955  0.0609
 1758TIP3   OH226764   6.272   6.160   1.098 -0.2249 -0.2471 -0.0721
 1758TIP3    H126765   6.268   6.207   1.015  0.6470 -1.7439 -1.0243
 1758TIP3    H226766   6.365   6.148   1.115 -0.4118 -1.3971  0.2494
 1759TIP3   OH226767   0.080   2.697   5.082  0.4062  0.4423  0.3908
 1759TIP3    H126768   0.022   2.669   5.153  0.4741 -2.5242 -0.6013
 1759TIP3    H226769   0.168   2.683   5.116  0.4391 -1.9577 -0.5385
 1760TIP3   OH226770   4.885   5.279   6.290 -0.1497 -0.2809 -0.3295
 1760TIP3    H126771   4.930   5.226   6.224  0.3847  0.5867 -0.6707
 1760TIP3    H226772   4.954   5.331   6.331 -0.6854  0.2631 -0.1032
 1761TIP3   OH226773   6.188   5.137   2.313  0.2951  0.3210 -0.2924
 1761TIP3    H126774   6.172   5.043   2.312 -0.1060  0.3563  1.0039
 1761TIP3    H226775   6.282   5.145   2.334  0.7287  0.2070 -2.0586
 1762TIP3   OH226776   6.286   1.779   2.744 -0.2195  0.4020  0.8526
 1762TIP3    H126777   6.306   1.818   2.659  2.1913  3.8914  2.8076
 1762TIP3    H226778   6.194   1.802   2.760 -0.8963 -0.7806 -0.8844
 1763TIP3   OH226779   1.480   0.375   2.398  0.0847 -0.4815 -0.3109
 1763TIP3    H126780   1.517   0.293   2.431 -2.0200 -1.9063 -1.2594
 1763TIP3    H226781   1.436   0.350   2.316  3.4169  2.4980 -3.3359
 1764TIP3   OH226782   4.214   3.771   1.033  0.0175  0.0963  0.0193
 1764TIP3    H126783   4.163   3.775   0.952  1.8597  0.4251 -1.1875
 1764TIP3    H226784   4.167   3.828   1.094 -2.3347 -1.4502 -0.2100
 1765TIP3   OH226785   1.729   1.655   4.320  0.0209 -0.1800  0.2505
 1765TIP3    H126786   1.695   1.572   4.286 -1.7192 -0.2504  1.9727
 1765TIP3    H226787   1.683   1.722   4.271 -0.6926 -0.2758  0.7666
 1766TIP3   OH226788   2.628   0.287   1.344  0.4587 -0.3557 -0.4100
 1766TIP3    H126789   2.683   0.215   1.373 -0.0074 -0.0070  1.4513
 1766TIP3    H226790   2.600   0.331   1.424 -1.5943  0.1855 -1.3340
 1767TIP3   OH226791   5.313   3.385  16.201  0.1016  0.1311 -0.2757
 1767TIP3    H126792   5.346   3.351  16.285  0.0812  2.0628  0.5606
 1767TIP3    H226793   5.388   3.379  16.142  0.3193 -0.5970  0.0515
 1768TIP3   OH226794   5.104   0.679  11.261 -0.1394 -0.0720  0.5034
 1768TIP3    H126795   5.147   0.618  11.201 -2.5868  0.0442 -1.5001
 1768TIP3    H226796   5.018   0.641  11.277 -0.6009  1.3471  1.6706
 1769TIP3   OH226797   1.740   1.027  11.247  0.5687 -0.3094 -0.2416
 1769TIP3    H126798   1.702   0.941  11.264 -0.7977  0.4145  0.4591
 1769TIP3    H226799   1.675   1.072  11.193  0.6195  0.7751  0.5641
 1770TIP3   OH226800   1.758   6.789  13.323 -0.3304  0.5443  0.6257
 1770TIP3    H126801   1.779   6.875  13.287  0.9311  1.2176  2.8008
 1770TIP3    H226802   1.832   6.734  13.297 -0.8042  0.2777 -0.1833
 1771TIP3   OH226803   1.793   1.134   5.626  0.3246 -0.5244  0.0022
 1771TIP3    H126804   1.706   1.095   5.615  0.3242 -0.0485 -2.2405
 1771TIP3    H226805   1.822   1.151   5.537  2.4983 -0.1335  0.7436
 1772TIP3   OH226806   3.725   1.447  15.667  0.5546 -0.4896  0.0369
 1772TIP3    H126807   3.763   1.389  15.600  0.5404  0.7638 -1.1119
 1772TIP3    H226808   3.785   1.522  15.669 -2.0161  1.8589 -2.2823
 1773TIP3   OH226809   3.118   2.556   0.113 -0.1468 -0.6430  0.3426
 1773TIP3    H126810   3.123   2.643   0.154  1.0190  0.2532 -1.5434
 1773TIP3    H226811   3.138   2.572   0.020 -1.1243 -2.7750 -0.3077
 1774TIP3   OH226812   1.537   1.852   2.460  0.1866  0.5795 -0.2443
 1774TIP3    H126813   1.612   1.891   2.415  0.6505 -0.8093 -0.7204
 1774TIP3    H226814   1.575   1.797   2.528 -0.4262  0.4251 -0.0135
 1775TIP3   OH226815   4.968   3.872  15.994 -0.7446 -0.4817  0.4028
 1775TIP3    H126816   4.926   3.944  16.040  0.5759  1.0218 -0.6696
 1775TIP3    H226817   4.915   3.795  16.017 -1.4420  0.5684  2.5885
 1776TIP3   OH226818   2.255   0.039   4.217  0.4155  0.0531 -0.5510
 1776TIP3    H126819   2.290   0.125   4.194 -1.2895  1.4885  1.7250
 1776TIP3    H226820   2.187   0.022   4.152  1.0184  0.2269 -1.2337
 1777TIP3   OH226821   6.566   2.192  10.191  0.0488  0.0226 -0.2558
 1777TIP3    H126822   6.613   2.129  10.244 -1.3662 -1.8653 -1.1350
 1777TIP3    H226823   6.480   2.200  10.233 -0.1860  0.4789 -0.7997
 1778TIP3   OH226824   4.468   0.607   3.307 -0.8809  0.1163  0.0320
 1778TIP3    H126825   4.431   0.559   3.233 -1.4213  0.3018  0.1809
 1778TIP3    H226826   4.525   0.543   3.350  0.6559  0.4519 -1.4150
 1779TIP3   OH226827   1.416   6.504  12.903 -0.4834 -0.1957  0.1049
 1779TIP3    H126828   1.501   6.514  12.859 -0.5670 -0.4946 -0.1265
 1779TIP3    H226829   1.427   6.551  12.986  0.1896 -0.9468  0.4555
 1780TIP3   OH226830   0.621   1.223   5.060  0.3440  0.5227 -0.1149
 1780TIP3    H126831   0.653   1.152   5.005 -0.8815 -0.4339  0.3522
 1780TIP3    H226832   0.535   1.244   5.025 -0.0472  0.5507  0.8199
 1781TIP3   OH226833   5.036   4.448  12.860 -0.1688 -0.8208 -0.2563
 1781TIP3    H126834   5.019   4.404  12.943  1.0773  1.7298  1.4823
 1781TIP3    H226835   5.104   4.394  12.818 -0.3747 -1.8135  0.6348
 1782TIP3   OH226836   2.145   2.790   1.171 -0.1429 -0.0087  0.2201
 1782TIP3    H126837   2.121   2.706   1.212 -0.2301  0.3649  0.9500
 1782TIP3    H226838   2.066   2.843   1.179 -0.1664  0.0729 -0.4604
 1783TIP3   OH226839   2.643   0.026  15.287  0.2898 -0.0039  0.0458
 1783TIP3    H126840   2.585   0.099  15.268 -0.7379 -0.1286  2.3295
 1783TIP3    H226841   2.585  -0.051  15.286  0.8795 -0.4548  0.0688
 1784TIP3   OH226842   5.329   3.527  11.441 -0.5999 -0.1909 -1.5801
 1784TIP3    H126843   5.351   3.614  11.407 -0.1385  0.5510  0.4860
 1784TIP3    H226844   5.237   3.534  11.467  0.1918  0.6892  1.3100
 1785TIP3   OH226845   5.726   4.260  14.386  0.2492 -0.3273  0.3289
 1785TIP3    H126846   5.792   4.284  14.320  1.4350 -1.6053  0.9848
 1785TIP3    H226847   5.720   4.336  14.444  0.8679 -0.0516  0.0409
 1786TIP3   OH226848   2.543   5.848  11.399 -0.3071 -0.2990  0.2126
 1786TIP3    H126849   2.514   5.906  11.328 -1.8115 -0.6247  0.5360
 1786TIP3    H226850   2.541   5.903  11.477  0.0253 -0.3117  0.2322
 1787TIP3   OH226851   1.604   3.041  13.407  0.4051 -0.0800 -0.9640
 1787TIP3    H126852   1.671   3.035  13.339 -0.0286 -0.5076 -1.3601
 1787TIP3    H226853   1.588   3.134  13.417  1.7687  0.0985 -0.1529
 1788TIP3   OH226854   6.781   4.633  15.079 -0.3413  0.2710 -0.1160
 1788TIP3    H126855   6.769   4.574  15.005 -0.1410 -1.5408  1.2243
 1788TIP3    H226856   6.862   4.603  15.121  0.0879  1.8912  0.2693
 1789TIP3   OH226857   0.110   6.039  15.127 -0.8114  0.6402 -0.3416
 1789TIP3    H126858   0.076   6.016  15.040 -0.4014  0.8127 -0.5460
 1789TIP3    H226859   0.037   6.084  15.170 -0.9021  0.8469 -0.7159
 1790TIP3   OH226860   2.982   5.853   0.098 -0.4963  0.4310 -0.3036
 1790TIP3    H126861   3.070   5.887   0.079 -1.0125  0.9429 -1.9156
 1790TIP3    H226862   2.940   5.924   0.147 -0.0004  0.1534  0.5417
 1791TIP3   OH226863   3.278   1.783   4.296  0.2551  0.6432 -0.5334
 1791TIP3    H126864   3.240   1.697   4.311 -0.5956  1.2016  0.7170
 1791TIP3    H226865   3.209   1.831   4.249  0.9513  0.4852 -1.7653
 1792TIP3   OH226866   4.067   2.555  17.015 -0.0380 -0.5112 -0.5173
 1792TIP3    H126867   4.112   2.622  16.964  1.4576 -1.0921 -0.0293
 1792TIP3    H226868   3.974   2.577  17.009  0.2730  0.5118 -1.8975
 1793TIP3   OH226869   0.101   4.581  11.721  0.2518 -0.1883  0.2112
 1793TIP3    H126870   0.072   4.530  11.645 -0.3247  0.9368 -0.3571
 1793TIP3    H226871   0.123   4.667  11.684  0.4849  0.2055  1.2438
 1794TIP3   OH226872   1.011   0.021   2.815  0.1781 -0.4271 -0.6424
 1794TIP3    H126873   0.964   0.076   2.877 -0.2731 -1.9330  0.4139
 1794TIP3    H226874   1.102   0.049   2.822  0.2305 -0.8881  1.1245
 1795TIP3   OH226875   5.500   4.011  13.323 -0.5321  0.1793 -0.1526
 1795TIP3    H126876   5.578   4.056  13.290 -1.0499  1.2317  0.0250
 1795TIP3    H226877   5.458   4.075  13.381 -1.4978 -0.3853 -0.2066
 1796TIP3   OH226878   1.916   3.776  15.291 -0.2887  0.3720  0.0647
 1796TIP3    H126879   1.863   3.781  15.371  1.2414  0.5837  1.0881
 1796TIP3    H226880   1.902   3.861  15.248 -0.5594  0.5267  0.4578
 1797TIP3   OH226881   3.841   1.966  13.532 -0.4117 -0.0191  0.0225
 1797TIP3    H126882   3.760   2.016  13.519 -0.8377 -0.3913  1.1070
 1797TIP3    H226883   3.814   1.875  13.523 -0.4003 -0.2142  1.5932
 1798TIP3   OH226884   5.475   1.982  12.664  0.1324 -0.0189 -0.2813
 1798TIP3    H126885   5.518   1.903  12.697 -0.7242 -0.1232  0.6387
 1798TIP3    H226886   5.393   1.987  12.714 -0.6732  0.4601 -1.6058
 1799TIP3   OH226887   6.795   1.485  10.923  0.9280  0.0176 -0.0524
 1799TIP3    H126888   6.786   1.426  10.849  0.6879  0.2897 -0.2441
 1799TIP3    H226889   6.878   1.531  10.907  1.5785 -0.9003  0.5608
 1800TIP3   OH226890   1.611   3.263   1.128  0.2203 -0.2481  0.5503
 1800TIP3    H126891   1.642   3.173   1.118  0.7605 -0.0804  0.6689
 1800TIP3    H226892   1.574   3.266   1.216  0.4134 -0.2946  0.6344
 1801TIP3   OH226893   4.225   4.729  16.477 -0.2467 -0.0440  0.2194
 1801TIP3    H126894   4.178   4.798  16.525  0.2295 -0.5953  1.5105
 1801TIP3    H226895   4.272   4.680  16.544  2.2422  0.4887 -0.9918
 1802TIP3   OH226896   3.696   4.405   2.959 -0.5494 -0.0774 -0.1345
 1802TIP3    H126897   3.761   4.345   2.995  1.2849  1.8269 -0.0656
 1802TIP3    H226898   3.707   4.400   2.864 -0.3829  0.1385 -0.1283
 1803TIP3   OH226899   4.126   6.336   1.971  0.1133  0.4872  0.0766
 1803TIP3    H126900   4.056   6.355   1.909 -0.1467  0.0704  0.2371
 1803TIP3    H226901   4.099   6.254   2.014  1.9117 -1.1214 -1.6677
 1804TIP3   OH226902   2.499   2.370  12.326  0.0425  0.0364  0.7779
 1804TIP3    H126903   2.587   2.366  12.363  0.4065  2.1495  0.2792
 1804TIP3    H226904   2.513   2.405  12.238 -1.2664 -0.0728  0.5172
 1805TIP3   OH226905   1.245   1.215  16.032 -0.2584  0.6259  0.7568
 1805TIP3    H126906   1.253   1.288  15.971 -2.3961  0.5300  0.2503
 1805TIP3    H226907   1.322   1.161  16.015  0.0394  1.4420 -0.7035
 1806TIP3   OH226908   3.290   0.222   0.558 -0.2585 -0.5752  0.3675
 1806TIP3    H126909   3.297   0.154   0.625  1.0457 -1.6818 -0.8179
 1806TIP3    H226910   3.373   0.270   0.564 -0.6872  0.1750  0.4142
 1807TIP3   OH226911   2.967   2.365  14.027 -0.3857  0.3784  0.3491
 1807TIP3    H126912   3.018   2.385  13.949  1.4485 -1.6367  0.9422
 1807TIP3    H226913   2.876   2.360  13.996  0.4055 -1.5277 -1.9417
 1808TIP3   OH226914   6.399   1.156   3.512 -0.2595  0.0779 -0.2592
 1808TIP3    H126915   6.466   1.089   3.505 -0.5435 -0.2986  0.5535
 1808TIP3    H226916   6.445   1.238   3.497  0.2692 -0.2189 -0.2783
 1809TIP3   OH226917   6.212   4.640  13.162  0.5051 -0.0134  0.1072
 1809TIP3    H126918   6.265   4.711  13.126 -1.1490  0.9324 -0.5683
 1809TIP3    H226919   6.251   4.622  13.247  1.8493  0.6893 -0.3284
 1810TIP3   OH226920   0.495   4.310  12.734 -0.2531 -0.0321  0.5934
 1810TIP3    H126921   0.530   4.383  12.784 -0.0109 -0.4759  1.0828
 1810TIP3    H226922   0.463   4.248  12.800 -0.8899 -0.1556  0.1737
 1811TIP3   OH226923   5.962   3.864  16.608 -0.5647  0.4929 -0.0407
 1811TIP3    H126924   5.958   3.959  16.617  0.2930  0.4213  1.4291
 1811TIP3    H226925   6.029   3.836  16.671  1.4808 -0.8309 -2.6146
 1812TIP3   OH226926   5.696   4.810  15.014  0.0871 -0.5595 -0.7005
 1812TIP3    H126927   5.676   4.881  14.953 -0.5657 -0.4189 -0.3293
 1812TIP3    H226928   5.792   4.810  15.020  0.0596  1.2977  0.4632
 1813TIP3   OH226929   4.212   6.189   2.903  0.0291  0.8969 -0.3023
 1813TIP3    H126930   4.214   6.243   2.982 -0.1847 -0.5059  0.6862
 1813TIP3    H226931   4.120   6.168   2.890  0.3096 -1.3705  0.8713
 1814TIP3   OH226932   1.380   5.996  12.160 -0.6162 -0.3111 -0.4892
 1814TIP3    H126933   1.359   5.927  12.096 -0.8286  0.2006 -0.9787
 1814TIP3    H226934   1.336   6.074  12.126 -1.7931 -0.3082  0.9445
 1815TIP3   OH226935   4.606   1.389  14.769  0.1714  0.1513 -0.7241
 1815TIP3    H126936   4.527   1.335  14.760  1.5445 -2.3053  0.7838
 1815TIP3    H226937   4.670   1.347  14.711  0.9961  0.7381 -0.2491
 1816TIP3   OH226938   5.240   2.436   1.669  0.0553 -0.2665 -0.4970
 1816TIP3    H126939   5.280   2.419   1.583 -0.1802  0.7197 -0.8151
 1816TIP3    H226940   5.185   2.514   1.655  0.9262  0.6313  0.8202
 1817TIP3   OH226941   1.534   2.154  12.328 -0.7177 -0.1624  0.0043
 1817TIP3    H126942   1.453   2.175  12.280 -0.3282  0.4962 -0.3835
 1817TIP3    H226943   1.518   2.186  12.417 -0.7789  0.2265 -0.1448
 1818TIP3   OH226944   6.564   3.781   2.192  0.4149  0.7979 -0.3239
 1818TIP3    H126945   6.530   3.714   2.251 -1.4058  2.5261  0.7087
 1818TIP3    H226946   6.645   3.811   2.234  1.1129 -0.5512 -0.6756
 1819TIP3   OH226947   1.824   6.392   0.570  0.6180 -0.1204 -0.0352
 1819TIP3    H126948   1.835   6.446   0.648 -1.4900 -1.7988  1.5403
 1819TIP3    H226949   1.766   6.443   0.513  1.9424  0.9891 -0.4381
 1820TIP3   OH226950   1.786   0.006  16.998  0.4893 -0.1405  0.1323
 1820TIP3    H126951   1.772   0.086  17.049  0.1444 -0.7617  1.0281
 1820TIP3    H226952   1.710   0.001  16.940  1.8314  1.6462 -1.9864
 1821TIP3   OH226953   0.192   2.537   3.659  0.0818 -0.3187 -0.1403
 1821TIP3    H126954   0.255   2.607   3.673 -0.1367  0.0219 -0.8023
 1821TIP3    H226955   0.155   2.555   3.572  0.0062 -1.2361 -0.3066
 1822TIP3   OH226956   3.237   5.797   5.665 -0.1996 -0.0952 -0.4797
 1822TIP3    H126957   3.180   5.869   5.637  1.5830  1.0754 -1.2283
 1822TIP3    H226958   3.301   5.788   5.595  0.4839 -1.4641  0.2837
 1823TIP3   OH226959   5.367   6.730  11.502  0.3768 -0.4035  0.0987
 1823TIP3    H126960   5.285   6.757  11.543  0.3159 -0.9787  0.3703
 1823TIP3    H226961   5.342   6.659  11.442  0.8777 -1.8205  1.4850
 1824TIP3   OH226962   1.912   0.921   3.382  0.3359 -0.1428  0.1430
 1824TIP3    H126963   1.927   0.827   3.390 -1.7352 -0.6461 -0.9227
 1824TIP3    H226964   1.917   0.938   3.288  0.1822  0.6936  0.2766
 1825TIP3   OH226965   1.639   4.756  12.232  0.0774 -0.2811 -0.3382
 1825TIP3    H126966   1.688   4.678  12.257  0.3138  0.5823  2.2770
 1825TIP3    H226967   1.703   4.827  12.237 -1.1538  0.7874  2.5829
 1826TIP3   OH226968   0.911   3.691   1.514 -0.3042  0.1373 -0.2612
 1826TIP3    H126969   0.866   3.744   1.580 -0.7713  0.4173 -0.7986
 1826TIP3    H226970   0.981   3.648   1.562 -0.2025  0.8866  0.2877
 1827TIP3   OH226971   3.360   0.935  14.182  0.1270 -0.4942 -0.0305
 1827TIP3    H126972   3.288   0.883  14.217  0.1969 -0.8378 -0.3836
 1827TIP3    H226973   3.434   0.915  14.239  0.2634 -1.1176 -0.4110
 1828TIP3   OH226974   4.540   0.740   4.967  0.5802  0.2732 -0.0436
 1828TIP3    H126975   4.477   0.721   4.897 -2.1021  2.1443  1.6501
 1828TIP3    H226976   4.570   0.654   4.996  0.6931 -0.5919 -2.4683
 1829TIP3   OH226977   5.935   2.589  13.670  0.3712  0.2366  0.3606
 1829TIP3    H126978   6.004   2.648  13.639  0.9870 -0.0716  1.1054
 1829TIP3    H226979   5.859   2.646  13.684  1.4731  1.2057  2.8096
 1830TIP3   OH226980   2.197   5.106   4.999  0.4451 -0.4644 -0.1518
 1830TIP3    H126981   2.273   5.111   5.057  0.7789 -0.6342 -0.5693
 1830TIP3    H226982   2.186   5.196   4.967 -0.1199 -0.2419  0.6489
 1831TIP3   OH226983   4.533   5.385  15.711 -0.0883 -1.0022 -0.2014
 1831TIP3    H126984   4.554   5.478  15.719  1.4859 -1.1196 -2.2919
 1831TIP3    H226985   4.437   5.381  15.719 -0.0832  0.5999  1.1953
 1832TIP3   OH226986   4.266   1.502   3.952  0.6585 -0.0239 -0.1202
 1832TIP3    H126987   4.330   1.540   4.013  0.2431  1.4089 -0.5326
 1832TIP3    H226988   4.281   1.549   3.870 -0.6522  0.0442 -0.3372
 1833TIP3   OH226989   4.161   4.031  12.554 -0.5759  0.0792 -0.2659
 1833TIP3    H126990   4.092   4.029  12.620  0.8302  0.6761  1.3021
 1833TIP3    H226991   4.182   3.939  12.538 -2.7406 -0.1902 -1.9471
 1834TIP3   OH226992   4.905   5.207  12.677  0.5566  0.4388 -0.2061
 1834TIP3    H126993   4.902   5.153  12.598 -1.2035  2.4229 -1.6028
 1834TIP3    H226994   4.994   5.243  12.678  0.3921  0.9329 -1.6853
 1835TIP3   OH226995   3.415   0.704   4.276 -0.0936 -0.5694 -0.6084
 1835TIP3    H126996   3.366   0.663   4.204 -2.3955 -0.7207  0.9267
 1835TIP3    H226997   3.471   0.769   4.232 -3.2089  1.1218 -2.4873
 1836TIP3   OH226998   0.674   0.742   4.856  0.3857  0.2050  0.5836
 1836TIP3    H126999   0.742   0.697   4.805 -0.8869 -0.8619 -0.2728
 1836TIP3    H227000   0.595   0.690   4.840 -1.3018  2.9598 -0.7976
 1837TIP3   OH227001   1.418   3.417  16.409  0.7290 -0.1180  0.0290
 1837TIP3    H127002   1.353   3.428  16.478 -0.3859 -0.0592 -0.9918
 1837TIP3    H227003   1.479   3.351  16.443 -0.0056 -0.3693  0.9010
 1838TIP3   OH227004   0.765   4.191  15.922  0.4953  0.3584 -0.1930
 1838TIP3    H127005   0.766   4.112  15.867 -2.0244  0.0236  0.1234
 1838TIP3    H227006   0.827   4.251  15.879  0.6412 -0.8851 -1.8190
 1839TIP3   OH227007   1.798   4.921   4.636  0.7834 -0.1137  0.1717
 1839TIP3    H127008   1.811   4.998   4.581  1.9393 -1.1988 -1.1633
 1839TIP3    H227009   1.883   4.907   4.679  0.6326 -0.6966  0.2998
 1840TIP3   OH227010   3.205   1.658  12.690 -0.0269 -0.2972  0.0851
 1840TIP3    H127011   3.119   1.636  12.726 -0.6417  0.9204 -0.5532
 1840TIP3    H227012   3.244   1.575  12.666 -0.8875 -0.8944  0.6979
 1841TIP3   OH227013   5.494   6.580   0.378 -0.2926 -0.1381 -0.3348
 1841TIP3    H127014   5.529   6.654   0.328  0.4268 -0.2574 -0.0195
 1841TIP3    H227015   5.433   6.538   0.318 -0.3061  0.3977 -0.7044
 1842TIP3   OH227016   2.217   0.910  11.000 -0.0018 -0.1838  0.1684
 1842TIP3    H127017   2.179   0.940  10.918  1.0883  0.4713 -0.1207
 1842TIP3    H227018   2.167   0.955  11.068  1.2938  2.0344 -0.2412
 1843TIP3   OH227019   1.564   3.566   2.724 -0.5637 -0.3374 -0.4130
 1843TIP3    H127020   1.590   3.518   2.803 -0.9497  0.7476  0.4121
 1843TIP3    H227021   1.477   3.532   2.703 -2.0154  1.7052  1.7212
 1844TIP3   OH227022   5.006   1.287   4.297 -0.3722 -0.0924  0.4810
 1844TIP3    H127023   5.028   1.368   4.342  0.4813 -0.5745  0.9644
 1844TIP3    H227024   5.003   1.221   4.366  0.6645 -0.7859 -0.1138
 1845TIP3   OH227025   6.488   1.162   5.305  0.3332 -0.0421  0.4461
 1845TIP3    H127026   6.445   1.223   5.245  0.2079 -0.8214 -0.2847
 1845TIP3    H227027   6.565   1.209   5.336 -0.0409  0.6775  0.3131
 1846TIP3   OH227028   2.735   2.337   1.758 -0.1434  0.4729  0.0703
 1846TIP3    H127029   2.822   2.307   1.731 -1.0910 -1.8329 -0.6666
 1846TIP3    H227030   2.689   2.257   1.786 -1.9038  1.6737  0.8015
 1847TIP3   OH227031   0.531   0.553  14.613 -0.6890  0.1673  0.4184
 1847TIP3    H127032   0.491   0.629  14.656 -1.1853 -0.3664  0.9216
 1847TIP3    H227033   0.604   0.529  14.670 -1.0414 -0.2350  0.7076
 1848TIP3   OH227034   3.739   5.738  12.257  0.4818  0.1992  0.4423
 1848TIP3    H127035   3.670   5.803  12.271  0.0107 -0.1499 -0.2213
 1848TIP3    H227036   3.790   5.740  12.338 -1.1533 -0.5509  1.5462
 1849TIP3   OH227037   0.070   0.108  14.441  0.6048 -0.2039 -0.4734
 1849TIP3    H127038   0.068   0.103  14.537  2.1719 -1.9842 -0.4811
 1849TIP3    H227039   0.028   0.192  14.421  1.0762  0.6585  1.8054
 1850TIP3   OH227040   6.058   4.033  12.069 -0.5341  0.1066  0.3984
 1850TIP3    H127041   6.009   4.113  12.050 -0.3327 -0.3449 -2.5909
 1850TIP3    H227042   6.145   4.050  12.033  0.1216 -0.7699  1.5265
 1851TIP3   OH227043   4.900   5.528   0.338 -0.0254 -0.1454  0.3136
 1851TIP3    H127044   4.991   5.548   0.361  0.4293  0.3945 -1.7470
 1851TIP3    H227045   4.897   5.432   0.338  0.7371 -0.1856 -0.1974
 1852TIP3   OH227046   1.574   0.176   2.929  0.1398  0.7696 -0.5707
 1852TIP3    H127047   1.656   0.150   2.888  0.3001  1.1912 -0.5170
 1852TIP3    H227048   1.593   0.175   3.023  0.7912  3.1899 -0.6283
 1853TIP3   OH227049   1.335   1.661   6.369  0.0506 -0.6854  0.0888
 1853TIP3    H127050   1.308   1.578   6.408 -1.5134  0.3240  1.2899
 1853TIP3    H227051   1.270   1.724   6.399  0.0050  0.6102 -2.4676
 1854TIP3   OH227052   6.673   1.195  14.321 -0.1691  0.0760  0.7606
 1854TIP3    H127053   6.730   1.239  14.258 -1.8620  0.5875 -0.4834
 1854TIP3    H227054   6.653   1.110  14.281 -2.2810  0.9062 -0.0875
 1855TIP3   OH227055   3.259   1.039   0.299  0.2646 -0.9614 -0.3068
 1855TIP3    H127056   3.316   0.981   0.350  1.8498  0.2407 -0.6320
 1855TIP3    H227057   3.214   1.092   0.364 -1.5996 -2.8263  0.0256
 1856TIP3   OH227058   6.439   6.127  16.896  0.7798  0.2229  0.0671
 1856TIP3    H127059   6.375   6.169  16.952 -0.5643 -0.2468 -1.0470
 1856TIP3    H227060   6.406   6.037  16.884  0.5977  0.5073 -2.0044
 1857TIP3   OH227061   3.511   5.610  16.664 -0.2837 -0.0888  0.3315
 1857TIP3    H127062   3.579   5.669  16.698 -0.8768  0.4846  0.5375
 1857TIP3    H227063   3.446   5.668  16.625 -1.6089 -0.4973  1.8512
 1858TIP3   OH227064   4.121   5.507  11.884 -0.0693 -0.0471  0.2346
 1858TIP3    H127065   4.045   5.450  11.891 -0.6616  0.6510 -0.3487
 1858TIP3    H227066   4.085   5.594  11.870  0.8290  0.3780  0.4580
 1859TIP3   OH227067   5.894   5.025  12.957 -0.6822  0.4057  0.3036
 1859TIP3    H127068   5.932   4.962  13.020 -0.3491  1.1857  0.8963
 1859TIP3    H227069   5.891   5.107  13.005  2.3716  1.8092 -1.6092
 1860TIP3   OH227070   3.143   5.887   3.540 -0.3419  0.4229  0.0527
 1860TIP3    H127071   3.144   5.983   3.545  1.3057  0.4905 -0.9001
 1860TIP3    H227072   3.148   5.868   3.446  0.4102 -0.5778  0.2764
 1861TIP3   OH227073   2.741   1.266  16.262 -0.1436 -0.8200 -0.2674
 1861TIP3    H127074   2.766   1.175  16.275  1.3967 -0.3591  0.1331
 1861TIP3    H227075   2.699   1.292  16.344  1.6416 -0.4711  0.5682
 1862TIP3   OH227076   1.131   4.479  15.815  0.4799  0.2585 -0.0297
 1862TIP3    H127077   1.135   4.558  15.759 -0.9504  1.3942  1.3953
 1862TIP3    H227078   1.039   4.453  15.814  0.7510 -0.7639  0.4048
 1863TIP3   OH227079   1.452   2.516  10.518 -0.0155  0.3313  0.3535
 1863TIP3    H127080   1.523   2.520  10.582 -1.0024  0.5396  1.4754
 1863TIP3    H227081   1.459   2.599  10.470  1.9019 -0.6282 -1.1667
 1864TIP3   OH227082   1.751   3.951   4.182  0.1585  0.9183  0.0846
 1864TIP3    H127083   1.743   3.959   4.277  1.1290  1.8720  0.1064
 1864TIP3    H227084   1.677   4.002   4.148 -1.0138 -0.5604  0.3019
 1865TIP3   OH227085   5.296   4.255   1.789 -0.0018 -0.0118 -0.1272
 1865TIP3    H127086   5.341   4.323   1.840 -1.6299  0.9082  0.1482
 1865TIP3    H227087   5.204   4.263   1.814 -0.6790 -0.3217 -2.3404
 1866TIP3   OH227088   0.408   1.944  14.191  0.1617  0.3444 -0.3626
 1866TIP3    H127089   0.476   2.008  14.213  3.1700 -3.1861  1.7984
 1866TIP3    H227090   0.442   1.900  14.113  0.2488 -1.2543  0.5508
 1867TIP3   OH227091   5.755   1.455  14.442  0.1994 -0.1243 -0.6311
 1867TIP3    H127092   5.675   1.417  14.477 -0.2905  0.1496 -1.4068
 1867TIP3    H227093   5.824   1.424  14.499 -0.2403 -1.7979 -0.9558
 1868TIP3   OH227094   1.356   4.057  11.540  0.1406 -0.0047 -0.3757
 1868TIP3    H127095   1.450   4.037  11.540  0.4052  1.1261 -1.4208
 1868TIP3    H227096   1.315   3.976  11.511  0.8073 -0.4483 -0.1134
 1869TIP3   OH227097   2.898   0.271   4.769  0.0108  0.1554 -0.0347
 1869TIP3    H127098   2.882   0.286   4.863  1.0932 -1.0411  0.3702
 1869TIP3    H227099   2.949   0.190   4.766 -2.0641 -1.1893 -1.8250
 1870TIP3   OH227100   2.285   6.489   5.986 -0.3456  0.1406 -0.6996
 1870TIP3    H127101   2.327   6.552   6.043  0.0739 -0.1318 -0.7013
 1870TIP3    H227102   2.328   6.405   6.006 -0.0306  0.0775 -1.5575
 1871TIP3   OH227103   0.781   1.072   1.367  0.2483 -0.0241 -0.2206
 1871TIP3    H127104   0.731   1.002   1.325  1.2932 -1.1934  0.4092
 1871TIP3    H227105   0.832   1.111   1.296 -0.3565  0.1096 -0.5818
 1872TIP3   OH227106   1.878   5.835   5.356  0.0573  0.0046  0.5112
 1872TIP3    H127107   1.827   5.914   5.342  0.2808  0.2998  1.2881
 1872TIP3    H227108   1.960   5.850   5.309  0.3609  0.5208  1.1841
 1873TIP3   OH227109   4.333   0.822   4.618 -0.3525 -0.3632 -0.6477
 1873TIP3    H127110   4.397   0.893   4.612 -0.8042  0.1734  0.4827
 1873TIP3    H227111   4.354   0.778   4.701 -1.1897 -0.4365 -0.4699
 1874TIP3   OH227112   6.659   5.665   0.153 -0.3680  0.2463  0.5281
 1874TIP3    H127113   6.730   5.710   0.199 -2.4401  3.5017  0.8341
 1874TIP3    H227114   6.657   5.705   0.066 -1.9105  0.4143  0.6043
 1875TIP3   OH227115   3.170   3.303   2.237 -0.7941 -0.3895  0.6350
 1875TIP3    H127116   3.263   3.282   2.238 -0.4977  0.8442  1.3190
 1875TIP3    H227117   3.133   3.243   2.172  0.5611 -0.5591 -0.0340
 1876TIP3   OH227118   3.398   3.544   5.724  0.3167  0.4860 -0.1128
 1876TIP3    H127119   3.304   3.535   5.711  0.3177  0.2804  0.0070
 1876TIP3    H227120   3.425   3.460   5.763  0.5581  0.5208 -0.2005
 1877TIP3   OH227121   5.240   6.009  11.650  0.5781  0.3155  1.2515
 1877TIP3    H127122   5.233   6.103  11.668 -0.9138  0.6870 -0.7691
 1877TIP3    H227123   5.183   5.968  11.715  1.4074  0.7646  2.2873
 1878TIP3   OH227124   3.420   2.806   5.157 -0.0343  0.0824 -0.1957
 1878TIP3    H127125   3.327   2.821   5.170  0.2479  0.9478  1.0089
 1878TIP3    H227126   3.454   2.890   5.127  1.0694  1.2329  3.7199
 1879TIP3   OH227127   0.810   5.939   3.115 -0.3281 -0.5896 -0.1030
 1879TIP3    H127128   0.805   5.921   3.021 -1.8027 -2.4220  0.2538
 1879TIP3    H227129   0.889   5.894   3.144  0.7071  0.8617 -0.6111
 1880TIP3   OH227130   3.188   3.276   4.800 -0.3180  0.6853  0.3025
 1880TIP3    H127131   3.219   3.186   4.788  0.6915  0.9500  0.8162
 1880TIP3    H227132   3.240   3.309   4.873 -2.0456  1.0528  1.4294
 1881TIP3   OH227133   0.873   1.316   0.591 -0.8012 -0.1814 -0.0169
 1881TIP3    H127134   0.855   1.347   0.502 -0.5996  0.4189  0.1492
 1881TIP3    H227135   0.797   1.345   0.642 -0.9899 -0.6589 -0.0227
 1882TIP3   OH227136   1.832   4.625  12.967  0.6778 -0.4255 -0.1350
 1882TIP3    H127137   1.924   4.606  12.946  0.2994 -2.6233 -0.0199
 1882TIP3    H227138   1.820   4.589  13.055 -0.3876 -0.4854 -0.2971
 1883TIP3   OH227139   0.097   2.926   3.831 -0.1406  0.1525  0.2763
 1883TIP3    H127140   0.101   2.896   3.740  0.4885  3.1433 -0.7768
 1883TIP3    H227141   0.004   2.938   3.848 -0.4830 -2.8073  0.9673
 1884TIP3   OH227142   0.401   6.117  14.714 -0.0287 -0.1722 -0.1966
 1884TIP3    H127143   0.317   6.161  14.705  1.2703  2.3070 -0.9154
 1884TIP3    H227144   0.448   6.136  14.633  1.5137 -0.9124  0.4727
 1885TIP3   OH227145   2.782   1.876   2.445  0.1093 -0.7858  0.2452
 1885TIP3    H127146   2.733   1.827   2.511 -0.8835  2.2405  1.9468
 1885TIP3    H227147   2.873   1.872   2.475  0.0127 -1.4240  0.4629
 1886TIP3   OH227148   0.204   2.571   0.648  0.3600 -0.3609  0.1798
 1886TIP3    H127149   0.205   2.521   0.566 -0.4568 -0.5322  0.2716
 1886TIP3    H227150   0.274   2.635   0.637  0.4724 -0.5895 -0.5194
 1887TIP3   OH227151   4.398   6.321   1.860 -0.0310 -0.0969  0.6284
 1887TIP3    H127152   4.414   6.404   1.815  0.4291  0.7590  2.2897
 1887TIP3    H227153   4.311   6.331   1.898 -0.6704 -1.0491 -0.5303
 1888TIP3   OH227154   6.473   1.524   5.735 -0.0570 -0.3624  0.5227
 1888TIP3    H127155   6.425   1.544   5.654 -1.3454 -1.3501  1.0008
 1888TIP3    H227156   6.513   1.438   5.718 -1.5115 -1.2583  1.3830
 1889TIP3   OH227157   3.068   2.081   2.866 -0.2881  0.1279  0.2214
 1889TIP3    H127158   3.044   2.106   2.776  0.3897  0.6688  0.1803
 1889TIP3    H227159   2.984   2.063   2.909 -0.5732 -0.9637 -0.7482
 1890TIP3   OH227160   1.401   5.498  11.507  0.0984 -0.0772  0.2490
 1890TIP3    H127161   1.370   5.416  11.545 -0.1365 -0.0286  0.1592
 1890TIP3    H227162   1.342   5.565  11.543 -2.2936 -0.3609 -2.7350
 1891TIP3   OH227163   2.883   4.184  12.716 -0.0206  0.5452  0.3127
 1891TIP3    H127164   2.919   4.111  12.667  0.7483  0.3185  1.1972
 1891TIP3    H227165   2.789   4.182  12.696  0.1013 -0.2366 -0.2280
 1892TIP3   OH227166   2.230   6.452  13.173  0.0223 -0.1937  0.3138
 1892TIP3    H127167   2.228   6.507  13.095 -2.5713  2.2246  1.8903
 1892TIP3    H227168   2.300   6.489  13.227  0.2676 -0.3744  0.1209
 1893TIP3   OH227169   1.204   3.258   5.572 -0.2777  0.0273  0.3283
 1893TIP3    H127170   1.114   3.234   5.552 -0.7657  2.1161 -0.2829
 1893TIP3    H227171   1.253   3.238   5.492 -0.5869  0.6037 -0.0135
 1894TIP3   OH227172   2.669   2.028  16.047 -0.3802  0.2171  0.1785
 1894TIP3    H127173   2.646   1.973  16.121  0.2500 -1.4831 -0.8333
 1894TIP3    H227174   2.763   2.043  16.057  0.3689 -2.4760 -1.7294
 1895TIP3   OH227175   6.805   5.337   3.316  0.3302 -0.1851 -0.4337
 1895TIP3    H127176   6.858   5.405   3.274 -0.3084 -0.2470 -1.3623
 1895TIP3    H227177   6.818   5.351   3.410 -1.0520  2.2815 -0.5238
 1896TIP3   OH227178   0.007   2.447   1.580  0.4311  0.4578  0.3014
 1896TIP3    H127179  -0.034   2.452   1.666 -0.0614  2.3002  0.0026
 1896TIP3    H227180  -0.065   2.440   1.519  0.7840 -0.9496  0.0087
 1897TIP3   OH227181   1.942   5.288   4.875  0.1417 -0.2237  0.3469
 1897TIP3    H127182   1.906   5.357   4.930 -1.0046  0.0795 -0.7454
 1897TIP3    H227183   1.899   5.299   4.790  1.0978 -1.3120 -0.3133
 1898TIP3   OH227184   1.391   0.622  16.621  0.0506  0.5587  0.1071
 1898TIP3    H127185   1.391   0.663  16.535  0.2421 -0.3476 -0.3290
 1898TIP3    H227186   1.439   0.684  16.677  1.2531  0.4522 -0.7755
 1899TIP3   OH227187   2.336   6.229   4.362  0.0170 -0.3649 -1.1348
 1899TIP3    H127188   2.421   6.271   4.347 -0.6444  2.2198  1.4960
 1899TIP3    H227189   2.357   6.150   4.413  0.8315  0.3148 -0.3984
 1900TIP3   OH227190   0.936   3.115  14.508  0.6762  0.1803 -0.2121
 1900TIP3    H127191   0.853   3.126  14.462 -0.3345 -0.3565  1.3783
 1900TIP3    H227192   0.964   3.026  14.489  0.4520  0.0860 -0.1043
 1901TIP3   OH227193   6.855   0.149   3.331 -0.1128 -0.2011 -0.3063
 1901TIP3    H127194   6.855   0.079   3.397 -0.8162  0.3293  0.2769
 1901TIP3    H227195   6.932   0.201   3.352 -1.4365  1.1811  1.4733
 1902TIP3   OH227196   5.372   0.715  12.690  0.3097 -0.0835 -0.9780
 1902TIP3    H127197   5.419   0.678  12.764 -0.7435  0.6265  0.0818
 1902TIP3    H227198   5.436   0.773  12.648  0.5292  0.5620  0.2009
 1903TIP3   OH227199   0.084   1.717  10.849 -0.3954 -0.3471 -0.0682
 1903TIP3    H127200  -0.001   1.741  10.811  0.1225  0.2608 -0.8611
 1903TIP3    H227201   0.137   1.690  10.774  0.6768  0.9660  0.1880
 1904TIP3   OH227202   3.031   3.521   5.914  0.1265 -0.0723  0.2036
 1904TIP3    H127203   3.058   3.435   5.948  1.1735 -0.2555 -1.0072
 1904TIP3    H227204   2.936   3.514   5.904 -0.0657 -0.4013  1.9441
 1905TIP3   OH227205   4.405   2.482  15.942  0.3106  0.7298  0.2123
 1905TIP3    H127206   4.455   2.467  16.022  1.0038  0.2114 -0.2978
 1905TIP3    H227207   4.433   2.412  15.883 -0.3608  0.9630 -0.4030
 1906TIP3   OH227208   6.067   1.952   2.434  0.1579 -0.3580  0.1993
 1906TIP3    H127209   6.028   1.945   2.346  0.5083 -0.8502  0.0826
 1906TIP3    H227210   5.995   1.929   2.493 -0.2721  0.6179  0.0868
 1907TIP3   OH227211   0.872   0.329   4.216 -0.4449  0.3617  0.3446
 1907TIP3    H127212   0.917   0.395   4.164 -0.5661  1.8549  2.0386
 1907TIP3    H227213   0.825   0.275   4.152 -0.2532  1.8491 -1.0976
 1908TIP3   OH227214   3.239   3.900  10.922 -0.3115 -0.4796  0.0626
 1908TIP3    H127215   3.235   3.828  10.985 -2.0467  0.7327  1.4399
 1908TIP3    H227216   3.153   3.942  10.928  0.6927  1.8047 -0.5654
 1909TIP3   OH227217   4.048   4.470   4.614 -0.3305  0.3217 -0.5327
 1909TIP3    H127218   4.107   4.540   4.586 -0.8256  0.5299 -1.1020
 1909TIP3    H227219   3.960   4.509   4.607 -0.5694 -0.1593 -0.2649
 1910TIP3   OH227220   5.497   2.960  15.708 -0.7736 -0.2301 -0.0203
 1910TIP3    H127221   5.571   3.021  15.702 -0.2929 -0.7714  0.4199
 1910TIP3    H227222   5.537   2.874  15.718 -1.4563 -0.6082 -0.4795
 1911TIP3   OH227223   0.790   2.307   4.314  0.4452 -0.1161  0.1240
 1911TIP3    H127224   0.730   2.332   4.384 -0.5350 -2.6334  0.2734
 1911TIP3    H227225   0.864   2.267   4.358  0.3194 -0.7487 -0.2291
 1912TIP3   OH227226   3.826   0.013  17.095 -0.1699 -0.3590 -0.2111
 1912TIP3    H127227   3.767  -0.021  17.162 -0.0260  1.0421  0.6773
 1912TIP3    H227228   3.911   0.017  17.138 -0.1232  0.7789 -0.3639
 1913TIP3   OH227229   1.528   1.306  13.440 -0.2256 -0.7395  0.6007
 1913TIP3    H127230   1.597   1.364  13.407  1.4382 -0.6257  3.7801
 1913TIP3    H227231   1.447   1.356  13.429  0.5902  0.3733 -0.6269
 1914TIP3   OH227232   2.265   0.294   0.264 -0.0187 -0.5327  0.0109
 1914TIP3    H127233   2.241   0.324   0.176 -1.4273 -1.1815  0.1414
 1914TIP3    H227234   2.192   0.238   0.291  0.4008 -0.3785  1.5811
 1915TIP3   OH227235   4.190   5.336  11.209 -0.3665  0.5924 -0.0240
 1915TIP3    H127236   4.196   5.412  11.151 -0.0175  0.0461 -0.7216
 1915TIP3    H227237   4.106   5.345  11.253 -0.3780  1.3191 -0.1902
 1916TIP3   OH227238   6.710   5.943  12.796  0.4051  0.5678 -0.2639
 1916TIP3    H127239   6.783   5.986  12.840 -0.2804 -0.6647  2.3109
 1916TIP3    H227240   6.687   5.870  12.855 -1.2603 -0.6133 -2.2535
 1917TIP3   OH227241   0.536   3.538   4.467  0.0528 -0.2557 -0.6342
 1917TIP3    H127242   0.509   3.625   4.493 -0.1538 -0.4925 -0.0380
 1917TIP3    H227243   0.471   3.510   4.402  0.9027  0.5691 -1.8896
 1918TIP3   OH227244   0.280   3.053   2.545 -0.1132  0.3034  0.1053
 1918TIP3    H127245   0.345   3.091   2.486  0.7096 -1.3140 -0.0824
 1918TIP3    H227246   0.327   3.036   2.626  0.1472 -2.1731 -0.4821
 1919TIP3   OH227247   5.128   0.638  12.631  0.2490  0.4474  0.1269
 1919TIP3    H127248   5.148   0.565  12.573 -0.6828 -1.2375  1.8214
 1919TIP3    H227249   5.213   0.678  12.650  0.8588 -0.5647 -0.3760
 1920TIP3   OH227250   5.027   4.526  14.587  0.6359 -0.0854 -0.4224
 1920TIP3    H127251   5.011   4.432  14.596  2.0382 -0.3541 -0.4510
 1920TIP3    H227252   4.940   4.564  14.574 -0.2794 -1.0845  2.0056
 1921TIP3   OH227253   3.786   4.338   2.554  0.1548  0.2369  0.5883
 1921TIP3    H127254   3.819   4.355   2.465  2.4829 -0.5869  1.2162
 1921TIP3    H227255   3.784   4.242   2.560  1.0238  0.2707  1.7278
 1922TIP3   OH227256   5.087   2.248  11.030  0.7218  0.2513 -0.3960
 1922TIP3    H127257   5.100   2.180  11.096 -0.8057  0.8735  0.6086
 1922TIP3    H227258   5.167   2.301  11.033  0.4847  0.5756  1.3638
 1923TIP3   OH227259   4.558   6.270   3.097  0.3248 -0.7600  0.0000
 1923TIP3    H127260   4.584   6.290   3.007 -0.6411  2.5869  0.3465
 1923TIP3    H227261   4.639   6.282   3.148  0.1835  0.5788 -0.0585
 1924TIP3   OH227262   2.940   1.960   0.570  0.2474 -0.3345  0.4031
 1924TIP3    H127263   2.887   1.995   0.642  0.1286  0.2403  0.0464
 1924TIP3    H227264   2.913   2.011   0.494 -0.4028 -1.6667 -0.2872
 1925TIP3   OH227265   3.744   2.391  13.071  0.3485 -0.1479  0.1467
 1925TIP3    H127266   3.677   2.452  13.103 -1.5000 -1.8630 -0.2062
 1925TIP3    H227267   3.819   2.405  13.129  0.6424  3.4910 -0.8907
 1926TIP3   OH227268   3.491   5.751  11.755  0.2922  0.1566  0.0397
 1926TIP3    H127269   3.401   5.779  11.743  0.6056  2.1753  1.8581
 1926TIP3    H227270   3.508   5.691  11.682 -1.4811  2.2239 -2.2164
 1927TIP3   OH227271   1.447   0.578   2.082 -0.2761  0.2649 -0.0535
 1927TIP3    H127272   1.412   0.627   2.156 -1.4331 -0.2580 -0.2399
 1927TIP3    H227273   1.541   0.572   2.099 -0.4148  0.8491  0.9551
 1928TIP3   OH227274   3.176   0.111  14.261 -0.1774  0.5438 -0.4470
 1928TIP3    H127275   3.246   0.166  14.226  1.5646 -0.7629  0.7556
 1928TIP3    H227276   3.209   0.021  14.251 -1.2791 -0.0644  0.9511
 1929TIP3   OH227277   2.664   6.802  13.565 -0.0312 -0.5604 -0.1389
 1929TIP3    H127278   2.670   6.870  13.497 -0.5467 -1.4353 -1.1001
 1929TIP3    H227279   2.698   6.723  13.522  0.9548 -0.8223  1.0956
 1930TIP3   OH227280   5.507   2.043  14.668 -0.3271 -0.1982  0.2299
 1930TIP3    H127281   5.418   2.010  14.660 -1.1990  1.8237  0.9533
 1930TIP3    H227282   5.515   2.067  14.760  0.0567  1.9741 -0.3171
 1931TIP3   OH227283   0.741   4.976  16.089  0.4455  0.1388  0.2393
 1931TIP3    H127284   0.669   4.997  16.149 -0.6401 -1.2550 -0.5035
 1931TIP3    H227285   0.699   4.969  16.003  1.4839 -0.6200 -0.2276
 1932TIP3   OH227286   3.855   5.650  15.652  0.2486 -0.1712 -0.1959
 1932TIP3    H127287   3.921   5.718  15.635 -0.1639 -0.0737 -1.5269
 1932TIP3    H227288   3.906   5.575  15.683  0.8602  0.2939 -0.0509
 1933TIP3   OH227289   3.466   0.361  11.763  0.5756  0.2020  0.0895
 1933TIP3    H127290   3.479   0.323  11.676  2.0392  0.9861 -0.0669
 1933TIP3    H227291   3.554   0.372  11.797  0.0331  0.3612  1.4845
 1934TIP3   OH227292   1.192   4.135  16.516  0.0419 -0.2978 -0.0611
 1934TIP3    H127293   1.170   4.186  16.594  0.3736  0.3210 -0.3590
 1934TIP3    H227294   1.233   4.056  16.549 -0.0953 -0.1796  0.3991
 1935TIP3   OH227295   1.485   5.067   2.184 -0.1080  0.2551 -0.6970
 1935TIP3    H127296   1.524   4.980   2.190 -0.5929  0.0343 -0.6908
 1935TIP3    H227297   1.446   5.083   2.269 -1.2769 -0.1325 -1.1449
 1936TIP3   OH227298   3.366   6.467   3.838 -0.2365 -0.0297 -0.0932
 1936TIP3    H127299   3.330   6.415   3.766 -0.2937  0.1276 -0.1787
 1936TIP3    H227300   3.449   6.424   3.860  0.7047  0.9587 -1.4836
 1937TIP3   OH227301   3.638   0.309  12.718  0.1302  0.6480  0.3237
 1937TIP3    H127302   3.544   0.292  12.716  0.2659 -0.2250 -2.3737
 1937TIP3    H227303   3.646   0.392  12.765 -2.0195  0.9102  0.3464
 1938TIP3   OH227304   4.685   3.380   1.420 -0.1218  0.5950 -0.0847
 1938TIP3    H127305   4.628   3.308   1.447  1.3249  0.2787  2.5205
 1938TIP3    H227306   4.630   3.458   1.426 -0.4998  0.2342  1.7657
 1939TIP3   OH227307   3.717   6.149   3.517  0.3083  0.5206  0.2095
 1939TIP3    H127308   3.788   6.155   3.580  1.7384 -1.0583 -1.1397
 1939TIP3    H227309   3.669   6.071   3.543 -0.9633  1.5415  1.0732
 1940TIP3   OH227310   4.919   0.921   1.938  0.6870  0.3441 -0.6828
 1940TIP3    H127311   4.957   0.839   1.905 -0.2793 -0.3775 -0.0920
 1940TIP3    H227312   4.985   0.956   1.998  0.9216 -0.2557 -0.5825
 1941TIP3   OH227313   1.257   1.643   5.057 -0.6239 -0.0106 -0.6055
 1941TIP3    H127314   1.345   1.637   5.021 -0.9717 -0.7357 -1.3581
 1941TIP3    H227315   1.220   1.721   5.017 -0.9926 -0.7848 -1.8254
 1942TIP3   OH227316   6.478   5.075   4.543  0.3357  0.7476 -0.3239
 1942TIP3    H127317   6.534   5.144   4.578 -0.3751  0.2493  1.9660
 1942TIP3    H227318   6.528   4.994   4.557  0.2860  0.5851 -1.0479
 1943TIP3   OH227319   6.301   6.055   0.465  0.2934 -0.0931 -0.3125
 1943TIP3    H127320   6.237   6.035   0.397 -0.1540  1.2410 -0.3052
 1943TIP3    H227321   6.322   5.970   0.505  0.3477 -0.8581 -1.9099
 1944TIP3   OH227322   2.387   2.787  11.915 -0.4541 -0.2864 -0.7114
 1944TIP3    H127323   2.474   2.755  11.890 -1.0130 -2.2865 -0.2910
 1944TIP3    H227324   2.333   2.769  11.838 -0.9475 -1.1228 -0.1825
 1945TIP3   OH227325   6.591   5.366  16.297  0.3146  0.2549 -0.1216
 1945TIP3    H127326   6.684   5.390  16.296  0.0955  1.2506  0.8998
 1945TIP3    H227327   6.589   5.277  16.261  1.2728  1.3816 -3.2705
 1946TIP3   OH227328   4.119   4.071  15.853  0.1412 -0.0345 -0.2666
 1946TIP3    H127329   4.051   4.009  15.881  1.4749 -1.4749 -0.1232
 1946TIP3    H227330   4.132   4.052  15.760 -0.1809  0.7782 -0.4861
 1947TIP3   OH227331   0.741   0.774   3.681  0.2908 -0.1363 -0.1006
 1947TIP3    H127332   0.831   0.750   3.705  0.4364 -0.2276 -0.7149
 1947TIP3    H227333   0.699   0.796   3.764  0.9187  0.0276  0.1815
 1948TIP3   OH227334   4.161   3.332  16.660  0.0085 -0.1266 -0.6571
 1948TIP3    H127335   4.077   3.377  16.652 -0.7226 -1.4693 -0.6590
 1948TIP3    H227336   4.149   3.271  16.733  1.4035  0.5448  0.1873
 1949TIP3   OH227337   3.951   3.494   5.289 -0.0404 -0.3745 -0.2719
 1949TIP3    H127338   3.935   3.579   5.248  0.0215 -0.2813 -0.1012
 1949TIP3    H227339   4.023   3.509   5.350 -1.8859  0.1183  1.8989
 1950TIP3   OH227340   5.244   1.210   5.337  1.0112 -0.1701 -0.1598
 1950TIP3    H127341   5.206   1.280   5.285 -1.2828  0.2698  1.9039
 1950TIP3    H227342   5.323   1.247   5.375 -1.9267  2.8888  3.8144
 1951TIP3   OH227343   4.948   2.150  12.843 -0.0581  0.2028 -0.2924
 1951TIP3    H127344   4.884   2.089  12.805 -0.1065 -1.8240  2.6747
 1951TIP3    H227345   4.920   2.161  12.933  1.6666  2.3814  0.0668
 1952TIP3   OH227346   2.195   4.750   5.767  0.0323 -0.5731 -0.2190
 1952TIP3    H127347   2.129   4.819   5.766 -0.1472 -0.7467 -0.5536
 1952TIP3    H227348   2.160   4.684   5.827  0.2286 -0.3531  0.1413
 1953TIP3   OH227349   6.098   2.278  13.389  0.5285 -0.3905 -0.0611
 1953TIP3    H127350   6.129   2.330  13.463  0.6378 -1.8408  0.9377
 1953TIP3    H227351   6.173   2.273  13.330  0.7021  0.0523  0.1171
 1954TIP3   OH227352   6.666   6.551  13.928 -0.0271  0.2040 -0.5013
 1954TIP3    H127353   6.578   6.575  13.957 -0.2350 -0.3460 -0.6474
 1954TIP3    H227354   6.653   6.469  13.880  0.2169  1.2992 -2.5530
 1955TIP3   OH227355   0.497   1.812   3.269  0.0574  0.0012 -0.8123
 1955TIP3    H127356   0.407   1.782   3.252  0.5115 -1.5980 -0.6008
 1955TIP3    H227357   0.542   1.798   3.186 -0.0451  1.4849 -1.1296
 1956TIP3   OH227358   6.526   0.927  13.421 -0.4075 -0.2541 -0.1988
 1956TIP3    H127359   6.496   0.871  13.349  0.4196  0.9794 -1.5829
 1956TIP3    H227360   6.617   0.900  13.436 -0.4233 -0.1704  0.0541
 1957TIP3   OH227361   4.502   3.897   2.241 -0.4181  0.0905 -0.2739
 1957TIP3    H127362   4.503   3.952   2.319  1.2285 -0.1976 -0.0483
 1957TIP3    H227363   4.415   3.911   2.203 -1.0508  0.6659  1.2889
 1958TIP3   OH227364   5.992   6.746  16.144 -0.0395 -0.4242  0.6780
 1958TIP3    H127365   5.906   6.711  16.120  0.4675 -0.7832 -0.7247
 1958TIP3    H227366   6.054   6.676  16.123  0.8119  0.6065 -0.4165
 1959TIP3   OH227367   2.906   6.027  15.377 -0.2525  0.2130  0.3598
 1959TIP3    H127368   2.992   5.985  15.383 -0.6192 -0.5603  0.2120
 1959TIP3    H227369   2.868   5.994  15.296 -1.5219 -1.0516  1.4067
 1960TIP3   OH227370   2.809   5.292   4.046  0.5117  0.4914 -0.0154
 1960TIP3    H127371   2.754   5.265   3.973 -0.2148  0.8136  0.3957
 1960TIP3    H227372   2.754   5.279   4.123  1.6505 -0.9022  0.6007
 1961TIP3   OH227373   2.691   1.926   3.682  0.1040  1.2865  0.1118
 1961TIP3    H127374   2.735   1.900   3.601  0.0035 -1.1873  0.7680
 1961TIP3    H227375   2.682   2.021   3.675  0.7759  1.2342 -2.4150
 1962TIP3   OH227376   3.219   4.177   1.787  0.4020  0.0875  0.2471
 1962TIP3    H127377   3.146   4.173   1.849 -1.4239 -0.4986 -1.8216
 1962TIP3    H227378   3.246   4.086   1.775  1.7787  0.3243  1.2538
 1963TIP3   OH227379   3.412   0.532   2.151 -0.3708 -0.1305 -0.1096
 1963TIP3    H127380   3.365   0.479   2.087  0.2155 -1.0651  0.2059
 1963TIP3    H227381   3.344   0.579   2.199 -1.0045 -1.5147  0.3984
 1964TIP3   OH227382   2.586   2.167  10.442 -0.5284 -0.0800  0.1130
 1964TIP3    H127383   2.532   2.089  10.429  0.0875 -1.2246  3.3703
 1964TIP3    H227384   2.668   2.147  10.398 -0.8762 -0.6427 -0.2958
 1965TIP3   OH227385   2.957   4.492   3.426 -0.3909 -0.6441  0.1006
 1965TIP3    H127386   2.933   4.403   3.453 -0.0120 -0.5314  0.8505
 1965TIP3    H227387   2.968   4.539   3.509  0.6330 -0.2260 -0.2601
 1966TIP3   OH227388   6.175   3.275  15.933 -0.6503 -0.7092  0.8168
 1966TIP3    H127389   6.121   3.345  15.969  0.0581 -0.1194  0.7712
 1966TIP3    H227390   6.263   3.294  15.966 -0.6329 -2.2435  1.7687
 1967TIP3   OH227391   3.191   0.190   1.359  0.4920  0.0444 -0.0499
 1967TIP3    H127392   3.101   0.200   1.330  0.2158  0.2107  0.8350
 1967TIP3    H227393   3.239   0.260   1.315  0.3128 -0.4043 -0.9806
 1968TIP3   OH227394   0.902   1.212   2.946 -0.0898  0.0626  0.1352
 1968TIP3    H127395   0.946   1.297   2.952 -0.7739  0.4726 -0.5302
 1968TIP3    H227396   0.810   1.232   2.964 -0.3837 -0.4078 -0.7939
 1969TIP3   OH227397   4.089   2.044   0.644  0.3799 -0.4718 -0.7072
 1969TIP3    H127398   4.054   2.057   0.556  0.7917 -1.1091 -0.9743
 1969TIP3    H227399   4.029   1.982   0.685  0.8971 -1.1893 -0.9998
 1970TIP3   OH227400   2.613   2.379   3.004 -0.0135  0.0578 -0.0911
 1970TIP3    H127401   2.585   2.299   2.960  1.6765 -0.4650 -0.2775
 1970TIP3    H227402   2.703   2.361   3.032  0.4801  1.9505 -0.3116
 1971TIP3   OH227403   0.786   3.306   4.789  0.2797 -0.2111  0.1269
 1971TIP3    H127404   0.701   3.346   4.773 -0.4793 -1.1655  1.5354
 1971TIP3    H227405   0.821   3.352   4.865  1.4071  0.6922 -0.8938
 1972TIP3   OH227406   6.427   3.200  14.876 -0.0328  0.9674 -0.1762
 1972TIP3    H127407   6.477   3.181  14.955  1.0817  0.3682 -0.9901
 1972TIP3    H227408   6.346   3.149  14.885  0.0663  0.9285  0.5736
 1973TIP3   OH227409   2.796   6.447   2.968 -0.0414 -0.0221  0.7147
 1973TIP3    H127410   2.713   6.399   2.976 -1.6140  1.9896 -1.8999
 1973TIP3    H227411   2.791   6.514   3.037 -1.2824  0.9277 -0.2479
 1974TIP3   OH227412   5.429   3.295  11.922 -0.2577  0.3180  0.5871
 1974TIP3    H127413   5.409   3.385  11.896 -1.9816 -0.5205 -1.3005
 1974TIP3    H227414   5.405   3.291  12.015 -0.4810  1.7098  0.6160
 1975TIP3   OH227415   5.682   2.902  16.893 -0.2633 -0.3194  0.1465
 1975TIP3    H127416   5.746   2.832  16.895 -0.8960 -0.9063  1.7562
 1975TIP3    H227417   5.603   2.861  16.858 -0.2116 -0.0056 -0.3485
 1976TIP3   OH227418   6.088   6.174   2.633 -0.0076 -0.4849 -0.4135
 1976TIP3    H127419   6.088   6.162   2.538  0.4577 -1.0782 -0.3462
 1976TIP3    H227420   6.157   6.239   2.649  0.3805 -0.8896 -0.4278
 1977TIP3   OH227421   5.342   1.460   3.090  0.4985 -0.0244 -0.2688
 1977TIP3    H127422   5.278   1.396   3.122 -0.3573  0.7803 -0.2967
 1977TIP3    H227423   5.376   1.423   3.009 -0.1853 -0.3209 -0.4245
 1978TIP3   OH227424   2.206   1.939  11.157 -0.8469 -0.1758  0.3773
 1978TIP3    H127425   2.132   1.999  11.163 -0.5028  0.4718 -1.4337
 1978TIP3    H227426   2.250   1.963  11.076  1.1670 -0.7704  1.2475
 1979TIP3   OH227427   3.560   3.152   4.286 -0.0420 -0.2006  0.2232
 1979TIP3    H127428   3.552   3.246   4.267  2.0173  0.0134  0.0965
 1979TIP3    H227429   3.524   3.109   4.209 -0.4514  0.5020  0.0091
 1980TIP3   OH227430   6.522   4.139   4.368 -0.3634  0.4692 -0.4066
 1980TIP3    H127431   6.617   4.129   4.375 -0.2393  1.2151 -0.8457
 1980TIP3    H227432   6.509   4.232   4.347 -1.2981  0.8559  1.6164
 1981TIP3   OH227433   2.892   1.743  15.805 -0.2662 -0.2096  0.1710
 1981TIP3    H127434   2.806   1.777  15.830 -0.4840 -0.2425 -0.5039
 1981TIP3    H227435   2.945   1.821  15.790 -0.5765 -0.1536 -0.7308
 1982TIP3   OH227436   3.421   1.542   2.227 -0.3881 -0.4087 -0.2326
 1982TIP3    H127437   3.488   1.492   2.273 -0.7945 -1.5280 -0.8044
 1982TIP3    H227438   3.385   1.601   2.293  1.7851  0.9239 -0.1515
 1983TIP3   OH227439   3.113   1.509  13.548  0.4228  0.2486 -0.3219
 1983TIP3    H127440   3.038   1.484  13.493 -0.5140  0.6103  0.7480
 1983TIP3    H227441   3.167   1.430  13.553  0.8727  0.3734 -2.2427
 1984TIP3   OH227442   2.417   4.793  13.204  0.0161  0.0089 -0.0869
 1984TIP3    H127443   2.452   4.704  13.199  0.6794  0.1903  1.0134
 1984TIP3    H227444   2.491   4.846  13.232 -0.1977  1.0412 -1.4017
 1985TIP3   OH227445   6.478   5.288  16.587 -0.0782 -0.1218 -0.5567
 1985TIP3    H127446   6.440   5.319  16.504  0.6273 -1.5052 -1.4434
 1985TIP3    H227447   6.490   5.194  16.573  0.2715 -0.3319  1.0526
 1986TIP3   OH227448   2.449   0.823   3.491  0.2353 -0.1840 -0.2312
 1986TIP3    H127449   2.525   0.782   3.531  0.8627 -1.0353 -2.1886
 1986TIP3    H227450   2.374   0.784   3.536  0.9074 -0.7424  0.4240
 1987TIP3   OH227451   5.547   1.710   5.444  0.1188  0.5972  0.2301
 1987TIP3    H127452   5.472   1.700   5.385  0.2514  0.2372  0.1199
 1987TIP3    H227453   5.513   1.686   5.530  0.4410 -0.9410 -0.0339
 1988TIP3   OH227454   2.722   0.573  15.566 -0.5442 -0.1176  0.4251
 1988TIP3    H127455   2.688   0.491  15.603 -0.9811 -0.1920 -0.1312
 1988TIP3    H227456   2.811   0.550  15.537 -1.0364 -0.6952 -0.6909
 1989TIP3   OH227457   1.064   3.224  16.713  0.1616  0.3300  0.3452
 1989TIP3    H127458   1.032   3.150  16.765 -0.2658  1.3585  1.6029
 1989TIP3    H227459   0.991   3.287  16.714  0.6917  0.9729 -0.2920
 1990TIP3   OH227460   4.747   3.247  16.648  0.2182  0.2531 -0.1144
 1990TIP3    H127461   4.695   3.283  16.720 -1.3178  3.0520 -2.3902
 1990TIP3    H227462   4.681   3.216  16.585  1.4385 -0.0965 -1.2520
 1991TIP3   OH227463   0.841   0.555   2.075 -0.0298  0.2255 -0.2401
 1991TIP3    H127464   0.831   0.589   2.164  1.4206 -0.2885  0.1560
 1991TIP3    H227465   0.934   0.533   2.069 -0.2205 -0.2541 -1.7081
 1992TIP3   OH227466   4.632   0.875   0.308  0.5038  0.4792 -0.0181
 1992TIP3    H127467   4.546   0.896   0.271  0.3158  0.1598  0.2284
 1992TIP3    H227468   4.612   0.826   0.388  0.8993 -2.8199 -1.7749
 1993TIP3   OH227469   3.896   2.879  13.423 -0.2647 -0.2680 -0.5557
 1993TIP3    H127470   3.961   2.809  13.419  0.1818 -0.0142  1.3845
 1993TIP3    H227471   3.905   2.915  13.511 -1.5550  1.2152 -0.9889
 1994TIP3   OH227472   6.117   6.442   3.986 -0.1516  0.3157 -0.0707
 1994TIP3    H127473   6.105   6.439   3.891 -1.4351 -1.4998  0.0951
 1994TIP3    H227474   6.048   6.501   4.017  0.0820  0.6769 -0.2354
 1995TIP3   OH227475   1.283   3.544  13.336  0.2648 -0.8507  0.2914
 1995TIP3    H127476   1.336   3.498  13.271 -0.8693  0.1897 -1.4634
 1995TIP3    H227477   1.257   3.625  13.293 -0.2473  0.0726  2.2118
 1996TIP3   OH227478   4.677   1.036  16.629 -0.6904  0.5435 -0.8784
 1996TIP3    H127479   4.592   1.003  16.600 -0.6091 -1.0525  0.5732
 1996TIP3    H227480   4.741   0.981  16.584 -0.4877  0.3064 -0.3020
 1997TIP3   OH227481   0.225   6.622   3.819 -0.9864  0.7626  0.3393
 1997TIP3    H127482   0.207   6.540   3.774 -0.8628  0.6031  0.5782
 1997TIP3    H227483   0.304   6.604   3.871 -1.5321  0.7238  1.1666
 1998TIP3   OH227484   5.732   1.436   2.375 -0.5106 -0.9023  0.2394
 1998TIP3    H127485   5.795   1.373   2.341  0.2675 -0.1209  0.2105
 1998TIP3    H227486   5.770   1.521   2.356 -1.5857 -0.4121  0.2066
 1999TIP3   OH227487   0.739   4.429   2.866  0.7364  0.1909 -0.2083
 1999TIP3    H127488   0.804   4.388   2.809  0.6596 -1.6486  0.9396
 1999TIP3    H227489   0.788   4.496   2.914  1.1520  0.6645 -1.2612
 2000TIP3   OH227490   2.252   4.752   4.854  0.8322  0.1821 -0.5163
 2000TIP3    H127491   2.191   4.823   4.875 -1.8109 -1.9339 -0.5308
 2000TIP3    H227492   2.290   4.777   4.770  2.1637  2.8561  0.7617
 2001TIP3   OH227493   6.154   3.435   1.540  0.7363 -0.4131  0.3654
 2001TIP3    H127494   6.173   3.526   1.516 -2.0510 -0.5982 -3.5979
 2001TIP3    H227495   6.097   3.442   1.616 -0.7676  1.3619 -0.8303
 2002TIP3   OH227496   0.723   4.489  11.227  0.0637 -0.0450  0.2818
 2002TIP3    H127497   0.631   4.484  11.253  0.3996  0.7587  1.7943
 2002TIP3    H227498   0.728   4.566  11.171  0.0422  0.7877  1.3923
 2003TIP3   OH227499   3.444   0.027  15.162  0.1533  0.6168 -0.2905
 2003TIP3    H127500   3.524   0.009  15.212  1.0853 -2.4452 -2.5628
 2003TIP3    H227501   3.382  -0.040  15.192  0.2558 -0.3385 -2.0749
 2004TIP3   OH227502   6.578   5.304  11.842  0.6478  0.2516  0.5561
 2004TIP3    H127503   6.666   5.339  11.830  0.2473  0.5149 -2.9130
 2004TIP3    H227504   6.578   5.223  11.791 -0.4087 -1.2074  2.7470
 2005TIP3   OH227505   2.533   1.489   2.351  0.8973 -0.3208 -0.1156
 2005TIP3    H127506   2.551   1.569   2.301 -1.3736 -0.7387 -1.7767
 2005TIP3    H227507   2.518   1.422   2.284 -1.7605 -1.0522  1.0802
 2006TIP3   OH227508   5.694   6.508   3.890 -0.3185 -0.0082  0.4245
 2006TIP3    H127509   5.654   6.433   3.935  1.1325 -0.5882  0.7901
 2006TIP3    H227510   5.723   6.471   3.806  1.1202 -0.0752  0.9318
 2007TIP3   OH227511   3.451   4.959  15.358 -0.1954 -0.0261 -0.1426
 2007TIP3    H127512   3.370   4.912  15.377 -0.5252  0.2482 -0.8351
 2007TIP3    H227513   3.457   4.958  15.263  0.9426 -0.5834 -0.0758
 2008TIP3   OH227514   1.338   5.917   2.314  0.5390 -0.4715  0.0919
 2008TIP3    H127515   1.273   5.886   2.377 -1.1985 -0.6188 -1.6991
 2008TIP3    H227516   1.310   6.005   2.290  1.6895 -0.0644  0.1513
 2009TIP3   OH227517   0.544   0.335   0.260 -0.1650 -0.0324  0.4136
 2009TIP3    H127518   0.531   0.390   0.183  1.9948  1.5281  1.0679
 2009TIP3    H227519   0.639   0.327   0.268 -0.3598 -2.8689  1.1040
 2010TIP3   OH227520   3.021   2.676   0.825 -0.5013  0.3937 -0.3121
 2010TIP3    H127521   3.098   2.653   0.877 -0.0321  1.3275 -0.5851
 2010TIP3    H227522   3.012   2.771   0.835 -1.8341  0.2533  0.0107
 2011TIP3   OH227523   2.875   5.608  12.074 -0.1692  0.2556 -0.5017
 2011TIP3    H127524   2.940   5.677  12.080  1.3809 -1.2376  1.0164
 2011TIP3    H227525   2.888   5.570  11.987  0.8223  0.1639 -0.3282
 2012TIP3   OH227526   6.621   5.915  16.053  0.0734  0.3269  0.3839
 2012TIP3    H127527   6.556   5.924  15.983 -0.1924  1.0111  0.7094
 2012TIP3    H227528   6.578   5.951  16.130  0.4192 -0.2904  0.8717
 2013TIP3   OH227529   4.605   5.560   1.574  0.2976 -0.1181  0.2856
 2013TIP3    H127530   4.553   5.584   1.497  1.1511  0.0751 -0.2518
 2013TIP3    H227531   4.570   5.613   1.645  1.0495  1.5202 -0.5136
 2014TIP3   OH227532   0.960   4.145   5.402 -0.1276 -0.0019  0.1897
 2014TIP3    H127533   1.032   4.113   5.349  0.0861 -0.9432  1.0154
 2014TIP3    H227534   0.924   4.218   5.352  0.1163 -0.7896 -1.1998
 2015TIP3   OH227535   4.770   0.746   3.988 -0.1472  0.4969  0.1946
 2015TIP3    H127536   4.858   0.779   4.005 -0.5428  1.7947 -0.1614
 2015TIP3    H227537   4.729   0.741   4.074 -0.3274  1.7172  0.2009
 2016TIP3   OH227538   0.728   1.040   1.059  0.6728  0.3244 -0.0475
 2016TIP3    H127539   0.761   0.966   1.008 -0.4302 -0.5848  0.5154
 2016TIP3    H227540   0.765   1.117   1.016  2.4543 -0.5641 -0.2108
 2017TIP3   OH227541   3.148   6.495   0.686  0.2080  0.7922  1.0606
 2017TIP3    H127542   3.182   6.466   0.771  0.7463  0.1844  0.6505
 2017TIP3    H227543   3.219   6.477   0.625  0.1788  2.0894  0.6142
 2018TIP3   OH227544   4.722   1.633  14.696  0.2575  0.5802  0.3321
 2018TIP3    H127545   4.664   1.707  14.716  1.2954  0.9888  2.1374
 2018TIP3    H227546   4.679   1.557  14.735  1.0709  0.9610  2.0989
 2019TIP3   OH227547   2.821   0.874  15.959 -0.0499 -0.1538  0.0395
 2019TIP3    H127548   2.815   0.964  15.928  1.7575 -0.7094 -2.2755
 2019TIP3    H227549   2.906   0.869  16.003 -1.2726 -0.1608  2.5982
 2020TIP3   OH227550   0.343   3.209  11.676  0.3648 -0.0784  0.5934
 2020TIP3    H127551   0.417   3.254  11.635  0.0540  1.9710  2.1356
 2020TIP3    H227552   0.373   3.118  11.684  1.0724 -0.2563 -2.5006
 2021TIP3   OH227553   2.075   3.822  16.463 -0.6154  0.2417 -0.3834
 2021TIP3    H127554   1.981   3.823  16.481 -0.6842  0.2538 -0.7278
 2021TIP3    H227555   2.105   3.910  16.486 -0.5987  0.0878  0.1836
 2022TIP3   OH227556   2.279   2.717  12.659 -0.3912  0.3255 -0.3796
 2022TIP3    H127557   2.331   2.660  12.602  2.0632  1.6624  0.3624
 2022TIP3    H227558   2.190   2.682  12.653  0.6565 -2.5209 -1.2570
 2023TIP3   OH227559   3.496   2.927   4.849  0.0655 -0.3236 -0.3540
 2023TIP3    H127560   3.569   2.905   4.907 -0.1700  2.7534  1.3108
 2023TIP3    H227561   3.427   2.866   4.874  1.4934 -2.2786 -0.9002
 2024TIP3   OH227562   6.104   0.487   0.875  0.1906  0.2855  0.1588
 2024TIP3    H127563   6.017   0.457   0.901 -0.6845  1.7229 -0.9839
 2024TIP3    H227564   6.132   0.425   0.808  1.3802 -1.9248  2.5148
 2025TIP3   OH227565   5.456   3.317   2.859  0.3078  0.1454  0.1786
 2025TIP3    H127566   5.420   3.325   2.771 -0.5587  0.3045  0.5408
 2025TIP3    H227567   5.551   3.324   2.846  0.1934  0.1914 -0.7326
 2026TIP3   OH227568   5.440   4.887   4.213  0.3055 -0.1500  0.6990
 2026TIP3    H127569   5.425   4.974   4.251  1.6450 -0.1468  1.2984
 2026TIP3    H227570   5.526   4.861   4.247  0.8492 -0.8439 -1.0950
 2027TIP3   OH227571   6.821   3.291   6.311  0.3447  0.2606 -0.1467
 2027TIP3    H127572   6.764   3.330   6.377 -0.7346 -2.0544  0.3735
 2027TIP3    H227573   6.908   3.293   6.350  0.4796  2.6332 -0.4097
 2028TIP3   OH227574   4.118   2.026  14.917 -0.8033 -0.7427 -0.7691
 2028TIP3    H127575   4.116   2.102  14.859 -0.3588  0.1211  0.3152
 2028TIP3    H227576   4.031   1.987  14.907 -0.9416 -0.2726 -1.5587
 2029TIP3   OH227577   1.376   5.295   4.142 -0.1206 -0.4375 -0.6232
 2029TIP3    H127578   1.299   5.343   4.113 -0.2389  0.5384  1.2232
 2029TIP3    H227579   1.450   5.346   4.109 -0.2496  0.0149 -0.2025
 2030TIP3   OH227580   1.605   4.371   5.465  0.0603  0.3400  0.1477
 2030TIP3    H127581   1.546   4.326   5.404 -0.2784  0.9344  0.0299
 2030TIP3    H227582   1.663   4.302   5.496 -1.1055 -0.4095  0.7583
 2031TIP3   OH227583   1.236   1.547  16.427 -0.4602  0.5719 -0.2701
 2031TIP3    H127584   1.172   1.487  16.463 -0.1959  0.1196 -0.5462
 2031TIP3    H227585   1.185   1.624  16.402 -1.1076 -0.2674 -1.6350
 2032TIP3   OH227586   3.947   4.822  12.850  0.2068 -0.5138 -0.0496
 2032TIP3    H127587   3.944   4.914  12.824 -0.6954 -0.7119 -0.7084
 2032TIP3    H227588   3.859   4.802  12.880 -0.1782 -1.6541 -1.7778
 2033TIP3   OH227589   3.253   6.133   3.976  0.1431  0.6649 -0.0101
 2033TIP3    H127590   3.312   6.194   4.020 -1.6197  2.4405  0.0225
 2033TIP3    H227591   3.308   6.058   3.955  2.0160  1.5483  1.4332
 2034TIP3   OH227592   0.497   0.903   1.554  0.6404  0.3181 -0.1857
 2034TIP3    H127593   0.533   0.935   1.471 -1.2308  0.3305 -1.0466
 2034TIP3    H227594   0.448   0.824   1.530 -0.2331  0.5311  0.8426
 2035TIP3   OH227595   2.808   1.876  17.057 -0.5938 -0.2715  0.3303
 2035TIP3    H127596   2.840   1.870  17.147  2.2076  0.9160 -0.4722
 2035TIP3    H227597   2.880   1.843  17.004 -2.1374 -0.8324 -1.5081
 2036TIP3   OH227598   2.993   0.033  11.653  0.3824  0.1543  0.0943
 2036TIP3    H127599   3.030   0.095  11.590 -1.1496  0.0560 -0.9629
 2036TIP3    H227600   3.048  -0.045  11.646  1.7285  1.0254  0.7154
 2037TIP3   OH227601   5.376   4.167   0.813 -0.2046  0.1710 -0.1296
 2037TIP3    H127602   5.396   4.099   0.877 -1.3318 -0.2839 -0.2271
 2037TIP3    H227603   5.374   4.248   0.863 -0.3881 -0.0855  0.2840
 2038TIP3   OH227604   2.427   1.066  15.177 -0.1943  0.9669  0.1625
 2038TIP3    H127605   2.418   1.064  15.273 -0.3190 -0.0385  0.1414
 2038TIP3    H227606   2.403   0.978  15.149 -0.3171  1.2992 -0.8157
 2039TIP3   OH227607   3.441   2.172  16.356 -0.0174  0.1572  0.4425
 2039TIP3    H127608   3.490   2.199  16.433  0.6156 -0.0919  0.1324
 2039TIP3    H227609   3.375   2.111  16.390 -0.5901  1.0482  0.9542
 2040TIP3   OH227610   2.302   3.466   1.189 -0.1340 -0.2988 -0.6845
 2040TIP3    H127611   2.227   3.490   1.243 -0.4107  1.0073 -1.5847
 2040TIP3    H227612   2.351   3.403   1.242 -1.6369 -0.8587  0.0799
 2041TIP3   OH227613   6.561   4.207   2.943  0.2495 -0.5179 -0.1737
 2041TIP3    H127614   6.540   4.290   2.987  0.5164 -0.0159 -0.9665
 2041TIP3    H227615   6.641   4.226   2.893  1.0855 -1.6380  0.6868
 2042TIP3   OH227616   4.559   1.742   4.755  0.3500 -0.2299  0.4448
 2042TIP3    H127617   4.524   1.797   4.825 -1.1676 -1.9474  1.1297
 2042TIP3    H227618   4.483   1.719   4.703  0.9835 -1.4163  0.0091
 2043TIP3   OH227619   6.108   1.290   4.464 -0.6751 -0.0305 -0.2992
 2043TIP3    H127620   6.171   1.217   4.462 -1.5163 -1.0994  3.4800
 2043TIP3    H227621   6.023   1.249   4.447 -0.9586  0.3724  0.1322
 2044TIP3   OH227622   5.372   0.977   5.473  0.0827  0.3020  0.0306
 2044TIP3    H127623   5.409   0.927   5.401  1.9678 -1.2307  1.9511
 2044TIP3    H227624   5.430   1.053   5.481  0.4823 -0.0420  0.5096
 2045TIP3   OH227625   4.553   5.704   2.305  0.2319 -0.2090  0.2195
 2045TIP3    H127626   4.617   5.689   2.236 -0.5027 -0.0491 -0.5154
 2045TIP3    H227627   4.598   5.760   2.368  0.8120 -0.1042 -0.2792
 2046TIP3   OH227628   1.443   4.526  15.143  0.4136  0.0576 -0.0166
 2046TIP3    H127629   1.406   4.439  15.158  0.0717 -0.0870 -1.5019
 2046TIP3    H227630   1.537   4.515  15.156  0.2047 -0.0953  1.5664
 2047TIP3   OH227631   1.746   0.223  13.402  0.3833 -0.3413 -0.3747
 2047TIP3    H127632   1.656   0.256  13.407 -0.0945 -1.3256 -1.9786
 2047TIP3    H227633   1.778   0.228  13.493 -0.9504  0.8791  0.0735
 2048TIP3   OH227634   2.557   0.914  13.609 -0.4307 -0.2729 -0.0238
 2048TIP3    H127635   2.581   0.944  13.522 -1.6151  1.2282  0.1222
 2048TIP3    H227636   2.462   0.927  13.614 -0.1282  2.0584  2.2679
 2049TIP3   OH227637   4.047   1.509  16.087 -0.0278 -0.1691  0.1560
 2049TIP3    H127638   4.121   1.451  16.069  0.4760  0.4971  0.0357
 2049TIP3    H227639   4.030   1.553  16.004  2.1953  2.7938  1.0999
 2050TIP3   OH227640   0.655   3.772  15.414 -0.2176  0.6602  0.8937
 2050TIP3    H127641   0.560   3.780  15.406 -0.1594  1.6430  1.0952
 2050TIP3    H227642   0.674   3.684  15.380 -0.8144  1.6956 -2.5259
 2051TIP3   OH227643   1.082   0.917  16.981 -0.0241 -0.4583 -0.1030
 2051TIP3    H127644   1.131   0.957  17.053  0.2783 -0.0080 -0.5503
 2051TIP3    H227645   1.132   0.838  16.960  0.1763 -0.3171 -0.1597
 2052TIP3   OH227646   2.962   1.935  12.987  0.2027 -0.0215  0.3185
 2052TIP3    H127647   3.012   1.944  12.906 -1.3117 -0.4918 -0.7148
 2052TIP3    H227648   3.024   1.896  13.049  0.6257 -2.4526 -1.4730
 2053TIP3   OH227649   6.110   1.630  16.019  0.6151 -0.0895 -0.0913
 2053TIP3    H127650   6.061   1.706  16.050 -0.0864 -0.2968 -0.6939
 2053TIP3    H227651   6.052   1.586  15.958  1.2034 -0.8478 -0.1226
 2054TIP3   OH227652   6.752   0.437  13.868  0.2278 -0.3456 -0.1502
 2054TIP3    H127653   6.733   0.502  13.936  0.4869 -0.3196 -0.1007
 2054TIP3    H227654   6.843   0.411  13.884  0.1694 -0.6209 -0.2528
 2055TIP3   OH227655   6.176   6.761   2.281  0.4787 -0.4914  0.0237
 2055TIP3    H127656   6.188   6.677   2.238  0.7813 -0.8066  0.7095
 2055TIP3    H227657   6.255   6.811   2.258  0.3030 -0.3955 -0.3760
 2056TIP3   OH227658   2.020   3.705   5.004  0.0221  0.1040  0.0850
 2056TIP3    H127659   2.089   3.721   4.939  1.3344 -2.7106  0.6073
 2056TIP3    H227660   1.938   3.714   4.955  0.8397  1.2459 -1.1386
 2057TIP3   OH227661   2.203   5.612   2.764  0.2302 -0.0836  0.9841
 2057TIP3    H127662   2.201   5.664   2.684  0.7083 -0.3684  0.7862
 2057TIP3    H227663   2.113   5.618   2.798  0.1236  0.3529  0.6350
 2058TIP3   OH227664   1.398   1.147   4.986 -0.6841  0.3637  0.4305
 2058TIP3    H127665   1.354   1.069   5.020 -0.9552  0.3674  0.0972
 2058TIP3    H227666   1.389   1.213   5.054 -0.3668  0.0740  0.7572
 2059TIP3   OH227667   3.593   3.047  13.463  0.1646  0.1127 -1.1917
 2059TIP3    H127668   3.612   3.120  13.405 -2.5119  0.1690 -2.1257
 2059TIP3    H227669   3.522   2.999  13.420 -2.1747  0.2907  2.0481
 2060TIP3   OH227670   4.971   5.658  12.087 -0.3503  0.7562 -0.6089
 2060TIP3    H127671   4.924   5.641  12.169 -0.5259  1.3721 -0.5778
 2060TIP3    H227672   5.062   5.672  12.115 -0.4450  1.1573 -0.4953
 2061TIP3   OH227673   2.077   1.415   2.045 -0.1701  0.5945  0.3221
 2061TIP3    H127674   2.054   1.375   2.129 -0.7481  1.4756  0.5923
 2061TIP3    H227675   2.035   1.501   2.047 -0.4621  0.4971 -1.0124
 2062TIP3   OH227676   1.757   1.485  13.408 -0.2696 -0.0034  0.1030
 2062TIP3    H127677   1.833   1.487  13.349 -0.8986  0.7983 -0.7142
 2062TIP3    H227678   1.751   1.575  13.441 -2.4313  0.7036 -1.9460
 2063TIP3   OH227679   6.304   0.242   6.068  0.2555 -0.3055 -0.2956
 2063TIP3    H127680   6.375   0.192   6.028 -1.0517  0.3043 -3.6832
 2063TIP3    H227681   6.248   0.267   5.995 -3.0726 -0.0754  2.1098
 2064TIP3   OH227682   6.266   4.141   0.475  0.6386 -0.4947  0.3513
 2064TIP3    H127683   6.342   4.190   0.441  0.7689  0.1859  1.5721
 2064TIP3    H227684   6.288   4.124   0.567 -0.5406 -0.6247  0.6158
 2065TIP3   OH227685   3.738   4.341  13.699 -0.3615  0.1009 -0.2693
 2065TIP3    H127686   3.745   4.405  13.770 -0.6901 -1.0002  0.7834
 2065TIP3    H227687   3.809   4.364  13.639 -0.7807  1.7538 -0.1717
 2066TIP3   OH227688   4.174   2.105   3.180 -0.1574 -0.5529 -0.2482
 2066TIP3    H127689   4.110   2.136   3.245  0.1778  0.8487 -0.5638
 2066TIP3    H227690   4.181   2.176   3.117  1.8336 -0.6046 -0.1372
 2067TIP3   OH227691   3.917   5.883  14.465  0.2606 -0.1341 -0.1652
 2067TIP3    H127692   3.904   5.916  14.554  1.3349  0.9959 -0.4018
 2067TIP3    H227693   3.889   5.955  14.408 -0.2535 -0.7858 -0.7536
 2068TIP3   OH227694   1.265   2.366   3.510 -0.6805  0.1224  0.4693
 2068TIP3    H127695   1.210   2.411   3.574  1.3973  2.6133  0.6640
 2068TIP3    H227696   1.351   2.361   3.552  0.0283 -0.8805 -1.0113
 2069TIP3   OH227697   1.601   0.710   6.159 -0.3650  0.2278 -0.1958
 2069TIP3    H127698   1.532   0.644   6.157 -2.0657  1.9416 -2.2686
 2069TIP3    H227699   1.680   0.662   6.130 -0.5021 -1.7923  2.3864
 2070TIP3   OH227700   2.034   5.137   4.251 -0.5432 -0.2147 -0.0583
 2070TIP3    H127701   2.124   5.144   4.281  0.0634 -0.6227 -1.6740
 2070TIP3    H227702   2.007   5.049   4.275 -0.7776  0.1529  1.0738
 2071TIP3   OH227703   1.957   6.296   0.038 -0.2140 -0.1559 -0.5245
 2071TIP3    H127704   2.048   6.313   0.063  0.6921 -1.6793 -2.4676
 2071TIP3    H227705   1.933   6.217   0.085 -0.7780  0.5866  0.4650
 2072TIP3   OH227706   0.452   0.587   3.344 -0.0091 -0.0580  0.5334
 2072TIP3    H127707   0.463   0.492   3.334  1.0744  0.1328 -0.4351
 2072TIP3    H227708   0.381   0.609   3.284  1.9562  0.1324 -1.9437
 2073TIP3   OH227709   3.268   5.113   1.892 -0.4940  0.2256  0.7389
 2073TIP3    H127710   3.327   5.178   1.930  0.9235  0.3354 -1.4899
 2073TIP3    H227711   3.207   5.164   1.839 -0.3043 -0.1310  0.1648
 2074TIP3   OH227712   4.936   5.975  12.300  0.2368 -0.5074  0.0522
 2074TIP3    H127713   4.872   5.981  12.229  0.0507  0.0711  0.2611
 2074TIP3    H227714   5.020   5.960  12.255 -0.0437 -1.3141 -0.2158
 2075TIP3   OH227715   3.724   3.338  13.010 -0.7002  0.0673 -0.1821
 2075TIP3    H127716   3.678   3.421  13.002 -0.4619  0.2510  0.3622
 2075TIP3    H227717   3.735   3.309  12.919 -0.7245  0.6599 -0.3810
 2076TIP3   OH227718   4.615   0.814  15.844 -0.0454  0.5780  0.0850
 2076TIP3    H127719   4.540   0.833  15.788  0.1860  1.1309 -0.0416
 2076TIP3    H227720   4.612   0.881  15.912 -0.5037 -0.2775  0.9238
 2077TIP3   OH227721   6.807   4.603  14.627 -0.2248 -0.6835 -0.2904
 2077TIP3    H127722   6.851   4.535  14.575  1.9436 -1.3923  2.2212
 2077TIP3    H227723   6.825   4.578  14.718 -1.9119  1.6865  0.7901
 2078TIP3   OH227724   0.054   1.615   4.759  0.0880 -0.1014  0.2035
 2078TIP3    H127725   0.057   1.567   4.676  0.0950 -0.5194  0.4433
 2078TIP3    H227726  -0.039   1.620   4.781  0.0945 -0.0892  0.2289
 2079TIP3   OH227727   5.669   2.191   0.529 -0.1030 -0.4839 -0.4807
 2079TIP3    H127728   5.664   2.286   0.538 -1.4569 -0.5938  0.1158
 2079TIP3    H227729   5.596   2.168   0.471  2.1205 -0.8852 -3.3817
 2080TIP3   OH227730   0.067   5.997  13.241  0.0449 -0.2669 -0.1354
 2080TIP3    H127731   0.122   6.041  13.176 -0.4736 -1.6743 -1.6079
 2080TIP3    H227732   0.080   6.047  13.321 -0.1283  2.2563 -1.5579
 2081TIP3   OH227733   5.612   5.043   3.251 -0.0793  0.8104  0.2699
 2081TIP3    H127734   5.664   5.116   3.285 -1.2417  1.5244  0.5514
 2081TIP3    H227735   5.575   5.001   3.329  0.4530 -0.0071  0.1014
 2082TIP3   OH227736   4.942   4.863   1.537 -0.4926  0.1954  0.5765
 2082TIP3    H127737   4.884   4.935   1.511 -1.8741 -1.0954 -0.0637
 2082TIP3    H227738   4.883   4.794   1.567  0.5528 -1.7684 -1.5671
 2083TIP3   OH227739   2.332   5.753  16.916  0.5315 -0.1883 -0.2075
 2083TIP3    H127740   2.412   5.703  16.934  0.8954  1.3921  3.4170
 2083TIP3    H227741   2.361   5.826  16.862  0.9881 -0.9767 -1.0722
 2084TIP3   OH227742   2.815   0.343  15.065  0.0693 -0.0118 -0.3198
 2084TIP3    H127743   2.833   0.429  15.026 -0.9322  0.7166  0.7205
 2084TIP3    H227744   2.820   0.359  15.160  0.0314 -1.1546 -0.1099
 2085TIP3   OH227745   5.428   2.595  13.548  0.1420  0.2776  0.4042
 2085TIP3    H127746   5.420   2.626  13.458 -0.0559 -0.7516  0.0645
 2085TIP3    H227747   5.338   2.575  13.574  0.1440  0.9694  0.9873
 2086TIP3   OH227748   5.314   4.089  12.806  0.6870 -0.2828 -0.4472
 2086TIP3    H127749   5.303   4.004  12.764 -2.0319 -0.1493 -0.1327
 2086TIP3    H227750   5.283   4.077  12.896 -0.9614  1.2727 -0.7358
 2087TIP3   OH227751   4.475   5.668   6.343 -0.2091  0.1219  0.0092
 2087TIP3    H127752   4.560   5.643   6.307  0.6119  0.7957  1.4042
 2087TIP3    H227753   4.456   5.753   6.303 -0.2061 -0.0042 -0.2628
 2088TIP3   OH227754   0.482   1.234   2.669 -0.0938 -0.7255  0.3129
 2088TIP3    H127755   0.492   1.305   2.606 -0.5504 -0.0568  0.9801
 2088TIP3    H227756   0.396   1.248   2.707  0.0922 -1.2484  0.9374
 2089TIP3   OH227757   0.426   2.684  11.932  0.3721 -0.1540  0.2084
 2089TIP3    H127758   0.416   2.670  11.838 -0.3649  0.7870  0.1314
 2089TIP3    H227759   0.355   2.634  11.972  0.0001  0.3454  0.1813
 2090TIP3   OH227760   1.882   3.868   5.977 -0.1082  0.0645  0.0017
 2090TIP3    H127761   1.897   3.960   5.956 -0.8571  0.6677  1.9007
 2090TIP3    H227762   1.787   3.857   5.976 -0.0646 -0.4681  0.5597
 2091TIP3   OH227763   5.004   4.797  12.594 -0.1082  0.2949 -0.3771
 2091TIP3    H127764   4.913   4.825  12.584  0.1503  1.2070 -0.2243
 2091TIP3    H227765   5.024   4.813  12.686  0.3342  0.4741 -0.5046
 2092TIP3   OH227766   0.524   3.495  16.848  0.5557  0.2091 -0.1853
 2092TIP3    H127767   0.434   3.527  16.856  0.3289 -0.2756 -0.7513
 2092TIP3    H227768   0.570   3.566  16.804  0.1066 -0.1208 -1.2185
 2093TIP3   OH227769   1.635   6.727  12.937 -0.1144 -0.1331  0.0969
 2093TIP3    H127770   1.656   6.636  12.959  0.0639  0.0838  0.8524
 2093TIP3    H227771   1.647   6.775  13.019 -0.1985  0.5760 -0.2969
 2094TIP3   OH227772   3.900   4.074  13.158 -0.2861 -0.5945  0.0109
 2094TIP3    H127773   3.972   4.043  13.103  1.0713  1.2771  0.6182
 2094TIP3    H227774   3.929   4.057  13.248  0.0631  1.4203  0.3144
 2095TIP3   OH227775   2.184   2.413   5.625 -0.1178 -0.4351  0.0806
 2095TIP3    H127776   2.172   2.321   5.600 -0.7602  0.2171 -2.3150
 2095TIP3    H227777   2.133   2.462   5.560  1.1216  1.6745  0.6073
 2096TIP3   OH227778   1.618   3.624   4.338 -0.2936 -0.0592  0.2861
 2096TIP3    H127779   1.590   3.716   4.342  0.5399  0.2134 -0.0998
 2096TIP3    H227780   1.595   3.589   4.424 -0.2986  0.5976  0.5586
 2097TIP3   OH227781   1.434   5.191  13.908  0.2751  0.3514  0.3359
 2097TIP3    H127782   1.403   5.200  13.998 -1.4060 -0.6360 -0.0954
 2097TIP3    H227783   1.451   5.097  13.898 -1.6815  0.0787 -0.9772
 2098TIP3   OH227784   5.014   2.915   5.081 -0.0250 -0.2301 -0.3322
 2098TIP3    H127785   4.999   2.822   5.063 -0.3874 -0.8957  2.8145
 2098TIP3    H227786   4.929   2.948   5.111  0.1617  1.0651 -1.1380
 2099TIP3   OH227787   6.538   4.115  11.639 -0.2698  0.2576 -0.4678
 2099TIP3    H127788   6.589   4.068  11.705 -2.8406  0.6170  1.9929
 2099TIP3    H227789   6.466   4.056  11.618 -1.5561  1.6338 -0.0709
 2100TIP3   OH227790   1.942   0.555  13.958  0.9443  0.1431  0.4692
 2100TIP3    H127791   1.957   0.470  13.916 -1.2434  0.2178 -0.6146
 2100TIP3    H227792   1.905   0.533  14.043 -1.0222 -0.0531 -0.3878
 2101TIP3   OH227793   0.946   5.942  10.434  0.2195  0.4590  0.3949
 2101TIP3    H127794   0.922   6.007  10.500 -2.4478  1.4410 -1.3343
 2101TIP3    H227795   0.882   5.872  10.445 -0.3175  0.6666 -1.0977
 2102TIP3   OH227796   2.145   1.553   0.285  0.1051  0.2958  0.0104
 2102TIP3    H127797   2.092   1.625   0.320 -0.5171 -0.0924 -0.1068
 2102TIP3    H227798   2.151   1.491   0.358 -0.2169  0.0115 -0.2003
 2103TIP3   OH227799   5.443   1.623  15.268  0.4169 -0.3830 -0.6930
 2103TIP3    H127800   5.481   1.647  15.352 -1.1479  1.3850 -0.4264
 2103TIP3    H227801   5.497   1.669  15.203 -0.3497  0.9967 -0.4014
 2104TIP3   OH227802   4.390   3.288   0.811 -0.4649  0.2966  0.0460
 2104TIP3    H127803   4.344   3.348   0.871 -2.2429 -0.6842 -0.2802
 2104TIP3    H227804   4.323   3.261   0.748  0.8884 -0.2329 -1.2138
 2105TIP3   OH227805   0.911   4.148   2.454  0.2015 -0.7791  0.4378
 2105TIP3    H127806   0.844   4.084   2.478 -1.3603  0.6923  0.1342
 2105TIP3    H227807   0.877   4.192   2.376  2.1440 -0.8820 -0.5342
 2106TIP3   OH227808   6.319   0.168  12.146 -0.1406 -0.0355  0.1628
 2106TIP3    H127809   6.321   0.130  12.234  0.0975  1.2634  0.7415
 2106TIP3    H227810   6.228   0.195  12.134  0.0342  0.6940  0.4253
 2107TIP3   OH227811   4.858   1.978   0.938  0.2844  0.4099 -0.4595
 2107TIP3    H127812   4.778   1.943   0.976  0.0014  0.7069 -0.7724
 2107TIP3    H227813   4.833   2.005   0.850  0.8693 -0.0316 -0.7670
 2108TIP3   OH227814   5.500   6.524  14.166  0.1789  0.3897  0.1499
 2108TIP3    H127815   5.483   6.453  14.228 -3.6422  0.5422 -0.4949
 2108TIP3    H227816   5.453   6.499  14.086  1.9266  1.9057 -1.4506
 2109TIP3   OH227817   6.738   1.295   5.958 -0.3007 -0.1128 -0.1486
 2109TIP3    H127818   6.703   1.382   5.976 -0.3087  0.0724 -1.0333
 2109TIP3    H227819   6.826   1.312   5.924 -1.0214 -0.3226 -2.2277
 2110TIP3   OH227820   0.751   1.983  14.021  0.0018 -0.0490 -0.0332
 2110TIP3    H127821   0.680   1.928  13.988 -0.6204 -0.5078  1.9340
 2110TIP3    H227822   0.728   2.072  13.992 -0.3983 -0.4332 -0.9425
 2111TIP3   OH227823   1.526   4.892   5.697  0.5559  0.0737 -0.5649
 2111TIP3    H127824   1.451   4.902   5.755  0.4797  0.6727 -0.7605
 2111TIP3    H227825   1.523   4.801   5.668 -0.2488  0.1654 -0.7824
 2112TIP3   OH227826   6.175   6.670  13.467  0.2012 -0.2759 -0.4765
 2112TIP3    H127827   6.097   6.718  13.440  0.9370  1.1349 -0.1910
 2112TIP3    H227828   6.143   6.583  13.492 -0.7907 -1.0440 -3.9050
 2113TIP3   OH227829   3.865   6.160  16.393 -0.0415 -0.1898  0.6990
 2113TIP3    H127830   3.791   6.214  16.366  0.8948 -0.1303 -2.0722
 2113TIP3    H227831   3.920   6.219  16.445  0.4652  1.3201 -1.4170
 2114TIP3   OH227832   6.002   0.946   1.446  0.2598  0.1763 -0.0434
 2114TIP3    H127833   5.974   0.964   1.535  0.4338  1.6772 -0.2523
 2114TIP3    H227834   6.021   0.853   1.444 -1.2431 -0.1831  1.0600
 2115TIP3   OH227835   0.148   4.103  11.480  0.0577  0.5687 -0.1183
 2115TIP3    H127836   0.187   4.024  11.442  0.9324  0.9805 -0.1019
 2115TIP3    H227837   0.139   4.082  11.573 -4.3541 -1.3820 -0.7479
 2116TIP3   OH227838   1.196   6.195   0.145 -0.5513 -0.6480  0.3424
 2116TIP3    H127839   1.177   6.199   0.051 -1.6644 -1.7220  0.5094
 2116TIP3    H227840   1.230   6.107   0.159  0.3360 -0.2446  0.8409
 2117TIP3   OH227841   1.790   4.806  12.492 -0.0170  0.0704 -0.2238
 2117TIP3    H127842   1.736   4.773  12.563 -0.4626 -1.5161 -1.2442
 2117TIP3    H227843   1.762   4.897  12.480 -1.0156 -0.1137  0.6022
 2118TIP3   OH227844   1.653   2.571  13.826  0.2045  0.2364  0.7309
 2118TIP3    H127845   1.627   2.487  13.865 -0.0778  0.5669  1.2541
 2118TIP3    H227846   1.583   2.591  13.764 -0.2892  0.6254  1.4055
 2119TIP3   OH227847   5.696   5.292  13.722 -0.2390  0.4163  0.2106
 2119TIP3    H127848   5.607   5.266  13.746  0.3980 -1.1410  1.0532
 2119TIP3    H227849   5.701   5.280  13.628 -0.5308 -0.8512  0.3425
 2120TIP3   OH227850   3.123   0.176  12.639 -0.3371 -0.0101 -0.4871
 2120TIP3    H127851   3.067   0.252  12.655  0.6970  0.6628  0.0627
 2120TIP3    H227852   3.070   0.101  12.664 -0.6184  0.6899  1.1110
 2121TIP3   OH227853   2.295   6.033   0.715 -0.0951 -0.0467  0.4384
 2121TIP3    H127854   2.243   6.085   0.653  0.9119  1.2821  0.6625
 2121TIP3    H227855   2.357   5.986   0.659 -0.5419 -0.4773  0.2923
 2122TIP3   OH227856   1.825   5.489  16.432  0.2169 -0.1093  0.6864
 2122TIP3    H127857   1.757   5.438  16.474  2.0243 -1.3801  2.2264
 2122TIP3    H227858   1.832   5.569  16.484 -0.8794  0.5987 -0.2101
 2123TIP3   OH227859   4.285   1.486   5.911  0.1906  0.5454  0.2100
 2123TIP3    H127860   4.200   1.474   5.869  0.2930  0.1163  0.1236
 2123TIP3    H227861   4.306   1.400   5.948 -0.0128  0.9717  1.3566
 2124TIP3   OH227862   6.723   4.644   5.489  0.0154 -0.2258 -0.6626
 2124TIP3    H127863   6.720   4.557   5.450  1.6753 -1.4637  1.7255
 2124TIP3    H227864   6.815   4.658   5.511 -0.6910  0.4443  2.3868
 2125TIP3   OH227865   3.973   1.362   1.654  0.2967  0.1611  0.5948
 2125TIP3    H127866   3.977   1.413   1.735  1.6129  0.2711  0.4791
 2125TIP3    H227867   4.008   1.276   1.678  0.1856  0.0235  0.2638
 2126TIP3   OH227868   1.187   2.208   1.401 -0.9155 -0.5420  0.3958
 2126TIP3    H127869   1.227   2.124   1.424  1.3115 -0.2138 -1.8426
 2126TIP3    H227870   1.154   2.196   1.312 -0.5069  0.9328  0.0070
 2127TIP3   OH227871   0.125   6.270  13.926 -0.3181 -0.0921 -0.2718
 2127TIP3    H127872   0.218   6.288  13.907  0.4005 -1.7550  1.4207
 2127TIP3    H227873   0.094   6.349  13.970  1.2187 -0.6385  1.9804
 2128TIP3   OH227874   4.941   2.821  11.089 -0.0828 -0.1344 -0.6332
 2128TIP3    H127875   4.894   2.822  11.006  0.9835 -0.5398 -1.2611
 2128TIP3    H227876   5.023   2.865  11.070 -0.5227  1.3313  0.6639
 2129TIP3   OH227877   3.639   4.288   1.230 -0.5390 -0.7038 -0.7249
 2129TIP3    H127878   3.718   4.244   1.200  0.7636 -0.1753  1.6575
 2129TIP3    H227879   3.571   4.258   1.170  1.0879 -2.6560 -1.7368
 2130TIP3   OH227880   6.058   4.711   2.336  0.0679  0.0458 -0.1602
 2130TIP3    H127881   6.041   4.804   2.351  0.8962  0.2352 -0.3088
 2130TIP3    H227882   6.067   4.673   2.423  2.1238  0.5966 -0.0790
 2131TIP3   OH227883   6.244   6.215  11.498 -0.3321  0.4956 -0.0737
 2131TIP3    H127884   6.319   6.205  11.439 -0.3303 -1.7444  0.2179
 2131TIP3    H227885   6.188   6.279  11.455  1.2537  1.4730 -0.7870
 2132TIP3   OH227886   6.585   4.510   0.556 -0.4670  0.5537  0.0987
 2132TIP3    H127887   6.632   4.435   0.590 -1.5216 -0.7519 -1.1795
 2132TIP3    H227888   6.627   4.586   0.597  1.2817 -0.6581  0.6573
 2133TIP3   OH227889   0.818   5.832  16.716 -0.2244 -0.2145 -0.5338
 2133TIP3    H127890   0.764   5.754  16.701  0.9537 -0.6103 -3.4206
 2133TIP3    H227891   0.898   5.815  16.667  1.1532  1.7968  0.8396
 2134TIP3   OH227892   1.721   3.400  16.187 -0.1021  0.0552 -0.2324
 2134TIP3    H127893   1.719   3.391  16.092  0.3697  1.4389 -0.4067
 2134TIP3    H227894   1.664   3.475  16.205 -1.6029 -1.2521  0.7651
 2135TIP3   OH227895   6.456   0.664   3.321 -0.1778 -0.2497 -0.0822
 2135TIP3    H127896   6.375   0.637   3.279 -0.6969 -2.4420  2.0603
 2135TIP3    H227897   6.490   0.583   3.360  2.1312  0.9481  0.5330
 2136TIP3   OH227898   0.794   4.594  15.110 -0.4158 -0.4355 -0.2025
 2136TIP3    H127899   0.874   4.542  15.113  0.1762  0.2462 -2.2549
 2136TIP3    H227900   0.821   4.676  15.069 -1.5680  1.0615  1.8286
 2137TIP3   OH227901   2.274   4.732  11.183 -0.5929 -0.5991 -0.4299
 2137TIP3    H127902   2.227   4.789  11.244  3.1634  1.8185  0.5458
 2137TIP3    H227903   2.318   4.668  11.239 -0.1029 -0.7076 -0.9267
 2138TIP3   OH227904   5.467   6.537  17.093  0.3773  0.2932  0.3186
 2138TIP3    H127905   5.489   6.457  17.045 -0.9712  0.0110  0.1310
 2138TIP3    H227906   5.512   6.607  17.046 -1.3195  0.1074 -1.7730
 2139TIP3   OH227907   3.455   6.485   6.171 -0.2381 -0.1869  0.2913
 2139TIP3    H127908   3.386   6.483   6.104  0.8820  0.1071 -0.9012
 2139TIP3    H227909   3.463   6.578   6.193 -0.5904 -0.2818  0.8270
 2140TIP3   OH227910   0.310   3.312   2.752 -0.6186 -0.5824 -0.1252
 2140TIP3    H127911   0.382   3.361   2.792 -0.7369  0.6581 -1.3632
 2140TIP3    H227912   0.252   3.291   2.825  0.3768 -0.5397  0.7108
 2141TIP3   OH227913   4.055   3.256   4.145  0.5308 -0.0493 -0.0797
 2141TIP3    H127914   3.999   3.241   4.221 -1.5589  0.6073 -1.4095
 2141TIP3    H227915   4.060   3.351   4.137  2.3665 -0.0705  0.3323
 2142TIP3   OH227916   5.669   5.886   0.772  0.1321 -0.2807  0.2783
 2142TIP3    H127917   5.749   5.936   0.763 -0.2950  0.6055  1.2251
 2142TIP3    H227918   5.693   5.813   0.830  0.6404 -0.9714 -0.7563
 2143TIP3   OH227919   0.287   1.298  13.092 -0.1548  0.0600 -0.1023
 2143TIP3    H127920   0.380   1.277  13.089  0.0772  0.6820  1.4995
 2143TIP3    H227921   0.243   1.214  13.104  0.4085 -0.0141  1.6267
 2144TIP3   OH227922   1.239   5.760  13.242  0.3641 -0.3437  0.2701
 2144TIP3    H127923   1.178   5.721  13.179 -0.4907  0.0350  0.8501
 2144TIP3    H227924   1.313   5.699  13.246  0.1513 -0.6739 -0.6386
 2145TIP3   OH227925   5.434   4.745   3.215 -0.2818  0.0887 -0.2172
 2145TIP3    H127926   5.460   4.813   3.152 -0.3612 -0.2361 -0.6070
 2145TIP3    H227927   5.355   4.780   3.256 -0.8552 -0.1519 -1.0774
 2146TIP3   OH227928   4.557   0.517   2.074  0.4760  0.0395 -0.0281
 2146TIP3    H127929   4.585   0.441   2.126  0.9281 -0.3818 -0.8692
 2146TIP3    H227930   4.558   0.486   1.984 -1.8492  0.2685 -0.2052
 2147TIP3   OH227931   4.814   1.220   0.532 -0.0825 -0.0452  0.2860
 2147TIP3    H127932   4.731   1.174   0.519 -0.3599  0.6411 -0.5138
 2147TIP3    H227933   4.838   1.251   0.444  0.2446  1.0567  0.7415
 2148TIP3   OH227934   6.780   5.460   4.726 -0.3836 -0.0256  0.2312
 2148TIP3    H127935   6.834   5.466   4.805  3.2811  2.2837 -2.1553
 2148TIP3    H227936   6.704   5.515   4.745  1.5593  2.4166  1.4551
 2149TIP3   OH227937   6.461   0.267   4.890  0.3473 -0.0259 -0.0880
 2149TIP3    H127938   6.514   0.342   4.916  1.4156 -0.7158 -0.2238
 2149TIP3    H227939   6.433   0.287   4.800  1.2540 -0.1244 -0.3947
 2150TIP3   OH227940   2.584   5.173   3.879  0.0792  0.5731 -0.5038
 2150TIP3    H127941   2.493   5.199   3.863  0.4298  1.1659 -1.6924
 2150TIP3    H227942   2.582   5.077   3.880 -0.2453  0.4921 -2.8551
 2151TIP3   OH227943   1.915   3.312   5.121  0.0553  0.3417  0.3293
 2151TIP3    H127944   1.845   3.316   5.186 -1.2844 -0.7897 -0.9757
 2151TIP3    H227945   1.994   3.339   5.168 -1.0911  0.7786  2.0689
 2152TIP3   OH227946   6.161   2.993   3.377  0.2839 -0.1805 -0.0924
 2152TIP3    H127947   6.073   3.020   3.351  1.0656  1.5901 -1.1687
 2152TIP3    H227948   6.148   2.920   3.437 -1.8961 -0.0500 -0.3303
 2153TIP3   OH227949   6.105   5.340  11.685  0.4182  0.1097 -0.1260
 2153TIP3    H127950   6.116   5.374  11.597  1.2251 -0.5758 -0.3046
 2153TIP3    H227951   6.060   5.410  11.733 -2.1612 -0.3772 -1.6527
 2154TIP3   OH227952   4.532   0.934  11.535  0.2260 -0.5936 -0.3656
 2154TIP3    H127953   4.592   0.968  11.601  0.3160 -0.1725 -0.6615
 2154TIP3    H227954   4.490   1.012  11.499 -2.2393 -0.9492  1.4402
 2155TIP3   OH227955   0.177   5.944   1.876  0.4544  0.9417  0.2985
 2155TIP3    H127956   0.095   5.913   1.838  0.1970  0.8254  0.9324
 2155TIP3    H227957   0.191   6.030   1.836  0.3360  0.7042 -0.2637
 2156TIP3   OH227958   6.586   4.735  12.933  0.4419  0.3522 -0.5397
 2156TIP3    H127959   6.511   4.773  12.887  0.4840 -1.8252 -2.6259
 2156TIP3    H227960   6.640   4.698  12.863  3.2787  1.3991  0.9211
 2157TIP3   OH227961   2.727   0.897  14.990 -0.4920 -0.2945 -0.0207
 2157TIP3    H127962   2.768   0.819  14.951 -1.8691 -2.1988  2.0611
 2157TIP3    H227963   2.634   0.885  14.971 -0.7990  0.4771  0.9661
 2158TIP3   OH227964   4.373   1.564   0.923  0.2311 -0.3190 -0.0733
 2158TIP3    H127965   4.373   1.648   0.968  0.0209  0.1613 -0.9352
 2158TIP3    H227966   4.322   1.506   0.979 -1.6549  0.7691 -0.5943
 2159TIP3   OH227967   3.437   4.219   5.699  0.5079  0.9322  0.3892
 2159TIP3    H127968   3.508   4.263   5.746  0.2927  1.2902  0.3784
 2159TIP3    H227969   3.454   4.125   5.712  2.1195  0.9297 -1.2301
 2160TIP3   OH227970   2.336   3.056  10.965  0.1135 -0.0601 -0.2888
 2160TIP3    H127971   2.311   3.094  10.881 -0.5578  0.4861  0.1497
 2160TIP3    H227972   2.411   3.000  10.944  0.8862  1.1855 -1.0258
 2161TIP3   OH227973   5.155   0.700   0.823 -0.0358 -0.2880 -0.8271
 2161TIP3    H127974   5.138   0.758   0.749 -0.1456  0.7483  0.0011
 2161TIP3    H227975   5.179   0.616   0.782 -1.2872 -0.0997 -2.0346
 2162TIP3   OH227976   1.238   2.940  15.033  0.3693 -0.5131 -0.7181
 2162TIP3    H127977   1.225   2.859  14.984  0.0168 -1.5191  0.9462
 2162TIP3    H227978   1.291   2.914  15.108  1.1982  1.0411 -0.7185
 2163TIP3   OH227979   1.567   2.867   0.692  0.2126  0.2955 -0.3028
 2163TIP3    H127980   1.639   2.811   0.723  0.9441  1.1808 -0.3457
 2163TIP3    H227981   1.518   2.811   0.632  0.2375 -0.6619  0.5300
 2164TIP3   OH227982   5.474   5.235  13.847  0.3838 -0.2140 -0.0702
 2164TIP3    H127983   5.388   5.196  13.828  0.2546  0.4846 -0.9993
 2164TIP3    H227984   5.486   5.222  13.941 -1.5725  1.2352  0.4514
 2165TIP3   OH227985   3.918   5.441   3.136 -0.0446  0.2682  0.3238
 2165TIP3    H127986   3.828   5.462   3.108  0.2482  1.6714  0.3502
 2165TIP3    H227987   3.965   5.426   3.054  0.2141  1.8385  0.1553
 2166TIP3   OH227988   3.838   3.187  13.759 -0.0789  0.2283  0.0274
 2166TIP3    H127989   3.861   3.190  13.666 -3.7566  0.9737 -1.0201
 2166TIP3    H227990   3.819   3.278  13.782  0.8577  0.0642  1.5794
 2167TIP3   OH227991   5.504   0.754  11.204 -0.1676  0.2987 -0.0296
 2167TIP3    H127992   5.424   0.743  11.153 -0.7908 -0.3758  1.0781
 2167TIP3    H227993   5.574   0.751  11.138 -1.0163  0.7189 -0.9901
 2168TIP3   OH227994   4.133   1.930   1.732  0.4594 -0.8026 -0.6104
 2168TIP3    H127995   4.225   1.954   1.744 -0.0975  0.9072  0.5470
 2168TIP3    H227996   4.108   1.889   1.814 -0.4057  0.8172 -0.0410
 2169TIP3   OH227997   2.112   0.782  12.025 -1.1064  0.0959  0.2080
 2169TIP3    H127998   2.117   0.712  12.090 -1.4139  0.4980  0.6698
 2169TIP3    H227999   2.088   0.859  12.075 -1.7370  0.3281 -0.4389
 2170TIP3   OH228000   1.292   1.692   1.744 -0.5807  0.4663  0.0218
 2170TIP3    H128001   1.366   1.752   1.728 -0.2098  0.3596  1.2211
 2170TIP3    H228002   1.279   1.695   1.839  0.3341 -2.3618  0.3309
 2171TIP3   OH228003   0.823   4.252   2.213  0.1601  1.0658  0.4330
 2171TIP3    H128004   0.817   4.256   2.118  0.4972  0.6348  0.3915
 2171TIP3    H228005   0.851   4.340   2.239  0.8305  0.9695  0.0669
 2172TIP3   OH228006   2.423   1.233  11.591  0.1572 -0.0819  0.4228
 2172TIP3    H128007   2.445   1.322  11.565 -2.5905  0.7817  0.8168
 2172TIP3    H228008   2.338   1.240  11.634  0.0258 -2.8576  0.8150
 2173TIP3   OH228009   2.383   4.323   0.786 -0.4081 -0.0842 -1.2584
 2173TIP3    H128010   2.355   4.245   0.834 -1.1245  0.8320 -0.1492
 2173TIP3    H228011   2.458   4.294   0.735 -1.1635 -1.7080 -1.5161
 2174TIP3   OH228012   2.411   5.364   1.835 -0.2237 -0.0799 -0.3481
 2174TIP3    H128013   2.348   5.433   1.811  1.6273  1.2961 -1.6157
 2174TIP3    H228014   2.381   5.286   1.788 -1.6326  0.2198  0.0320
 2175TIP3   OH228015   5.726   1.728   5.244  0.5041 -0.1087 -0.2844
 2175TIP3    H128016   5.650   1.729   5.301  0.3481 -0.6065 -0.4730
 2175TIP3    H228017   5.778   1.803   5.271 -0.5910  0.9032 -0.8968
 2176TIP3   OH228018   3.660   1.747  11.183  0.1529 -0.0922 -0.1537
 2176TIP3    H128019   3.591   1.704  11.233  1.2134 -0.3140  1.1857
 2176TIP3    H228020   3.705   1.676  11.138  1.3723 -0.3544  1.3877
 2177TIP3   OH228021   6.550   0.199   2.126 -0.6047 -0.1218  0.3595
 2177TIP3    H128022   6.468   0.244   2.109  0.6692  1.6968 -1.5484
 2177TIP3    H228023   6.539   0.113   2.084 -0.7965  0.9605 -1.9900
 2178TIP3   OH228024   5.136   3.513   0.888 -0.1029  0.7856 -0.1648
 2178TIP3    H128025   5.068   3.467   0.839  1.1791 -0.1936 -1.1006
 2178TIP3    H228026   5.128   3.480   0.977  1.7210 -2.5816 -1.0781
 2179TIP3   OH228027   0.612   4.037  13.490 -0.4483 -0.4579  0.3550
 2179TIP3    H128028   0.560   3.986  13.552 -0.2937  0.9072  1.6580
 2179TIP3    H228029   0.553   4.106  13.459 -0.8306 -1.6704 -1.8161
 2180TIP3   OH228030   6.577   2.311   1.050  0.4360 -0.2962 -0.6039
 2180TIP3    H128031   6.510   2.355   1.102  0.8862  0.1360 -0.3705
 2180TIP3    H228032   6.638   2.381   1.026  0.4902 -0.5803 -1.3056
 2181TIP3   OH228033   3.367   0.636  13.828 -0.2524  0.3406 -0.1450
 2181TIP3    H128034   3.387   0.545  13.849 -0.2402  0.2484 -0.5460
 2181TIP3    H228035   3.453   0.678  13.823 -0.2175  0.2028 -0.7184
 2182TIP3   OH228036   3.357   3.552  12.456  0.2320  0.4340 -0.0587
 2182TIP3    H128037   3.317   3.468  12.434  0.5598  0.9588 -3.0142
 2182TIP3    H228038   3.290   3.598  12.507 -0.8394 -0.7310 -0.3647
 2183TIP3   OH228039   4.959   1.824  17.077 -0.1014  0.4897 -0.1871
 2183TIP3    H128040   5.038   1.800  17.125  0.0393  0.4330 -0.4448
 2183TIP3    H228041   4.889   1.772  17.118  0.3311 -1.0168 -1.2611
 2184TIP3   OH228042   0.130   3.562  16.300  0.2362  0.4141 -0.4794
 2184TIP3    H128043   0.112   3.583  16.208 -0.8451 -1.6285 -0.8120
 2184TIP3    H228044   0.062   3.607  16.349 -0.1210  0.2869 -0.8513
 2185TIP3   OH228045   3.992   5.225  15.647 -0.2885  0.2331  0.1554
 2185TIP3    H128046   3.963   5.179  15.569  1.7528  0.2525 -0.6704
 2185TIP3    H228047   4.037   5.158  15.699  0.1153  0.6535  0.3523
 2186TIP3   OH228048   2.266   3.604  14.800 -0.0448 -0.0003 -0.1810
 2186TIP3    H128049   2.183   3.649  14.785  0.0629 -0.0863 -1.1043
 2186TIP3    H228050   2.250   3.549  14.877  0.4178  3.0238  2.2805
 2187TIP3   OH228051   3.140   5.035   0.799 -0.0366  0.4276  0.0844
 2187TIP3    H128052   3.113   5.050   0.709 -1.4572 -1.6543  0.0997
 2187TIP3    H228053   3.208   4.968   0.793  0.0401  0.4633  0.5316
 2188TIP3   OH228054   5.518   4.499   2.405  0.2132  0.1940  0.0302
 2188TIP3    H128055   5.592   4.496   2.465 -0.1674  1.4516  0.5812
 2188TIP3    H228056   5.548   4.556   2.334  0.5091 -0.9526 -0.8031
 2189TIP3   OH228057   2.111   2.323  16.728  0.1236 -0.4281  0.1195
 2189TIP3    H128058   2.168   2.400  16.724  0.4035 -0.6722 -2.0926
 2189TIP3    H228059   2.022   2.359  16.726  0.1981 -0.1120  1.6110
 2190TIP3   OH228060   2.730   2.118   5.351 -0.2546  0.1066  0.2417
 2190TIP3    H128061   2.790   2.111   5.425 -1.0400  0.5545  0.9389
 2190TIP3    H228062   2.729   2.211   5.329  0.8757 -0.1769 -1.1196
 2191TIP3   OH228063   3.408   5.399  14.836 -0.2100 -0.2910 -0.0484
 2191TIP3    H128064   3.414   5.312  14.798 -0.1967 -0.2418 -0.1599
 2191TIP3    H228065   3.373   5.454  14.766 -0.6049 -0.2880  0.1519
 2192TIP3   OH228066   1.307   0.448  12.618  0.0682 -0.2187 -0.9889
 2192TIP3    H128067   1.368   0.403  12.677 -2.1725  1.0318  2.6653
 2192TIP3    H228068   1.338   0.539  12.616  0.8945 -0.4958 -3.0185
 2193TIP3   OH228069   4.328   6.613  11.922  0.0556 -0.2832 -0.4562
 2193TIP3    H128070   4.328   6.569  11.837  0.4545 -0.0190 -0.5993
 2193TIP3    H228071   4.316   6.706  11.901 -1.8286 -0.4076 -0.0935
 2194TIP3   OH228072   4.928   4.249  12.058  0.8784  0.2816 -0.3077
 2194TIP3    H128073   4.931   4.305  12.136 -0.0714  0.5386 -0.4383
 2194TIP3    H228074   5.011   4.265  12.013  1.1355  0.6537  0.2961
 2195TIP3   OH228075   0.767   0.408   1.259  0.0845 -0.3125  0.3074
 2195TIP3    H128076   0.795   0.386   1.348 -0.9545 -1.0395  0.4684
 2195TIP3    H228077   0.671   0.413   1.264  0.0217 -0.2130 -0.7416
 2196TIP3   OH228078   1.337   4.315   4.014 -0.2887  0.1153  0.3662
 2196TIP3    H128079   1.310   4.237   4.061 -2.7383 -0.9643 -2.4892
 2196TIP3    H228080   1.408   4.284   3.956 -2.1016 -0.4843 -1.6888
 2197TIP3   OH228081   4.623   2.024  14.912  0.3681  0.3872 -0.2159
 2197TIP3    H128082   4.698   2.078  14.935  0.7742  0.1174 -0.8640
 2197TIP3    H228083   4.661   1.939  14.890 -0.2214 -0.0346  0.3639
 2198TIP3   OH228084   1.305   0.649  14.967  0.0097  0.2459  0.5077
 2198TIP3    H128085   1.396   0.657  14.993  0.7956 -0.6271 -1.7351
 2198TIP3    H228086   1.264   0.731  14.996  1.4147  0.5491  1.7490
 2199TIP3   OH228087   4.786   2.905  16.600 -0.2067 -0.1919 -0.2100
 2199TIP3    H128088   4.857   2.969  16.604  0.5188 -0.9819 -0.2158
 2199TIP3    H228089   4.830   2.821  16.587 -1.2149 -0.5521 -1.4704
 2200TIP3   OH228090   3.686   4.504   0.466  0.7580 -0.2146 -0.3398
 2200TIP3    H128091   3.660   4.545   0.548  0.2215 -1.0252 -0.0912
 2200TIP3    H228092   3.685   4.575   0.402 -0.7320  0.0535 -0.0500
 2201TIP3   OH228093   3.462   3.055   2.078 -0.3177 -0.0575  0.3069
 2201TIP3    H128094   3.554   3.071   2.095 -0.3269 -1.1826  1.5617
 2201TIP3    H228095   3.417   3.132   2.112  0.1700  0.8335 -0.9646
 2202TIP3   OH228096   1.171   2.053   0.277 -1.0390 -0.7163  0.4334
 2202TIP3    H128097   1.196   2.097   0.195  0.9826 -1.1660  0.7632
 2202TIP3    H228098   1.196   2.115   0.346 -1.4156 -0.9415  0.7767
 2203TIP3   OH228099   6.575   5.332   3.131  0.0749  0.1424  0.4231
 2203TIP3    H128100   6.626   5.317   3.210  2.0722  3.5673  0.0041
 2203TIP3    H228101   6.486   5.350   3.162  0.9340  1.9351  2.0231
 2204TIP3   OH228102   0.197   3.422  14.114  0.5687  0.2699  0.0840
 2204TIP3    H128103   0.186   3.483  14.187  0.5927 -0.0066  0.3214
 2204TIP3    H228104   0.271   3.368  14.139  1.6789  1.2729 -0.9206
 2205TIP3   OH228105   5.840   3.426   3.991 -0.2856 -0.0641 -0.4652
 2205TIP3    H128106   5.794   3.371   4.055 -0.3698 -0.4673 -0.8655
 2205TIP3    H228107   5.774   3.490   3.963 -0.6756 -0.7561 -1.1769
 2206TIP3   OH228108   6.284   3.358   4.410 -0.5801  0.4455  0.0092
 2206TIP3    H128109   6.310   3.279   4.457  0.3314  0.1774 -0.8865
 2206TIP3    H228110   6.206   3.332   4.360 -0.2851  0.0960 -0.2808
 2207TIP3   OH228111   5.331   3.679   6.056  0.3150 -0.0486 -0.3338
 2207TIP3    H128112   5.290   3.764   6.074  1.0294  0.1141  0.5947
 2207TIP3    H228113   5.420   3.688   6.089  0.3873 -1.1706 -0.1961
 2208TIP3   OH228114   3.486   2.581   5.014 -0.3427  0.2322  0.1881
 2208TIP3    H128115   3.445   2.653   5.063 -0.1034 -0.0470  0.8098
 2208TIP3    H228116   3.534   2.624   4.943  1.3130  0.8513  1.6102
 2209TIP3   OH228117   6.276   3.329  13.940  0.0171 -0.4491 -0.1948
 2209TIP3    H128118   6.300   3.422  13.945 -0.5720 -0.2750 -0.5554
 2209TIP3    H228119   6.267   3.312  13.847 -3.7530  0.1700 -0.1224
 2210TIP3   OH228120   3.827   4.872   4.934 -0.4523  0.3410  0.3989
 2210TIP3    H128121   3.909   4.889   4.888 -0.1758  0.2257  0.8527
 2210TIP3    H228122   3.760   4.886   4.867 -0.1234  1.3741  0.2615
 2211TIP3   OH228123   3.688   1.023   4.889 -0.5418  0.3059  0.2064
 2211TIP3    H128124   3.603   0.992   4.857  0.5467 -1.3612 -1.2051
 2211TIP3    H228125   3.675   1.117   4.901 -1.8863  0.5513 -2.3958
 2212TIP3   OH228126   3.982   2.516  11.457  0.3145  0.2569  0.1163
 2212TIP3    H128127   3.942   2.575  11.393  2.7709  0.9107 -0.9497
 2212TIP3    H228128   3.988   2.431  11.411 -1.1926 -0.2620  0.8367
 2213TIP3   OH228129   1.050   4.739  16.008  0.1397 -0.2887  0.3114
 2213TIP3    H128130   1.069   4.787  15.928 -1.0457  0.3437  0.3829
 2213TIP3    H228131   1.076   4.649  15.989  1.3499  0.1482 -0.2087
 2214TIP3   OH228132   4.632   1.605  14.433 -0.0102  0.0754  0.1042
 2214TIP3    H128133   4.608   1.696  14.415 -2.9133 -0.3836  1.1769
 2214TIP3    H228134   4.681   1.610  14.516 -3.6132  0.4686  2.4412
 2215TIP3   OH228135   1.419   3.649  12.774 -0.4928  0.1256  0.1089
 2215TIP3    H128136   1.349   3.586  12.763 -0.7970 -0.1513  2.9095
 2215TIP3    H228137   1.377   3.726  12.812  0.0401  1.7274 -2.3296
 2216TIP3   OH228138   2.920   0.238  10.797  0.2311 -0.1415  0.4394
 2216TIP3    H128139   2.924   0.328  10.831  0.4823  0.3814 -0.9126
 2216TIP3    H228140   2.826   0.221  10.788  0.1891  0.1132  0.3731
 2217TIP3   OH228141   1.194   2.133   4.940  0.1093  0.1949  0.1977
 2217TIP3    H128142   1.258   2.077   4.983 -0.3614 -2.4927 -2.2986
 2217TIP3    H228143   1.166   2.195   5.008  3.9762  0.3782  1.8358
 2218TIP3   OH228144   3.407   5.085  11.455 -0.5579 -0.5812 -0.2493
 2218TIP3    H128145   3.327   5.048  11.418  0.5446 -2.8833 -0.5375
 2218TIP3    H228146   3.478   5.044  11.405  0.8463  0.0933  1.0853
 2219TIP3   OH228147   1.477   2.987  10.839  0.7108 -0.0666  0.8627
 2219TIP3    H128148   1.416   3.027  10.901 -0.3837 -2.5577  1.4992
 2219TIP3    H228149   1.451   2.895  10.835  2.8072 -0.6679 -0.8582
 2220TIP3   OH228150   1.024   4.672  13.069 -0.2962  0.2453 -0.3898
 2220TIP3    H128151   0.992   4.701  13.154  0.3114 -0.0497 -0.0526
 2220TIP3    H228152   0.945   4.644  13.022 -0.5347 -0.6406  0.4823
 2221TIP3   OH228153   6.517   2.499  16.894 -0.4371  0.0915  0.2121
 2221TIP3    H128154   6.556   2.569  16.841 -0.2900  0.4659  0.8108
 2221TIP3    H228155   6.455   2.543  16.952 -2.8796 -0.6295 -1.6671
 2222TIP3   OH228156   5.765   6.317   2.449 -0.0877  0.2803  0.0084
 2222TIP3    H128157   5.763   6.246   2.512 -0.3497  0.1358 -0.1626
 2222TIP3    H228158   5.679   6.314   2.406  0.3136 -0.0229 -0.7938
 2223TIP3   OH228159   3.539   1.205  12.860 -0.4504 -0.8914  0.0805
 2223TIP3    H128160   3.511   1.121  12.897  0.1824 -0.9618  0.4110
 2223TIP3    H228161   3.460   1.259  12.862 -0.1957 -0.5020  2.6531
 2224TIP3   OH228162   4.665   2.090   6.931  0.0808  0.0878 -0.4561
 2224TIP3    H128163   4.701   2.130   7.011 -0.8188  1.1947 -0.5738
 2224TIP3    H228164   4.695   2.148   6.860 -0.6363  0.1582 -0.7132
 2225TIP3   OH228165   2.368   6.493   6.274  0.7893 -0.2195 -0.6203
 2225TIP3    H128166   2.278   6.523   6.292  1.2382  0.3653  0.8060
 2225TIP3    H228167   2.389   6.437   6.348  1.6058 -0.3467 -0.9454
 2226TIP3   OH228168   6.293   0.502  12.295  0.2052 -0.0806 -0.3264
 2226TIP3    H128169   6.339   0.422  12.321 -0.5107 -0.4217 -0.0585
 2226TIP3    H228170   6.222   0.509  12.359  0.3952  0.8942 -0.2142
 2227TIP3   OH228171   6.826   6.672  15.557 -0.2458 -0.5326 -0.7310
 2227TIP3    H128172   6.737   6.707  15.569  0.3243  0.1391  2.4030
 2227TIP3    H228173   6.875   6.745  15.519 -0.7238 -0.4943 -1.2996
 2228TIP3   OH228174   5.384   3.644   1.215  0.2154  0.0906 -0.2890
 2228TIP3    H128175   5.293   3.662   1.191  0.0190 -1.8261 -1.1421
 2228TIP3    H228176   5.380   3.616   1.307 -0.2512 -1.2187 -0.6938
 2229TIP3   OH228177   4.014   3.475  15.658  0.2529 -0.6337 -0.4201
 2229TIP3    H128178   3.998   3.545  15.594  0.8980 -0.2965 -0.2232
 2229TIP3    H228179   3.934   3.422  15.656  0.5347 -1.0573 -2.0294
 2230TIP3   OH228180   3.136   3.791   5.866  0.3497 -0.0917 -0.1707
 2230TIP3    H128181   3.051   3.748   5.863  0.6923 -0.7601 -0.5989
 2230TIP3    H228182   3.191   3.739   5.807  0.2575  2.0598 -2.3029
 2231TIP3   OH228183   0.031   4.984   0.177 -0.5048  0.7104 -0.1108
 2231TIP3    H128184   0.099   4.941   0.230  0.4469 -0.2261 -1.9878
 2231TIP3    H228185  -0.050   4.968   0.226  0.2166 -0.7734  0.6914
 2232TIP3   OH228186   1.694   5.043  14.965  0.1115 -0.3763  0.0695
 2232TIP3    H128187   1.603   5.046  14.938 -0.3617  1.6756  1.5958
 2232TIP3    H228188   1.707   5.125  15.014  2.1138 -1.6491  1.8640
 2233TIP3   OH228189   4.101   2.023  15.528  0.2357  0.4628 -0.0757
 2233TIP3    H128190   4.104   2.056  15.438  0.4489 -0.4920 -0.4272
 2233TIP3    H228191   4.087   1.929  15.519  1.0047  0.2422  0.8768
 2234TIP3   OH228192   2.189   5.384  12.374 -0.3326  0.1192 -0.1520
 2234TIP3    H128193   2.188   5.425  12.288  1.4992  1.9917  0.6343
 2234TIP3    H228194   2.139   5.303  12.363 -1.8495  1.2657 -2.4443
 2235TIP3   OH228195   6.820   0.427  13.593 -0.6333  0.1655  0.5078
 2235TIP3    H128196   6.760   0.447  13.521  0.5213 -0.4407 -0.6530
 2235TIP3    H228197   6.775   0.459  13.671 -2.6931 -0.6809 -0.2630
 2236TIP3   OH228198   0.158   3.625   4.753 -0.4150 -0.2136  0.0305
 2236TIP3    H128199   0.252   3.622   4.735 -0.5239 -2.3074 -0.3555
 2236TIP3    H228200   0.123   3.683   4.685  0.5887  0.7105  0.2764
 2237TIP3   OH228201   1.928   0.112   2.153  0.4456  0.2422  0.0560
 2237TIP3    H128202   1.939   0.094   2.059  1.4606 -2.5145  0.6110
 2237TIP3    H228203   1.991   0.182   2.171  1.1570 -0.0599 -1.1090
 2238TIP3   OH228204   2.332   0.904  12.675 -0.0153  0.1678 -0.3030
 2238TIP3    H128205   2.384   0.875  12.750  0.4411  2.1823  0.2421
 2238TIP3    H228206   2.360   0.848  12.603  2.0831  0.4035  0.2522
 2239TIP3   OH228207   5.878   0.041   1.809 -0.1199  0.3618 -0.0382
 2239TIP3    H128208   5.966   0.076   1.823 -1.0993  2.1555  2.2796
 2239TIP3    H228209   5.855  -0.000   1.892 -1.1697 -0.8587 -0.8917
 2240TIP3   OH228210   3.580   5.396   1.310  0.4322  0.1587 -0.0301
 2240TIP3    H128211   3.528   5.385   1.389  0.3589 -0.0436 -0.1067
 2240TIP3    H228212   3.559   5.320   1.256  1.7688 -0.5954  0.4694
 2241TIP3   OH228213   3.685   2.929   0.787  0.5364  0.1648 -0.2108
 2241TIP3    H128214   3.617   2.902   0.725 -0.0307 -0.9431  0.8718
 2241TIP3    H228215   3.718   2.848   0.825 -0.5561  0.8538  2.4306
 2242TIP3   OH228216   4.415   5.264   0.917 -0.0754  0.1330 -0.2414
 2242TIP3    H128217   4.334   5.224   0.946  0.0924 -0.3193 -0.3791
 2242TIP3    H228218   4.406   5.356   0.939 -0.9663  0.2398 -1.0020
 2243TIP3   OH228219   0.803   1.465  12.378  0.3587  0.0826 -0.0787
 2243TIP3    H128220   0.803   1.370  12.378  1.8523  0.0526 -0.7283
 2243TIP3    H228221   0.745   1.490  12.306  0.6532 -0.3521 -0.4665
 2244TIP3   OH228222   6.849   6.399  12.832  0.8552 -0.1296 -0.4403
 2244TIP3    H128223   6.884   6.488  12.832 -0.9592  0.6575  1.0032
 2244TIP3    H228224   6.764   6.407  12.789  0.2540 -0.9614  0.5532
 2245TIP3   OH228225   1.190   4.524   2.016  0.0886 -0.4154  0.3433
 2245TIP3    H128226   1.256   4.479   1.964 -1.4504 -1.1837 -1.0085
 2245TIP3    H228227   1.234   4.603   2.047  1.0751  0.1246 -2.1853
 2246TIP3   OH228228   1.071   3.716   0.319 -0.2774  0.1825 -0.9099
 2246TIP3    H128229   1.087   3.663   0.397 -1.3544  1.3753  0.1515
 2246TIP3    H228230   1.014   3.787   0.348  2.7543  3.2265 -1.7669
 2247TIP3   OH228231   0.090   1.727  13.414 -0.2063 -0.0830 -0.2117
 2247TIP3    H128232   0.166   1.781  13.392 -0.5901 -0.8077 -3.9773
 2247TIP3    H228233   0.024   1.752  13.350 -2.1643 -1.5462  1.1267
 2248TIP3   OH228234   1.694   1.339   2.390  0.5134  0.0392  0.7089
 2248TIP3    H128235   1.741   1.269   2.345 -1.9127 -0.8303 -0.6485
 2248TIP3    H228236   1.744   1.418   2.369  0.5965 -0.6108 -1.9498
 2249TIP3   OH228237   0.093   2.534  13.100 -0.1293 -0.2561 -0.1450
 2249TIP3    H128238   0.178   2.491  13.090  0.2831  1.0171 -2.9197
 2249TIP3    H228239   0.114   2.621  13.134 -0.3905 -0.1285 -0.3113
 2250TIP3   OH228240   2.147   2.542  13.248  0.0518  0.4580  0.4123
 2250TIP3    H128241   2.181   2.505  13.167  0.3572 -1.0325  1.1861
 2250TIP3    H228242   2.073   2.486  13.271 -0.9117  1.6985  0.4649
 2251TIP3   OH228243   1.132   3.990  16.256  0.2061  0.0363 -0.1457
 2251TIP3    H128244   1.059   4.043  16.222 -0.4896 -1.4091 -1.0125
 2251TIP3    H228245   1.138   4.014  16.348 -0.6109  1.0356 -0.3320
 2252TIP3   OH228246   1.171   5.064  13.525  0.1841 -0.1765 -0.0080
 2252TIP3    H128247   1.088   5.028  13.494  0.1879  1.2522 -1.8244
 2252TIP3    H228248   1.146   5.140  13.577  0.2848 -1.3913  1.9335
 2253TIP3   OH228249   1.748   5.084  11.407 -0.2462 -0.3830  0.1596
 2253TIP3    H128250   1.824   5.138  11.432 -0.1672 -1.0541  1.4837
 2253TIP3    H228251   1.692   5.144  11.358  1.6061 -0.1486 -1.8142
 2254TIP3   OH228252   5.057   2.903  16.112 -0.0198  0.0600 -0.2442
 2254TIP3    H128253   5.017   2.817  16.126 -0.3343  0.0317 -1.2092
 2254TIP3    H228254   4.988   2.965  16.135 -0.4140  0.0201 -1.2865
 2255TIP3   OH228255   0.422   0.529  16.891  0.4214  0.2524  0.2183
 2255TIP3    H128256   0.341   0.556  16.848  0.1482 -2.9337 -1.6277
 2255TIP3    H228257   0.487   0.593  16.863 -0.5651  0.3565 -2.0412
 2256TIP3   OH228258   3.308   0.069   2.695 -0.6791 -0.0507  0.3507
 2256TIP3    H128259   3.358  -0.009   2.670  0.7525  0.8008  0.4469
 2256TIP3    H228260   3.327   0.080   2.788  0.8354  1.5433 -0.0882
 2257TIP3   OH228261   3.986   5.057  13.742  0.2544 -0.4228 -0.0167
 2257TIP3    H128262   3.928   5.013  13.680 -1.8333 -0.8051  2.0336
 2257TIP3    H228263   3.963   5.150  13.735 -0.1290 -0.4905  0.3031
 2258TIP3   OH228264   0.719   4.397  15.556 -0.6503 -0.0096  0.2793
 2258TIP3    H128265   0.693   4.442  15.475  0.4171  1.8101  0.8838
 2258TIP3    H228266   0.734   4.306  15.529  1.4073  0.8805 -2.0100
 2259TIP3   OH228267   1.727   1.241  14.210 -0.1422 -0.0048 -0.3848
 2259TIP3    H128268   1.648   1.267  14.162  0.7426 -0.6071 -2.2759
 2259TIP3    H228269   1.731   1.146  14.197  1.5569  0.1713 -1.4499
 2260TIP3   OH228270   5.827   3.132   0.977 -0.3744 -0.5007 -0.0592
 2260TIP3    H128271   5.815   3.156   1.069  0.2466 -1.0040  0.1572
 2260TIP3    H228272   5.906   3.078   0.976  1.3444  1.8722 -1.2879
 2261TIP3   OH228273   3.931   6.463  13.559  0.6944  0.4912 -0.0529
 2261TIP3    H128274   4.021   6.492  13.545  0.4492  0.5589 -1.6129
 2261TIP3    H228275   3.913   6.403  13.487  0.1500 -1.1360  1.3821
 2262TIP3   OH228276   0.501   6.745  11.872  0.4295 -0.2598  0.3762
 2262TIP3    H128277   0.454   6.673  11.915 -0.4881  0.0367 -0.1000
 2262TIP3    H228278   0.480   6.821  11.926 -0.4346  0.0487 -0.3703
 2263TIP3   OH228279   0.146   3.999   0.644 -0.1688  0.1877  0.7393
 2263TIP3    H128280   0.222   3.941   0.641 -0.1066  0.2825 -0.9655
 2263TIP3    H228281   0.182   4.086   0.656  0.0419  0.2524 -0.2344
 2264TIP3   OH228282   0.118   0.782  11.432 -0.7813 -0.0361 -0.1087
 2264TIP3    H128283   0.032   0.763  11.394 -1.1841  0.3935  0.5725
 2264TIP3    H228284   0.103   0.779  11.526  0.1577 -0.8608  0.0169
 2265TIP3   OH228285   0.577   6.192   6.492 -0.2905  0.2086  0.1606
 2265TIP3    H128286   0.542   6.104   6.502 -0.3032 -0.0867 -2.0577
 2265TIP3    H228287   0.641   6.185   6.421 -2.0654  2.3953 -1.8538
 2266TIP3   OH228288   0.047   0.236   5.623  0.2623 -0.6371  0.0527
 2266TIP3    H128289   0.028   0.168   5.689  2.4133 -0.2731  1.1348
 2266TIP3    H228290  -0.028   0.295   5.628  0.5897 -0.3210  2.6372
 2267TIP3   OH228291   0.445   2.050   0.607 -0.8002 -0.6764 -0.1645
 2267TIP3    H128292   0.524   2.003   0.580 -0.8787 -0.5962 -0.5314
 2267TIP3    H228293   0.390   2.052   0.529 -1.8936 -2.2031  0.5160
 2268TIP3   OH228294   4.409   1.792   5.575  0.8499 -0.1082 -0.3919
 2268TIP3    H128295   4.423   1.858   5.644 -2.1660 -0.9044  1.1259
 2268TIP3    H228296   4.337   1.826   5.523  1.7908 -0.4740 -1.9962
 2269TIP3   OH228297   5.577   2.838  14.027 -0.4587  0.2841  0.2067
 2269TIP3    H128298   5.583   2.751  14.067  1.6652 -0.7674 -2.1049
 2269TIP3    H228299   5.641   2.891  14.074 -0.7636  0.1964  0.7230
 2270TIP3   OH228300   4.189   1.459   6.496  0.2178  0.1520  0.0423
 2270TIP3    H128301   4.275   1.442   6.535 -0.3652  0.5244  1.5714
 2270TIP3    H228302   4.150   1.373   6.484  0.0806  0.0625  1.0818
 2271TIP3   OH228303   4.142   5.710   2.450 -0.0021 -0.4869 -0.3847
 2271TIP3    H128304   4.078   5.769   2.492  1.6415  1.4797 -0.4821
 2271TIP3    H228305   4.127   5.723   2.356 -0.4882 -1.2267 -0.4135
 2272TIP3   OH228306   0.217   2.153   4.024 -0.3192  0.3527  0.0123
 2272TIP3    H128307   0.310   2.175   4.022 -0.4165  1.1883  2.0439
 2272TIP3    H228308   0.172   2.236   4.040 -1.2630 -0.2955  0.8716
 2273TIP3   OH228309   5.935   5.887  15.015 -0.7458 -0.0813 -0.1264
 2273TIP3    H128310   5.877   5.812  14.998 -0.5869 -0.0160 -1.0078
 2273TIP3    H228311   5.962   5.876  15.106 -1.1062 -0.8347 -0.0998
 2274TIP3   OH228312   4.602   4.631   5.058  0.1134 -0.6481 -0.1106
 2274TIP3    H128313   4.596   4.617   5.153  1.3942  0.2199  0.1226
 2274TIP3    H228314   4.663   4.703   5.049  0.5845 -1.2109 -1.6462
 2275TIP3   OH228315   5.474   0.272   4.853 -0.3259  0.0216 -0.4886
 2275TIP3    H128316   5.567   0.291   4.848 -0.1536 -0.0145  1.6454
 2275TIP3    H228317   5.434   0.333   4.790  1.0848  0.2486 -1.2097
 2276TIP3   OH228318   4.805   2.390   3.202  0.0605 -0.1206  0.2007
 2276TIP3    H128319   4.886   2.441   3.207 -0.3052  0.5350 -0.2845
 2276TIP3    H228320   4.831   2.301   3.224  0.4546  0.5127  2.4896
 2277TIP3   OH228321   3.120   0.688   1.993 -0.0772 -0.5202 -0.1766
 2277TIP3    H128322   3.059   0.621   1.962 -0.2726 -0.3771 -0.0976
 2277TIP3    H228323   3.104   0.695   2.087 -1.0739  0.6673 -0.4114
 2278TIP3   OH228324   3.616   4.289   5.968 -0.7010 -0.0949 -0.4538
 2278TIP3    H128325   3.608   4.378   6.002  3.1773  0.5328 -0.6855
 2278TIP3    H228326   3.675   4.245   6.030  1.0132 -1.0525 -2.6135
 2279TIP3   OH228327   5.599   1.526   2.782 -0.4075  0.2953 -0.2118
 2279TIP3    H128328   5.612   1.557   2.872  0.1325  1.0338 -0.5299
 2279TIP3    H228329   5.513   1.561   2.758 -1.6500 -1.8496  0.7774
 2280TIP3   OH228330   3.088   5.014  12.522 -0.1397  0.1346 -0.8583
 2280TIP3    H128331   3.003   5.059  12.520 -0.2425 -0.0588 -0.9363
 2280TIP3    H228332   3.152   5.083  12.537 -0.5930 -0.0539  2.8742
 2281TIP3   OH228333   3.067   0.549  16.765  0.2565  0.2319 -0.1228
 2281TIP3    H128334   3.053   0.612  16.835  0.4180  0.7525 -0.5505
 2281TIP3    H228335   3.078   0.603  16.686  0.8680 -0.3123 -0.4170
 2282TIP3   OH228336   4.360   5.712  16.083  0.4213 -0.2449 -0.0929
 2282TIP3    H128337   4.437   5.696  16.028 -0.4700  0.4584 -1.5775
 2282TIP3    H228338   4.317   5.788  16.045 -0.2429  0.2786  1.5912
 2283TIP3   OH228339   3.220   2.967   2.247  0.3496  0.0164  0.5867
 2283TIP3    H128340   3.232   2.968   2.152  0.7757 -2.0405  0.5692
 2283TIP3    H228341   3.126   2.958   2.259  0.2783  0.4352  0.3729
 2284TIP3   OH228342   5.344   2.398  12.932  0.2699 -0.1352 -0.1549
 2284TIP3    H128343   5.363   2.340  13.006  0.7193  0.2606  0.0497
 2284TIP3    H228344   5.249   2.412  12.936  0.2018 -0.6316 -0.0403
 2285TIP3   OH228345   6.377   3.156   1.032 -0.0786  0.7901  0.4087
 2285TIP3    H128346   6.443   3.185   1.095 -0.5552  1.0995  0.7709
 2285TIP3    H228347   6.428   3.127   0.956  0.4839  0.7953  0.7766
 2286TIP3   OH228348   0.489   5.324  14.635  0.2138 -0.0543  0.0928
 2286TIP3    H128349   0.422   5.367  14.583  0.4059 -0.1303 -0.2175
 2286TIP3    H228350   0.500   5.380  14.711  0.0537  0.1427 -0.0296
 2287TIP3   OH228351   6.461   1.498   2.684 -0.6089  0.2305  0.1819
 2287TIP3    H128352   6.464   1.465   2.774  0.9364 -0.6910 -0.1738
 2287TIP3    H228353   6.414   1.582   2.691 -0.9929 -0.0775  1.7445
 2288TIP3   OH228354   2.575   1.597  17.017  0.4260  0.1665  0.2037
 2288TIP3    H128355   2.580   1.519  17.072 -1.0294  1.2030  1.9394
 2288TIP3    H228356   2.658   1.599  16.969 -0.7387 -4.2223 -2.5178
 2289TIP3   OH228357   1.022   3.670  16.166 -0.5216 -0.2046  0.2770
 2289TIP3    H128358   1.033   3.754  16.211 -0.3679 -0.4863  0.7671
 2289TIP3    H228359   1.007   3.694  16.074 -1.7386  0.4146  0.6199
 2290TIP3   OH228360   4.157   4.773   1.539 -0.0921  0.2241 -0.0312
 2290TIP3    H128361   4.151   4.700   1.479  2.1336 -0.5931  0.6319
 2290TIP3    H228362   4.066   4.795   1.560 -0.9256  0.1458 -3.1309
 2291TIP3   OH228363   1.322   5.791  12.530 -0.0942 -0.1705  0.2260
 2291TIP3    H128364   1.332   5.696  12.523  0.0498 -0.0602 -1.3253
 2291TIP3    H228365   1.369   5.814  12.610  1.3368 -1.1998 -0.2805
 2292TIP3   OH228366   2.956   3.044   4.680  0.4940  0.1583  0.3766
 2292TIP3    H128367   2.950   3.120   4.623  0.4511 -0.8519 -1.0014
 2292TIP3    H228368   3.049   3.036   4.700  0.8347 -0.8084 -1.4463
 2293TIP3   OH228369   1.615   0.553   1.381  0.8241 -0.0404  0.0861
 2293TIP3    H128370   1.706   0.575   1.358  1.5866 -2.1473  0.8402
 2293TIP3    H228371   1.606   0.581   1.472  1.0878 -0.7756  0.3483
 2294TIP3   OH228372   1.677   5.930  13.969 -0.1426  0.3612 -0.3806
 2294TIP3    H128373   1.705   5.872  13.898 -0.6977 -0.2412 -0.1199
 2294TIP3    H228374   1.744   5.998  13.972  1.2830 -1.0077  0.2097
 2295TIP3   OH228375   1.225   2.419  15.797 -0.2084 -0.0361  0.7072
 2295TIP3    H128376   1.297   2.372  15.840 -1.4231 -1.5840  1.1265
 2295TIP3    H228377   1.178   2.352  15.748 -1.5164  0.8981  0.6270
 2296TIP3   OH228378   4.470   3.800   5.047  0.0057 -0.3865 -0.3585
 2296TIP3    H128379   4.477   3.841   4.961 -0.9011  0.3906 -0.0840
 2296TIP3    H228380   4.557   3.807   5.085 -0.0286  0.9585 -0.4885
 2297TIP3   OH228381   0.995   0.764  16.282 -0.8368 -0.1421  0.1650
 2297TIP3    H128382   1.085   0.787  16.259 -0.7994 -2.3139 -2.3143
 2297TIP3    H228383   0.968   0.831  16.345  2.6914  0.2107  1.4784
 2298TIP3   OH228384   3.139   3.573   4.148 -0.2540 -0.4504 -0.0160
 2298TIP3    H128385   3.128   3.545   4.057  1.1720 -0.9869 -0.0493
 2298TIP3    H228386   3.050   3.591   4.178 -0.6910  0.5794 -1.7612
 2299TIP3   OH228387   6.578   1.821   2.488  0.0168  0.2078  0.0403
 2299TIP3    H128388   6.577   1.914   2.465 -1.8075  0.5606  1.3193
 2299TIP3    H228389   6.492   1.789   2.460 -0.3892 -0.4598  1.9100
 2300TIP3   OH228390   2.051   0.375   4.440  0.1290 -0.0940 -0.2711
 2300TIP3    H128391   2.046   0.452   4.496  0.1155  0.6878 -1.3180
 2300TIP3    H228392   2.006   0.306   4.489  0.7485  0.3570  0.9857
 2301TIP3   OH228393   3.162   1.072  16.509 -0.4953  0.7481  0.1274
 2301TIP3    H128394   3.111   1.122  16.573  0.0389  0.7573  0.5488
 2301TIP3    H228395   3.243   1.050  16.555 -1.9369 -3.3364  1.1699
 2302TIP3   OH228396   5.760   5.869  11.323  0.1408 -0.6243 -0.6638
 2302TIP3    H128397   5.788   5.847  11.234  0.3834 -3.4259  0.0139
 2302TIP3    H228398   5.683   5.813  11.338  0.3079 -0.4573  0.9871
 2303TIP3   OH228399   2.211   0.709   3.545 -0.2664 -0.1510 -0.1578
 2303TIP3    H128400   2.231   0.626   3.504 -0.1731  0.0935 -0.6104
 2303TIP3    H228401   2.141   0.747   3.491  1.3672  1.1921 -1.4420
 2304TIP3   OH228402   5.103   0.801  15.692  0.2770 -0.3764  0.3778
 2304TIP3    H128403   5.071   0.831  15.777  0.0885 -0.1130  0.2147
 2304TIP3    H228404   5.030   0.752  15.655  1.2951 -3.0613  1.6052
 2305TIP3   OH228405   1.042   2.483   2.529 -0.2193  0.8805  0.5671
 2305TIP3    H128406   1.137   2.486   2.536 -0.1028 -1.5326  0.8833
 2305TIP3    H228407   1.020   2.555   2.469  1.8838  0.9078 -0.2612
 2306TIP3   OH228408   4.592   0.647   5.829  0.4457  0.1555  0.1811
 2306TIP3    H128409   4.614   0.697   5.751  1.5827  0.7813  0.8625
 2306TIP3    H228410   4.501   0.670   5.848  0.0412 -0.2946 -1.1463
 2307TIP3   OH228411   1.700   1.849   3.619  0.1100 -0.0153  0.8342
 2307TIP3    H128412   1.657   1.917   3.672  0.5451 -1.0392  2.5796
 2307TIP3    H228413   1.631   1.784   3.604 -0.2285  0.6377 -0.5934
 2308TIP3   OH228414   2.378   1.238  13.660 -0.1124  0.4718 -0.3105
 2308TIP3    H128415   2.436   1.264  13.732 -1.2789  1.3541  0.3529
 2308TIP3    H228416   2.415   1.282  13.583 -0.0173  1.2136  0.1410
 2309TIP3   OH228417   4.684   2.136  12.728 -0.3030 -0.3528 -0.7719
 2309TIP3    H128418   4.618   2.204  12.714 -0.5504 -0.4374 -0.0579
 2309TIP3    H228419   4.745   2.145  12.654  0.9661  2.1560  0.4615
 2310TIP3   OH228420   4.781   1.678  14.139  0.1398 -0.3052 -0.3278
 2310TIP3    H128421   4.876   1.673  14.136  0.0938 -1.1128 -0.6475
 2310TIP3    H228422   4.758   1.643  14.225  0.0237 -2.3913 -1.1461
 2311TIP3   OH228423   3.841   3.727   2.076 -0.2292  0.0228  0.7013
 2311TIP3    H128424   3.750   3.696   2.079 -0.0997 -1.0294 -2.3512
 2311TIP3    H228425   3.836   3.809   2.026  0.4034  0.5465  1.4692
 2312TIP3   OH228426   1.459   1.340  12.185 -0.0263  0.2078  0.3515
 2312TIP3    H128427   1.535   1.399  12.185  1.1642 -1.1165 -2.6829
 2312TIP3    H228428   1.385   1.397  12.207  1.2659  2.5725 -0.9966
 2313TIP3   OH228429   4.799   1.513  12.013  0.3292  0.1213  0.2231
 2313TIP3    H128430   4.797   1.598  11.969 -0.1215 -0.6528 -1.3109
 2313TIP3    H228431   4.761   1.530  12.099  0.9124  1.6080  0.2220
 2314TIP3   OH228432   1.009   6.384  14.878  0.3879  0.0644  0.0859
 2314TIP3    H128433   1.019   6.472  14.842 -3.1273 -0.0100 -1.4656
 2314TIP3    H228434   1.035   6.392  14.970  1.1669  2.4189 -0.2762
 2315TIP3   OH228435   5.826   0.870   5.853 -0.2468  0.6793 -0.4217
 2315TIP3    H128436   5.837   0.790   5.905 -0.0572  0.3369 -0.9772
 2315TIP3    H228437   5.860   0.940   5.909  0.2477  0.2730 -0.2092
 2316TIP3   OH228438   0.179   5.544   2.009  0.6766  0.0648  0.2999
 2316TIP3    H128439   0.198   5.630   2.046 -1.3288  0.1029  1.3421
 2316TIP3    H228440   0.149   5.562   1.920  1.4665  0.3258  0.0793
 2317TIP3   OH228441   3.003   4.839  15.976  0.4718 -0.6511  0.0135
 2317TIP3    H128442   2.953   4.915  15.945  1.1185 -0.5918 -0.8909
 2317TIP3    H228443   2.995   4.774  15.906  0.0000 -1.4054  0.7424
 2318TIP3   OH228444   4.076   6.144   5.443  0.3145 -0.4973  0.5848
 2318TIP3    H128445   4.016   6.195   5.497  1.9245  1.7854  0.3409
 2318TIP3    H228446   4.082   6.194   5.361  3.3548  0.0101  1.0149
 2319TIP3   OH228447   1.418   3.697  13.858  0.5579  0.1229  0.1874
 2319TIP3    H128448   1.475   3.716  13.933  0.5507 -1.1303  0.5343
 2319TIP3    H228449   1.446   3.759  13.791  1.6449  0.2172  0.6978
 2320TIP3   OH228450   5.885   0.844   1.695 -0.0725  0.6525 -0.3534
 2320TIP3    H128451   5.881   0.787   1.772 -1.7179  0.1381 -0.7800
 2320TIP3    H228452   5.875   0.785   1.621 -1.4171  1.4356 -0.8245
 2321TIP3   OH228453   5.676   2.454   4.036 -0.1393 -0.1231  0.3869
 2321TIP3    H128454   5.703   2.542   4.012  0.8272 -0.2005  1.1274
 2321TIP3    H228455   5.618   2.426   3.965 -1.8310  1.7235  0.9434
 2322TIP3   OH228456   2.437   1.623  16.079 -0.1914  0.5890  0.1281
 2322TIP3    H128457   2.450   1.677  16.158  0.2774 -1.6563  1.6718
 2322TIP3    H228458   2.507   1.651  16.020 -0.7504  2.5590  0.3010
 2323TIP3   OH228459   5.073   1.318   5.708  0.0075  0.0420  0.6481
 2323TIP3    H128460   5.104   1.381   5.773  0.7810 -1.0473  1.3632
 2323TIP3    H228461   5.121   1.237   5.728 -1.2909 -0.9136  0.0530
 2324TIP3   OH228462   2.145   2.217  12.181  0.2259  0.0867 -0.2194
 2324TIP3    H128463   2.202   2.292  12.196 -0.7282  0.8498 -0.3339
 2324TIP3    H228464   2.073   2.251  12.128  0.6469 -1.2910 -1.7842
 2325TIP3   OH228465   3.042   4.751  11.163 -0.1172  0.5120 -0.1225
 2325TIP3    H128466   3.000   4.710  11.239  1.2169 -0.7438 -0.0052
 2325TIP3    H228467   2.972   4.800  11.120 -0.6585  2.3313  2.5950
 2326TIP3   OH228468   6.507   2.922   1.718 -0.0614 -0.1918 -0.6164
 2326TIP3    H128469   6.576   2.888   1.660 -0.5900 -1.0047 -0.7891
 2326TIP3    H228470   6.547   2.997   1.762  1.2930 -1.2634  0.0642
 2327TIP3   OH228471   0.575   2.391   4.480 -0.3077  0.0127  0.3872
 2327TIP3    H128472   0.525   2.317   4.447  1.9151 -0.7224 -1.5822
 2327TIP3    H228473   0.519   2.467   4.463 -0.9343 -0.8004 -1.3955
 2328TIP3   OH228474   5.565   0.386  14.447  0.3618 -0.1958  0.0288
 2328TIP3    H128475   5.574   0.291  14.458  2.1966 -0.0614 -0.0316
 2328TIP3    H228476   5.513   0.396  14.367 -1.2914 -1.1232  0.9342
 2329TIP3   OH228477   6.737   3.922  16.753 -0.3407 -0.3420 -0.1890
 2329TIP3    H128478   6.738   3.828  16.768 -0.5777 -0.0847  1.6838
 2329TIP3    H228479   6.653   3.940  16.712 -0.2969 -0.9461 -0.5432
 2330TIP3   OH228480   6.142   6.119  16.718  0.3132  0.4085  0.2791
 2330TIP3    H128481   6.072   6.183  16.708 -1.5084 -1.2988  1.3500
 2330TIP3    H228482   6.133   6.089  16.808  1.7076 -0.6805  0.0808
 2331TIP3   OH228483   0.268   2.326  10.909  0.0623  0.6361  0.1420
 2331TIP3    H128484   0.358   2.335  10.940 -0.3300  2.3678  0.8666
 2331TIP3    H228485   0.265   2.377  10.828 -0.6522  1.9341  0.9650
 2332TIP3   OH228486   1.554   0.139  15.804  0.2690  0.1418 -0.4707
 2332TIP3    H128487   1.484   0.181  15.855  0.3643 -0.0147 -0.2114
 2332TIP3    H228488   1.531   0.157  15.713 -1.0121 -1.2751 -0.4773
 2333TIP3   OH228489   3.945   4.092  14.520  0.2058 -0.3082  0.5117
 2333TIP3    H128490   3.942   4.170  14.465 -1.0066 -1.2494 -0.8065
 2333TIP3    H228491   4.023   4.045  14.491  0.2143 -0.2426  0.4278
 2334TIP3   OH228492   4.401   6.100  14.225 -0.2612  0.0276  0.1960
 2334TIP3    H128493   4.333   6.037  14.248  0.0936  0.0235  1.2517
 2334TIP3    H228494   4.411   6.089  14.130 -0.4007 -1.3034  0.3119
 2335TIP3   OH228495   5.696   2.339  11.291  0.0596  0.1319 -0.2252
 2335TIP3    H128496   5.644   2.348  11.212 -0.4531 -1.2081 -0.0764
 2335TIP3    H228497   5.778   2.385  11.272 -0.8292  1.5607 -0.7648
 2336TIP3   OH228498   5.256   4.554  14.461  0.6573  0.2777  0.3044
 2336TIP3    H128499   5.241   4.467  14.423  0.6247  0.4891 -0.1751
 2336TIP3    H228500   5.170   4.580  14.494  0.6930  0.0775  0.5557
 2337TIP3   OH228501   4.982   6.362  13.790 -0.2258  0.6682 -0.1441
 2337TIP3    H128502   4.976   6.376  13.884 -0.3014 -1.0037  0.1256
 2337TIP3    H228503   4.986   6.450  13.753  0.8066  1.3397  1.4730
 2338TIP3   OH228504   3.960   0.089  14.253 -0.3827  0.0166 -0.0589
 2338TIP3    H128505   3.946   0.016  14.193 -0.9592  1.2782 -1.5474
 2338TIP3    H228506   4.055   0.102  14.255 -0.2632 -0.8759  0.3748
 2339TIP3   OH228507   3.154   5.592  14.768  0.3137 -0.2053  0.2214
 2339TIP3    H128508   3.202   5.561  14.845  2.2426 -0.5782 -1.0610
 2339TIP3    H228509   3.067   5.612  14.801  1.2540  0.3039  2.6488
 2340TIP3   OH228510   3.782   5.448   2.457 -0.9079  0.1193 -0.9501
 2340TIP3    H128511   3.747   5.360   2.448  0.3190 -0.5375  0.3762
 2340TIP3    H228512   3.869   5.444   2.417 -1.6307  1.3104 -2.7814
 2341TIP3   OH228513   5.615   4.511   5.510 -0.2200 -0.0807 -0.5290
 2341TIP3    H128514   5.564   4.455   5.452  0.0940  0.1362 -1.0219
 2341TIP3    H228515   5.550   4.565   5.555 -0.5711 -1.2608  0.4073
 2342TIP3   OH228516   4.665   0.731  12.656 -0.7736 -0.3273  0.3934
 2342TIP3    H128517   4.648   0.745  12.750 -1.6880  1.8937 -0.0366
 2342TIP3    H228518   4.598   0.668  12.629 -0.8196 -0.6020  1.1206
 2343TIP3   OH228519   0.677   5.874  15.327 -0.3383  0.1362 -0.4803
 2343TIP3    H128520   0.629   5.794  15.303  0.8002 -0.7521  0.1082
 2343TIP3    H228521   0.751   5.876  15.266 -0.5029  0.9001 -0.6603
 2344TIP3   OH228522   5.906   1.420  15.180 -1.0550  0.4871 -0.6595
 2344TIP3    H128523   5.942   1.508  15.194 -1.6969  0.7782 -0.8000
 2344TIP3    H228524   5.971   1.375  15.128  1.4328 -0.5948  2.9806
 2345TIP3   OH228525   6.222   6.079  13.557  0.0558  0.1639  0.5861
 2345TIP3    H128526   6.228   6.052  13.465  0.2724 -0.0952  0.6742
 2345TIP3    H228527   6.152   6.023  13.593 -2.6170  2.6807 -0.2630
 2346TIP3   OH228528   6.007   6.575  17.035  0.5573 -0.3613 -0.0635
 2346TIP3    H128529   6.030   6.483  17.043  0.0573 -0.4287  0.6028
 2346TIP3    H228530   6.075   6.622  17.083  0.2758 -0.4491  0.4235
 2347TIP3   OH228531   5.560   0.594   4.059 -0.4339  0.2095  0.3454
 2347TIP3    H128532   5.507   0.523   4.093 -1.4346  0.0057 -1.5008
 2347TIP3    H228533   5.542   0.595   3.965  0.5459  2.0726  0.1210
 2348TIP3   OH228534   5.458   6.556  10.815  0.3884 -0.1767  0.2198
 2348TIP3    H128535   5.503   6.637  10.842  1.9661 -1.3122  1.2378
 2348TIP3    H228536   5.522   6.511  10.760 -0.8134 -0.3525 -1.0733
 2349TIP3   OH228537   3.114   0.325  11.740 -0.1075  0.1498 -0.0763
 2349TIP3    H128538   3.020   0.328  11.760  0.1754  1.8155  1.2602
 2349TIP3    H228539   3.144   0.242  11.778 -0.6370  0.6892  1.6114
 2350TIP3   OH228540   0.885   3.031   4.247 -0.3418 -0.1013 -0.2057
 2350TIP3    H128541   0.842   2.961   4.295  0.1255  0.1514  0.5900
 2350TIP3    H228542   0.977   3.027   4.273 -0.1474  0.2793 -0.7883
 2351TIP3   OH228543   2.290   1.834  12.101 -0.0040 -0.2629  0.2308
 2351TIP3    H128544   2.366   1.777  12.085  1.6329  1.7633  0.2996
 2351TIP3    H228545   2.278   1.831  12.196 -1.9394 -2.8125  0.0067
 2352TIP3   OH228546   1.804   3.489  15.039  0.4432 -0.1743  0.3302
 2352TIP3    H128547   1.859   3.463  14.965  2.1598  0.8723  1.1832
 2352TIP3    H228548   1.782   3.580  15.022 -3.6494 -1.2742 -1.4925
 2353TIP3   OH228549   1.197   1.370  10.626  0.4470 -0.1652  0.2294
 2353TIP3    H128550   1.147   1.309  10.680 -0.9805  0.3319 -0.4586
 2353TIP3    H228551   1.274   1.322  10.599  0.5549 -0.8426  1.6545
 2354TIP3   OH228552   3.741   1.690   4.143 -0.0605 -0.7483  0.7286
 2354TIP3    H128553   3.767   1.761   4.085 -2.9579 -0.7926 -0.8363
 2354TIP3    H228554   3.823   1.645   4.165  1.3414 -0.0807 -2.5016
 2355TIP3   OH228555   5.843   5.630   5.151 -0.4541 -0.0948 -0.7350
 2355TIP3    H128556   5.774   5.642   5.085 -0.7250 -1.0226 -0.6320
 2355TIP3    H228557   5.810   5.560   5.207  0.2467 -0.0255 -0.2281
 2356TIP3   OH228558   3.904   1.914   5.614  0.0488  0.4649  0.0457
 2356TIP3    H128559   3.957   1.931   5.536  0.3649  2.5578  0.6514
 2356TIP3    H228560   3.949   1.962   5.684 -1.4053  0.4235  1.0498
 2357TIP3   OH228561   1.839   2.306  14.003  0.0723 -0.1677  0.2772
 2357TIP3    H128562   1.852   2.211  14.002 -1.4725 -0.4049 -0.7046
 2357TIP3    H228563   1.751   2.318  13.968 -0.2214  1.5735  1.4858
 2358TIP3   OH228564   0.520   3.170   4.054  0.8210 -0.0964  0.0023
 2358TIP3    H128565   0.548   3.082   4.030 -1.1649 -0.7263 -0.1450
 2358TIP3    H228566   0.431   3.177   4.021  0.0130  1.0562  2.2022
 2359TIP3   OH228567   3.371   2.206  14.562  0.0716 -0.3021  0.5135
 2359TIP3    H128568   3.303   2.177  14.502 -0.1050  2.3921 -0.7303
 2359TIP3    H228569   3.323   2.235  14.640 -0.0417 -0.2433  0.4232
 2360TIP3   OH228570   3.232   1.924   0.376 -0.1465  0.5656  0.4671
 2360TIP3    H128571   3.206   2.015   0.371 -1.2342  0.2764  0.5800
 2360TIP3    H228572   3.205   1.896   0.463 -3.3154 -0.8332 -0.7805
 2361TIP3   OH228573   6.396   2.841   2.465  0.5841 -0.2626 -0.0527
 2361TIP3    H128574   6.438   2.792   2.395  1.3724  1.3475 -0.7646
 2361TIP3    H228575   6.447   2.922   2.472  0.2612 -0.1696  2.0929
 2362TIP3   OH228576   2.391   5.142   4.270  0.1280 -0.3185  0.2639
 2362TIP3    H128577   2.484   5.140   4.294 -0.0374 -0.9089  0.9034
 2362TIP3    H228578   2.363   5.051   4.276 -0.0557 -0.4261 -1.7620
 2363TIP3   OH228579   3.789   6.793  15.650  0.0286  0.2021 -0.4153
 2363TIP3    H128580   3.709   6.791  15.702  1.6599 -0.3285  2.2256
 2363TIP3    H228581   3.771   6.732  15.578 -1.6910 -0.4552  0.4955
 2364TIP3   OH228582   5.664   4.366  13.204 -0.3308  0.3909  0.7150
 2364TIP3    H128583   5.606   4.430  13.246 -0.3799  1.7473 -1.3193
 2364TIP3    H228584   5.729   4.418  13.158  1.2925 -1.0957  1.2063
 2365TIP3   OH228585   3.853   6.291   2.307 -0.0016 -0.0610  0.0441
 2365TIP3    H128586   3.939   6.309   2.344 -0.1130  1.3716 -0.3461
 2365TIP3    H228587   3.861   6.204   2.268  0.8331 -0.5416  1.2438
 2366TIP3   OH228588   5.383   0.082   4.262  0.9965  0.3034  0.4602
 2366TIP3    H128589   5.387   0.173   4.292  2.2093  0.8504 -1.1954
 2366TIP3    H228590   5.354   0.088   4.171  0.6468 -1.0110  0.4650
 2367TIP3   OH228591   2.324   1.880   2.585 -0.8607 -0.2464  0.3595
 2367TIP3    H128592   2.317   1.794   2.545 -1.6279  1.1586 -2.8912
 2367TIP3    H228593   2.247   1.886   2.643 -0.7639 -1.7164  0.6801
 2368TIP3   OH228594   1.507   4.235   1.719 -0.4276 -0.3181 -0.1841
 2368TIP3    H128595   1.569   4.305   1.700 -2.4860  1.3981 -1.0619
 2368TIP3    H228596   1.467   4.215   1.634 -1.6010 -0.8102  0.4581
 2369TIP3   OH228597   1.467   5.093   5.482 -0.3150  0.5685  0.1764
 2369TIP3    H128598   1.494   5.045   5.560 -0.5151  3.3283  2.0939
 2369TIP3    H228599   1.371   5.088   5.483 -0.2896 -1.2057 -1.2130
 2370TIP3   OH228600   6.649   3.906  16.462  0.0701 -0.2353  0.2774
 2370TIP3    H128601   6.640   4.002  16.467 -0.2502 -0.3011  0.9702
 2370TIP3    H228602   6.580   3.879  16.401 -0.0701 -0.0666  0.3628
 2371TIP3   OH228603   2.025   1.673  17.004  0.0705 -0.6404 -0.2773
 2371TIP3    H128604   1.951   1.729  17.028 -1.1009 -1.4539 -1.8190
 2371TIP3    H228605   2.088   1.686  17.075 -1.0939  0.8822  0.5551
 2372TIP3   OH228606   1.276   6.813   4.854  0.6517 -0.2599 -0.2842
 2372TIP3    H128607   1.224   6.893   4.843  1.0346 -0.1007 -0.9274
 2372TIP3    H228608   1.211   6.743   4.851  0.1245  0.0817  1.6986
 2373TIP3   OH228609   6.510   3.107  12.060  0.1299  0.3281  0.5543
 2373TIP3    H128610   6.417   3.092  12.044 -0.0308  2.0958 -0.4827
 2373TIP3    H228611   6.513   3.159  12.140  0.4262 -1.6791  1.9185
 2374TIP3   OH228612   5.637   2.294  14.766 -0.0747  0.1658  0.2280
 2374TIP3    H128613   5.629   2.227  14.698  0.6532  2.3420 -2.1432
 2374TIP3    H228614   5.729   2.320  14.763 -0.2997  1.1677  1.2148
 2375TIP3   OH228615   4.568   5.631  12.345 -0.0437  0.2378  0.0224
 2375TIP3    H128616   4.551   5.575  12.421  0.5832 -0.9904 -0.6919
 2375TIP3    H228617   4.660   5.656  12.355  0.2251 -0.4401 -0.6182
 2376TIP3   OH228618   5.985   2.282   1.152 -0.2552  0.4204  0.1615
 2376TIP3    H128619   6.005   2.237   1.234  1.2778  0.8774  0.0569
 2376TIP3    H228620   5.949   2.366   1.179 -0.6202  0.2062  0.3533
 2377TIP3   OH228621   3.838   3.655  13.245  0.4883 -0.1772  0.5963
 2377TIP3    H128622   3.759   3.600  13.239  0.9804 -0.7921 -0.4004
 2377TIP3    H228623   3.829   3.717  13.173  1.3000 -0.7801 -0.0394
 2378TIP3   OH228624   4.594   4.658   6.209  0.1129 -0.1232 -0.1347
 2378TIP3    H128625   4.605   4.679   6.117 -0.1304  0.5669 -0.0110
 2378TIP3    H228626   4.508   4.695   6.233  1.0494  1.5410  0.8666
 2379TIP3   OH228627   5.507   2.003   5.461  0.0473  0.6468 -0.2335
 2379TIP3    H128628   5.487   2.008   5.368  2.9995 -0.7742 -1.0803
 2379TIP3    H228629   5.499   1.910   5.483  0.1792  0.8404  0.7130
 2380TIP3   OH228630   2.256   1.203  12.714  0.3795 -0.1970  0.3824
 2380TIP3    H128631   2.280   1.110  12.713  1.6925  0.1263 -0.3124
 2380TIP3    H228632   2.162   1.204  12.696 -0.0966 -1.4851  2.4194
 2381TIP3   OH228633   1.707   0.821   3.745  0.0924  0.0336 -0.8493
 2381TIP3    H128634   1.636   0.785   3.797 -1.0056 -0.1956 -2.4287
 2381TIP3    H228635   1.786   0.799   3.794 -0.8599 -0.3691  0.5743
 2382TIP3   OH228636   5.956   2.530  10.936  0.6631  0.0769 -0.2203
 2382TIP3    H128637   6.039   2.484  10.944  0.3427 -0.4916 -0.1106
 2382TIP3    H228638   5.911   2.513  11.019 -0.3369 -1.1748 -0.9960
 2383TIP3   OH228639   6.497   3.550  14.524 -0.6270  0.3226  0.5025
 2383TIP3    H128640   6.404   3.550  14.501 -0.9460  0.1249  1.7277
 2383TIP3    H228641   6.524   3.460  14.511 -0.2006  0.6770 -1.3227
 2384TIP3   OH228642   1.459   1.535   0.968  0.4824  0.4326 -0.0365
 2384TIP3    H128643   1.390   1.486   0.924  1.2083 -0.0918 -0.5926
 2384TIP3    H228644   1.412   1.586   1.035 -0.4242 -0.0128 -0.3154
 2385TIP3   OH228645   5.924   2.034  10.467  0.3731  0.5932  0.2565
 2385TIP3    H128646   5.932   1.942  10.490  1.0010 -0.4408 -3.4324
 2385TIP3    H228647   5.842   2.062  10.509 -0.1385 -1.7892  0.9965
 2386TIP3   OH228648   5.488   1.240  13.644 -0.0835 -0.5039  0.0557
 2386TIP3    H128649   5.565   1.286  13.612  0.3343 -1.8920 -1.0490
 2386TIP3    H228650   5.425   1.309  13.665  0.3121  0.5810 -2.0429
 2387TIP3   OH228651   4.693   1.931   1.738 -0.1801  0.1806  0.0577
 2387TIP3    H128652   4.663   1.923   1.648 -1.1027 -0.2344  0.3903
 2387TIP3    H228653   4.787   1.913   1.733 -0.3019 -0.2932 -0.7546
 2388TIP3   OH228654   2.129   5.321   4.614  0.2695 -0.2548 -0.4381
 2388TIP3    H128655   2.037   5.301   4.633  0.6960 -0.0743  2.2164
 2388TIP3    H228656   2.170   5.235   4.600 -0.4029 -0.2941 -2.6118
 2389TIP3   OH228657   4.977   4.576   4.391 -0.1669  0.1361  0.3284
 2389TIP3    H128658   5.025   4.659   4.390  0.5238 -0.1565  2.7502
 2389TIP3    H228659   4.885   4.602   4.396  0.0295  0.7635  0.8164
 2390TIP3   OH228660   6.597   2.274   3.281 -0.2947 -0.3673 -0.1130
 2390TIP3    H128661   6.663   2.331   3.321 -0.3446 -1.2082  1.2144
 2390TIP3    H228662   6.573   2.319   3.200 -0.9609  1.9412  1.2645
 2391TIP3   OH228663   0.408   5.806   2.480 -0.3905  0.4851 -0.2228
 2391TIP3    H128664   0.348   5.736   2.455 -0.7782  0.5048  0.6092
 2391TIP3    H228665   0.361   5.855   2.548 -0.0385  1.4226 -0.6285
 2392TIP3   OH228666   6.521   1.868  14.074  1.0232 -0.1325 -0.6852
 2392TIP3    H128667   6.555   1.927  14.142 -0.2072  0.2783 -0.3997
 2392TIP3    H228668   6.545   1.911  13.992  0.9875  0.2861 -0.4839
 2393TIP3   OH228669   6.384   4.926   4.264 -0.1583 -0.0225 -0.3667
 2393TIP3    H128670   6.443   4.879   4.204 -0.6588 -0.5149 -0.4759
 2393TIP3    H228671   6.435   4.937   4.344 -1.1547 -3.9349  1.0294
 2394TIP3   OH228672   1.324   4.066  14.816 -0.5098 -0.0446  0.0777
 2394TIP3    H128673   1.315   4.016  14.897 -2.2677 -1.2898 -0.8215
 2394TIP3    H228674   1.370   4.007  14.756  2.8804  1.6696  0.7169
 2395TIP3   OH228675   2.545   5.329   3.540  0.3514 -0.1026 -0.2450
 2395TIP3    H128676   2.536   5.235   3.552  0.4427 -0.1503 -0.5509
 2395TIP3    H228677   2.627   5.351   3.583 -0.7803  0.2205  1.9255
 2396TIP3   OH228678   1.339   5.846   3.684  0.6730  0.1059 -0.4636
 2396TIP3    H128679   1.256   5.891   3.672 -0.2544 -1.1783  0.8269
 2396TIP3    H228680   1.324   5.785   3.756  1.6483 -2.8245 -2.5320
 2397TIP3   OH228681   2.387   2.101   3.019 -0.0445 -0.4892 -0.0498
 2397TIP3    H128682   2.292   2.096   3.017 -0.1074 -1.4290  2.3478
 2397TIP3    H228683   2.409   2.157   2.945 -2.4992  0.3315 -0.2588
 2398TIP3   OH228684   3.754   6.136  12.166 -0.1286  0.5964  0.3162
 2398TIP3    H128685   3.677   6.192  12.170 -1.7084 -1.5353  1.8409
 2398TIP3    H228686   3.782   6.126  12.257  0.5745 -0.4901  0.0013
 2399TIP3   OH228687   3.740   4.143   0.746 -0.6081 -0.0234 -0.4719
 2399TIP3    H128688   3.754   4.130   0.652 -0.4264  2.3410 -0.8344
 2399TIP3    H228689   3.721   4.236   0.754 -0.0949 -0.0796  1.9126
 2400TIP3   OH228690   2.017   0.772  16.849  0.2485 -0.1228  0.1815
 2400TIP3    H128691   2.083   0.840  16.834  2.2022 -1.6536  1.3502
 2400TIP3    H228692   1.938   0.820  16.872  1.7479  1.7884  1.7078
 2401TIP3   OH228693   3.906   3.945   5.085  0.2064  0.0994 -0.4687
 2401TIP3    H128694   3.851   3.880   5.041 -0.6216  0.7191 -0.3637
 2401TIP3    H228695   3.863   4.029   5.068  1.5241  0.7086 -1.0419
 2402TIP3   OH228696   2.510   4.299  13.766  0.2713  0.1311 -0.1270
 2402TIP3    H128697   2.553   4.326  13.685 -2.6840  3.7019 -0.7493
 2402TIP3    H228698   2.560   4.343  13.835  0.9342 -0.3863 -0.2626
 2403TIP3   OH228699   6.680   2.535  13.129  0.3472  0.0049  0.2530
 2403TIP3    H128700   6.689   2.596  13.056  0.3744 -0.5866 -0.2435
 2403TIP3    H228701   6.770   2.507  13.147  0.4384  0.7681  1.0595
 2404TIP3   OH228702   5.901   4.463   4.559 -0.1825 -0.0427 -0.0960
 2404TIP3    H128703   5.954   4.503   4.490  0.7294 -0.4064  0.3809
 2404TIP3    H228704   5.934   4.501   4.640 -1.8092  1.0161  0.1192
 2405TIP3   OH228705   2.463   5.179  15.944 -0.1825 -0.4945  0.0031
 2405TIP3    H128706   2.537   5.173  16.004  1.2127 -1.2794 -1.6937
 2405TIP3    H228707   2.476   5.262  15.897  0.9612 -1.6610 -1.8701
 2406TIP3   OH228708   6.043   6.660   0.838 -0.3779 -0.8023  0.2406
 2406TIP3    H128709   6.034   6.571   0.803  2.1512 -1.4277  0.9780
 2406TIP3    H228710   6.091   6.707   0.771 -1.4944 -0.0251 -0.0364
 2407TIP3   OH228711   1.716   2.847   3.684  0.0727  0.0899  0.4762
 2407TIP3    H128712   1.661   2.771   3.663 -1.0591  0.8398  0.6609
 2407TIP3    H228713   1.674   2.886   3.761  1.7336 -0.1660  1.5614
 2408TIP3   OH228714   3.729   1.749  11.795  0.2722 -0.4016 -0.4666
 2408TIP3    H128715   3.705   1.665  11.835 -2.4295  0.7004  0.4442
 2408TIP3    H228716   3.664   1.762  11.726  1.6980  0.2080 -1.7635
 2409TIP3   OH228717   6.226   0.007  15.917 -0.1872  0.2031  0.9044
 2409TIP3    H128718   6.131   0.002  15.928 -0.0240 -0.5210  2.2346
 2409TIP3    H228719   6.258  -0.077  15.950  1.0525  1.1431  2.1771
 2410TIP3   OH228720   6.774   0.188   5.001 -0.8274  0.0402  0.3105
 2410TIP3    H128721   6.869   0.198   4.995 -0.8848 -0.0306 -1.7750
 2410TIP3    H228722   6.760   0.094   5.007 -0.7669  0.0780  1.1319
 2411TIP3   OH228723   0.566   4.173   3.586  0.5930  0.5893 -0.1620
 2411TIP3    H128724   0.533   4.085   3.564  0.2417  0.8330 -0.6264
 2411TIP3    H228725   0.567   4.174   3.682 -1.8481  0.9347 -0.0636
 2412TIP3   OH228726   0.175   3.386   1.840  0.2567  0.2112 -0.0487
 2412TIP3    H128727   0.242   3.347   1.897 -1.3581  0.4663  2.1438
 2412TIP3    H228728   0.155   3.317   1.776  0.2747 -1.0938  1.3054
 2413TIP3   OH228729   4.662   5.544  16.329  0.4153 -0.0553  0.5008
 2413TIP3    H128730   4.741   5.494  16.343 -0.0462 -1.2168 -0.8457
 2413TIP3    H228731   4.680   5.597  16.252 -0.6411 -1.5562 -0.8339
 2414TIP3   OH228732   3.963   0.043  16.505 -0.2067 -0.2217  1.0394
 2414TIP3    H128733   3.967  -0.053  16.510  0.3949 -0.3997 -1.4027
 2414TIP3    H228734   4.016   0.065  16.428 -0.8589  2.0256  1.1651
 2415TIP3   OH228735   0.399   1.419   3.591  0.4406  0.3234 -0.4060
 2415TIP3    H128736   0.361   1.332   3.584  0.8931  0.2059 -1.6713
 2415TIP3    H228737   0.479   1.407   3.642  1.1765 -0.2455 -1.6544
 2416TIP3   OH228738   3.256   1.804   1.751  0.6536  0.0794  0.1712
 2416TIP3    H128739   3.275   1.754   1.672  1.0037  0.7438 -0.1670
 2416TIP3    H228740   3.338   1.849   1.772  0.7926 -0.6545  1.3281
 2417TIP3   OH228741   0.507   0.598   4.347  0.1514  0.6095  0.2124
 2417TIP3    H128742   0.434   0.578   4.407 -0.9959  2.2989 -0.5658
 2417TIP3    H228743   0.579   0.622   4.405  0.5822 -2.3202  1.0563
 2418TIP3   OH228744   0.685   1.237   4.644  0.3564  0.6257  0.3127
 2418TIP3    H128745   0.674   1.191   4.727  1.6148 -2.7894 -1.2420
 2418TIP3    H228746   0.775   1.267   4.645  0.8255 -0.6774 -0.3143
 2419TIP3   OH228747   4.039   6.662  15.787 -0.3648 -0.2399  0.9665
 2419TIP3    H128748   4.009   6.703  15.868  0.0630 -0.0233  1.0215
 2419TIP3    H228749   3.965   6.667  15.728 -0.7219 -0.5020  1.3829
 2420TIP3   OH228750   4.524   5.135   6.387  0.0015  0.5183 -0.6885
 2420TIP3    H128751   4.516   5.214   6.441 -0.1226  1.2975 -1.7966
 2420TIP3    H228752   4.437   5.095   6.390  0.3014 -0.0707  0.5816
 2421TIP3   OH228753   0.241   0.573  14.807  0.0157  0.0750  0.3867
 2421TIP3    H128754   0.335   0.581  14.795 -0.0907  0.1688 -0.4648
 2421TIP3    H228755   0.228   0.485  14.841  0.3855 -0.0599  0.1869
 2422TIP3   OH228756   0.756   1.842   3.622  0.0714  0.4594  0.0017
 2422TIP3    H128757   0.679   1.865   3.571  1.5024 -0.2204 -2.6303
 2422TIP3    H228758   0.792   1.925   3.652 -1.9301  0.7571  1.8010
 2423TIP3   OH228759   6.001   2.715   2.128  0.2312 -0.4365  0.0802
 2423TIP3    H128760   5.936   2.738   2.194 -1.0096 -0.6009 -1.0364
 2423TIP3    H228761   6.070   2.781   2.139 -0.6944  0.4937  0.5050
 2424TIP3   OH228762   3.059   4.574   2.080  0.2191  0.2246  0.5728
 2424TIP3    H128763   3.116   4.502   2.107  0.7923  0.6840  0.6145
 2424TIP3    H228764   2.972   4.534   2.069 -0.0820  0.0378  3.1940
 2425TIP3   OH228765   1.728   3.281   5.338 -0.0516 -0.0924 -0.9226
 2425TIP3    H128766   1.760   3.191   5.343 -0.1978 -0.1516 -1.0235
 2425TIP3    H228767   1.760   3.323   5.418 -0.6631 -0.4594 -0.4684
 2426TIP3   OH228768   6.240   2.742  16.349  0.1645 -0.4550 -0.3219
 2426TIP3    H128769   6.177   2.807  16.380  0.0053 -1.7775  2.4619
 2426TIP3    H228770   6.321   2.763  16.396  1.0534 -0.4294 -1.7962
 2427TIP3   OH228771   0.597   1.034   5.938 -0.0381  0.4894  0.4762
 2427TIP3    H128772   0.607   1.130   5.940 -1.5998  0.6769  1.3444
 2427TIP3    H228773   0.564   1.012   6.026  2.8227 -1.2113  1.2450
 2428TIP3   OH228774   4.180   3.973   5.158  0.3721 -0.1178 -0.2397
 2428TIP3    H128775   4.086   3.984   5.146  0.1931 -0.5378  0.6901
 2428TIP3    H228776   4.219   4.050   5.117 -0.3993  0.2722 -0.2508
 2429TIP3   OH228777   3.765   5.259  13.717  0.2120 -0.5877  0.4423
 2429TIP3    H128778   3.759   5.238  13.624 -1.4520  1.5784 -0.0205
 2429TIP3    H228779   3.729   5.182  13.761 -1.5245 -0.5963 -0.8798
 2430TIP3   OH228780   0.610   5.244  12.240 -0.1500 -0.2882  0.1871
 2430TIP3    H128781   0.581   5.322  12.287  1.2412 -1.0081  2.3565
 2430TIP3    H228782   0.692   5.271  12.199  0.9040 -0.8408  1.8336
 2431TIP3   OH228783   0.071   5.801  12.048  0.3757 -0.3334 -0.8485
 2431TIP3    H128784   0.101   5.752  12.124 -1.1945  0.9751  0.7027
 2431TIP3    H228785   0.137   5.868  12.034 -0.4004  0.8539  0.8578
 2432TIP3   OH228786   5.416   2.306  12.660 -0.5062 -0.1967  0.0349
 2432TIP3    H128787   5.495   2.253  12.652 -0.7880 -0.9079  1.5683
 2432TIP3    H228788   5.416   2.336  12.751 -1.7342  0.2020 -0.0734
 2433TIP3   OH228789   2.710   0.422  14.350 -0.1759  0.1785  0.0692
 2433TIP3    H128790   2.689   0.505  14.307  1.1827 -0.3641 -1.7364
 2433TIP3    H228791   2.717   0.445  14.443 -0.5960  1.9316 -0.2964
 2434TIP3   OH228792   3.717   4.239   4.726  0.0060  0.1795  0.0250
 2434TIP3    H128793   3.803   4.262   4.761  0.6008  0.2284 -1.4145
 2434TIP3    H228794   3.688   4.166   4.781  1.2891 -0.3067  0.0930
 2435TIP3   OH228795   5.319   5.352   0.120 -0.2633 -0.2058 -0.3034
 2435TIP3    H128796   5.356   5.348   0.031  0.1954  0.3673 -0.1446
 2435TIP3    H228797   5.234   5.393   0.108 -0.2615 -0.2570 -0.4965
 2436TIP3   OH228798   3.523   5.549  14.272  0.0414  0.0072 -0.1913
 2436TIP3    H128799   3.494   5.546  14.363 -1.3032  1.1574 -0.5442
 2436TIP3    H228800   3.615   5.572  14.277  0.6570 -2.3981  0.9274
 2437TIP3   OH228801   2.232   6.670   0.737  0.5634 -0.0113  0.3721
 2437TIP3    H128802   2.326   6.675   0.751  0.9235 -0.5278 -1.6493
 2437TIP3    H228803   2.213   6.736   0.670 -0.0834 -1.6154 -1.0886
 2438TIP3   OH228804   4.792   0.891   0.918  0.7264  0.0629  0.0316
 2438TIP3    H128805   4.723   0.954   0.940  0.6928  0.0700 -0.0925
 2438TIP3    H228806   4.856   0.942   0.869 -0.3791 -0.4674 -2.0715
 2439TIP3   OH228807   3.350   6.533   0.467 -0.1405  0.2356  0.9723
 2439TIP3    H128808   3.339   6.478   0.389  0.6757 -1.3913  1.9560
 2439TIP3    H228809   3.360   6.622   0.432 -1.8546 -0.1312 -0.6520
 2440TIP3   OH228810   1.302   3.890  16.881  0.5781 -0.0024 -0.4845
 2440TIP3    H128811   1.346   3.972  16.857  2.0345 -0.6811 -0.1978
 2440TIP3    H228812   1.355   3.853  16.951 -1.2483 -0.1616  0.9142
 2441TIP3   OH228813   4.051   1.883   1.255  0.4478  0.1110  0.2221
 2441TIP3    H128814   4.058   1.956   1.317 -0.1228  0.0236  0.3993
 2441TIP3    H228815   3.992   1.821   1.298 -0.5203  0.3552 -0.6922
 2442TIP3   OH228816   0.550   2.163  16.508  0.2484 -0.1872  0.1380
 2442TIP3    H128817   0.638   2.170  16.543  0.9803  0.5895 -1.7218
 2442TIP3    H228818   0.522   2.254  16.494 -0.7192 -0.4281  0.4095
 2443TIP3   OH228819   6.793   2.813   2.219 -0.1557 -0.1804 -0.3039
 2443TIP3    H128820   6.749   2.774   2.143  0.3794  0.3956 -0.9243
 2443TIP3    H228821   6.885   2.819   2.192  0.1752 -0.6162  0.6608
 2444TIP3   OH228822   4.985   0.145  16.646 -0.1022 -0.3143  0.5917
 2444TIP3    H128823   4.933   0.213  16.689  0.6511 -0.1841  1.3159
 2444TIP3    H228824   5.063   0.190  16.614 -0.6546 -0.4135 -0.9394
 2445TIP3   OH228825   3.616   2.206  14.687 -0.4152 -0.1944 -0.2978
 2445TIP3    H128826   3.628   2.294  14.724 -1.3870 -0.9039  1.8312
 2445TIP3    H228827   3.531   2.211  14.642 -0.4712 -0.0504 -0.1784
 2446TIP3   OH228828   1.719   5.897   0.593 -0.2929 -0.0779 -0.6494
 2446TIP3    H128829   1.721   5.922   0.500  2.0585 -2.4384 -1.3713
 2446TIP3    H228830   1.810   5.875   0.613 -0.6746  0.7086  2.3767
 2447TIP3   OH228831   6.778   0.638  14.359  0.1517  0.0640  0.5531
 2447TIP3    H128832   6.707   0.575  14.347 -0.5335  1.0728 -1.0203
 2447TIP3    H228833   6.735   0.718  14.390  0.1398  1.4005 -2.4657
 2448TIP3   OH228834   3.368   4.208  12.074 -0.3773  0.7613 -0.0783
 2448TIP3    H128835   3.353   4.177  12.163  1.6226 -2.4205 -0.6776
 2448TIP3    H228836   3.311   4.284  12.065 -2.2140 -0.0415  3.1899
 2449TIP3   OH228837   0.792   2.633  15.435  0.0184  0.2434 -0.0282
 2449TIP3    H128838   0.848   2.591  15.500 -0.1920 -0.5630 -0.3561
 2449TIP3    H228839   0.809   2.585  15.354 -2.1933 -0.9813  0.1636
 2450TIP3   OH228840   3.046   0.477  15.924 -0.1850 -0.2214 -0.1259
 2450TIP3    H128841   3.083   0.532  15.993 -0.1592  1.0567 -1.1431
 2450TIP3    H228842   3.020   0.537  15.855 -0.2260 -1.4712 -1.2502
 2451TIP3   OH228843   3.279   6.787   0.167  0.3113 -0.6783 -0.5097
 2451TIP3    H128844   3.250   6.875   0.191 -1.4849 -1.3433 -0.0987
 2451TIP3    H228845   3.212   6.756   0.106  1.6146 -1.3056 -1.6891
 2452TIP3   OH228846   0.167   5.096  16.051 -0.1172 -0.0153 -0.1786
 2452TIP3    H128847   0.191   5.004  16.056 -0.4293 -0.0677  0.4036
 2452TIP3    H228848   0.229   5.140  16.108  1.4437  0.4424 -2.1064
 2453TIP3   OH228849   0.300   0.265  16.754 -0.0104  0.3192  0.5827
 2453TIP3    H128850   0.261   0.347  16.784 -0.8524  0.7225 -1.4545
 2453TIP3    H228851   0.228   0.201  16.759  0.4601 -0.1654  1.5164
 2454TIP3   OH228852   4.598   5.517  11.667  0.3883  0.1061 -0.1364
 2454TIP3    H128853   4.614   5.573  11.592  2.0572 -0.5726 -0.3169
 2454TIP3    H228854   4.576   5.578  11.738 -0.8735  0.7665 -1.0457
 2455TIP3   OH228855   1.104   2.176   1.815  0.0243  0.5453  0.7922
 2455TIP3    H128856   1.199   2.178   1.829  0.3657 -0.5410 -0.9818
 2455TIP3    H228857   1.081   2.083   1.822 -0.5308  0.5400 -0.7675
 2456TIP3   OH228858   1.817   0.886  12.248 -0.4865 -0.1965 -1.0455
 2456TIP3    H128859   1.809   0.967  12.197  0.0209  1.1497  0.8965
 2456TIP3    H228860   1.812   0.914  12.339 -0.0490 -2.3462 -0.2890
 2457TIP3   OH228861   6.225   5.407  12.124  0.0451 -0.0308 -0.6373
 2457TIP3    H128862   6.310   5.382  12.161  0.1982  2.0257  0.5366
 2457TIP3    H228863   6.168   5.333  12.144  1.0991 -0.6345  0.2811
 2458TIP3   OH228864   0.635   5.949  10.617 -0.5048  0.1298 -0.3018
 2458TIP3    H128865   0.687   6.014  10.664 -1.9039 -0.0073  1.5983
 2458TIP3    H228866   0.699   5.891  10.577  0.7664  1.3989 -0.2006
 2459TIP3   OH228867   3.735   3.295   1.738 -0.5156  0.8156  0.5811
 2459TIP3    H128868   3.804   3.273   1.800 -1.1558 -0.6047  0.8336
 2459TIP3    H228869   3.777   3.354   1.675  1.1092 -0.4951  0.3592
 2460TIP3   OH228870   5.046   3.309   0.010 -0.2901  0.1572 -0.1874
 2460TIP3    H128871   5.106   3.381  -0.012  0.5424  0.1975  1.9660
 2460TIP3    H228872   5.081   3.273   0.092 -3.1108  0.0870  1.0907
 2461TIP3   OH228873   5.933   3.921   2.006  0.5833 -0.0315  0.0740
 2461TIP3    H128874   5.924   3.934   1.912 -0.2660 -1.5015 -0.0798
 2461TIP3    H228875   6.025   3.936   2.024  0.9527 -0.6908 -1.1571
 2462TIP3   OH228876   1.022   4.114   0.311  0.2491 -0.0561  0.4697
 2462TIP3    H128877   0.943   4.061   0.296  1.3349 -2.4035  2.4429
 2462TIP3    H228878   1.093   4.051   0.312  1.7807  1.5889  1.8614
 2463TIP3   OH228879   3.230   4.822   4.349  0.1427 -0.2449  0.4181
 2463TIP3    H128880   3.284   4.900   4.362 -0.2654  0.0399  0.4212
 2463TIP3    H228881   3.252   4.791   4.261  1.7543 -1.2673  1.1447
 2464TIP3   OH228882   3.969   0.611  16.724  0.1784  0.4475  0.0509
 2464TIP3    H128883   3.931   0.523  16.728 -1.8629  1.2817  0.1777
 2464TIP3    H228884   3.963   0.635  16.632  0.4216  0.5964  0.0738
 2465TIP3   OH228885   6.611   5.649  11.301 -0.3563  0.2386  0.3454
 2465TIP3    H128886   6.697   5.691  11.299  0.1002 -0.6887 -0.5321
 2465TIP3    H228887   6.604   5.611  11.388  0.8143 -1.0150 -0.0753
 2466TIP3   OH228888   3.712   1.241   5.467  0.4261 -0.0612  0.3644
 2466TIP3    H128889   3.680   1.256   5.556  0.5455 -3.0908  1.0338
 2466TIP3    H228890   3.807   1.238   5.476  0.3885 -3.1427  0.7961
 2467TIP3   OH228891   2.130   1.695   3.782 -0.2298  0.4142 -0.4484
 2467TIP3    H128892   2.068   1.765   3.801  0.8705  1.3363 -0.0833
 2467TIP3    H228893   2.195   1.701   3.853  1.1708  0.5832 -1.6817
 2468TIP3   OH228894   6.601   6.690   5.645 -0.1955  0.1715  0.0287
 2468TIP3    H128895   6.648   6.683   5.728  2.9595 -0.3966 -1.6426
 2468TIP3    H228896   6.541   6.763   5.657  1.4126  1.2309  2.2666
 2469TIP3   OH228897   4.812   4.612   1.666  0.3684  0.0154  0.1512
 2469TIP3    H128898   4.757   4.545   1.625  0.8071 -0.2841  0.0492
 2469TIP3    H228899   4.785   4.612   1.758  0.2463 -0.1749  0.1160
 2470TIP3   OH228900   3.070   6.847  12.400  0.3461 -0.2076  0.1307
 2470TIP3    H128901   3.007   6.899  12.351  1.7790  1.4191 -0.0415
 2470TIP3    H228902   3.021   6.768  12.426 -1.2598  0.2531 -1.3740
 2471TIP3   OH228903   4.402   6.650   5.138  0.0586 -0.1323 -0.1163
 2471TIP3    H128904   4.411   6.615   5.226 -0.3369 -2.6323 -0.9883
 2471TIP3    H228905   4.340   6.722   5.147 -0.6850 -0.9301  1.5043
 2472TIP3   OH228906   0.810   3.509   3.554 -0.5248 -0.1837 -0.1453
 2472TIP3    H128907   0.891   3.468   3.523  0.2354  0.8890  0.3656
 2472TIP3    H228908   0.808   3.594   3.511 -0.2346  0.7036  1.4855
 2473TIP3   OH228909   5.847   4.515   5.183  0.3842 -0.3142  0.1092
 2473TIP3    H128910   5.754   4.491   5.191  0.2415  0.5386  1.3384
 2473TIP3    H228911   5.894   4.446   5.229  0.0403  1.1229  2.8499
 2474TIP3   OH228912   5.188   1.757   0.128 -0.5307 -0.2292  0.0752
 2474TIP3    H128913   5.216   1.846   0.147 -1.7367  0.1915 -0.0218
 2474TIP3    H228914   5.266   1.703   0.144 -0.3286  0.5754  2.1499
 2475TIP3   OH228915   1.006   0.131   0.415  0.0201  0.0626 -0.1014
 2475TIP3    H128916   1.020   0.062   0.349 -1.0714  0.1836 -0.4881
 2475TIP3    H228917   1.083   0.127   0.471 -0.1625 -1.7275  0.0920
 2476TIP3   OH228918   5.909   3.869   5.642 -0.9241 -0.0959  0.3087
 2476TIP3    H128919   5.922   3.788   5.592  3.0988 -0.0888  0.9882
 2476TIP3    H228920   5.912   3.840   5.734  1.8397  0.8059  0.5915
 2477TIP3   OH228921   3.567   5.600   2.584  0.3354 -0.3279 -0.2393
 2477TIP3    H128922   3.557   5.680   2.533 -0.3506 -0.0171  0.3660
 2477TIP3    H228923   3.649   5.561   2.552  1.8687  1.7096  0.9205
 2478TIP3   OH228924   0.417   0.601  15.806  0.1110  0.2791 -0.4126
 2478TIP3    H128925   0.512   0.598  15.820 -0.2113  0.6916  2.4108
 2478TIP3    H228926   0.391   0.510  15.794  0.4998 -0.2487  2.2148
 2479TIP3   OH228927   5.270   0.619  13.056 -0.2487 -0.1272 -0.2671
 2479TIP3    H128928   5.250   0.662  13.140  0.7439 -0.4800  0.1733
 2479TIP3    H228929   5.206   0.655  12.995  0.5890  2.1100  0.0543
 2480TIP3   OH228930   6.100   1.123  12.819  0.0706  0.1097 -0.4963
 2480TIP3    H128931   6.105   1.099  12.912 -2.1929 -1.0409 -0.6151
 2480TIP3    H228932   6.163   1.065  12.777 -1.3099 -1.8100 -0.0459
 2481TIP3   OH228933   0.133   1.977  11.737  0.3566  0.1751  0.2302
 2481TIP3    H128934   0.124   2.060  11.784 -0.5199  0.7912 -0.9835
 2481TIP3    H228935   0.044   1.942  11.731  0.6799 -0.7240  0.4780
 2482TIP3   OH228936   4.672   6.752   4.926  0.2491  0.1420  0.0976
 2482TIP3    H128937   4.631   6.825   4.881 -0.1670 -0.8441 -1.1793
 2482TIP3    H228938   4.753   6.735   4.877  1.1975  0.7555  1.3651
 2483TIP3   OH228939   0.302   0.942  11.344 -0.4418  0.0285  0.3574
 2483TIP3    H128940   0.224   0.901  11.381 -0.3443 -1.4037 -0.9272
 2483TIP3    H228941   0.305   0.911  11.253  2.4954 -1.3435  0.8162
 2484TIP3   OH228942   2.308   4.524   1.665 -0.3377  0.1336  0.0331
 2484TIP3    H128943   2.341   4.482   1.586 -1.1154 -0.2539 -0.0977
 2484TIP3    H228944   2.385   4.563   1.707  0.1845 -0.2944 -0.5305
 2485TIP3   OH228945   2.155   1.101   3.409 -0.2398  0.1229 -0.3444
 2485TIP3    H128946   2.212   1.124   3.335  0.2501  0.1861  0.0519
 2485TIP3    H228947   2.114   1.018   3.382  1.0463 -0.6233 -0.0770
 2486TIP3   OH228948   5.486   4.763   3.710  0.9020 -0.0748  0.1354
 2486TIP3    H128949   5.430   4.751   3.787  0.2348 -0.0746 -0.3373
 2486TIP3    H228950   5.565   4.713   3.730  1.3600  1.0969  1.4312
 2487TIP3   OH228951   4.353   3.712  13.377  0.4088 -0.1801 -0.1446
 2487TIP3    H128952   4.353   3.629  13.328  1.0786 -1.0181  1.2003
 2487TIP3    H228953   4.312   3.690  13.460  0.5704  0.8611  0.2226
 2488TIP3   OH228954   5.107   4.986   2.263 -0.3416 -0.0098  0.3985
 2488TIP3    H128955   5.074   4.972   2.352 -1.0357 -0.1178  0.1292
 2488TIP3    H228956   5.052   5.056   2.227  1.1450  1.3493  0.6852
 2489TIP3   OH228957   1.265   0.562  13.475 -0.4845  0.2351  0.4271
 2489TIP3    H128958   1.357   0.537  13.468 -0.5048  0.5589 -1.7081
 2489TIP3    H228959   1.218   0.493  13.429 -1.3368  0.0594  1.5161
 2490TIP3   OH228960   2.796   5.140  13.146  0.0126 -0.2150  0.4375
 2490TIP3    H128961   2.858   5.080  13.105 -0.7563  0.1797 -1.4181
 2490TIP3    H228962   2.800   5.219  13.092 -3.0551 -0.6616 -0.6733
 2491TIP3   OH228963   4.136   4.180   0.953  0.1280  0.4550  0.4579
 2491TIP3    H128964   4.154   4.274   0.946 -0.0126  0.3760 -1.5346
 2491TIP3    H228965   4.219   4.138   0.934  0.3388  0.1551  1.9577
 2492TIP3   OH228966   3.126   1.701  16.584 -0.6043  0.2166  0.3652
 2492TIP3    H128967   3.213   1.734  16.607  0.1323 -1.3403  0.0169
 2492TIP3    H228968   3.068   1.732  16.653  0.2764  1.1216  0.7116
 2493TIP3   OH228969   4.584   3.425   4.569  0.1055 -0.2578  0.2515
 2493TIP3    H128970   4.634   3.462   4.496 -0.8031  2.5004  0.8866
 2493TIP3    H228971   4.531   3.498   4.600  1.4350 -0.8686  4.5820
 2494TIP3   OH228972   4.322   2.354   3.494 -0.1016  0.4641  0.3990
 2494TIP3    H128973   4.288   2.407   3.422  0.4011  0.6336  0.2810
 2494TIP3    H228974   4.261   2.369   3.566 -1.3665 -0.7300 -0.3679
 2495TIP3   OH228975   3.274   4.262   2.638 -0.5034 -0.0786 -0.4826
 2495TIP3    H128976   3.351   4.291   2.590  0.0015 -1.4892 -0.5671
 2495TIP3    H228977   3.231   4.343   2.666  0.7461  0.7333 -0.8367
 2496TIP3   OH228978   3.573   0.172  13.006 -0.3551  0.3088 -0.2337
 2496TIP3    H128979   3.540   0.133  12.925 -1.1427 -2.8239  1.4476
 2496TIP3    H228980   3.655   0.126  13.023 -0.7644  0.1219  1.3233
 2497TIP3   OH228981   5.478   2.437  11.405 -0.2181  0.9701  0.4165
 2497TIP3    H128982   5.486   2.357  11.457 -0.7625  0.4934 -0.2105
 2497TIP3    H228983   5.564   2.448  11.364 -0.3308  0.3493  0.0056
 2498TIP3   OH228984   4.810   1.719   3.922  0.7560  0.8549 -0.1040
 2498TIP3    H128985   4.848   1.724   4.010 -0.0873 -0.3365  0.3507
 2498TIP3    H228986   4.857   1.786   3.872  1.3679  1.4431  1.2048
 2499TIP3   OH228987   3.492   4.859  14.383 -0.3044 -0.3446  0.3202
 2499TIP3    H128988   3.564   4.867  14.322 -0.8622  0.8815 -0.1955
 2499TIP3    H228989   3.458   4.770  14.368 -0.7294  0.0881 -1.4868
 2500TIP3   OH228990   5.775   4.499   3.829  0.2479 -0.0289  0.1463
 2500TIP3    H128991   5.745   4.522   3.741  0.8453 -1.7481 -0.5534
 2500TIP3    H228992   5.712   4.433   3.860  1.6614 -1.6234 -0.2275
 2501TIP3   OH228993   4.982   5.439  12.444 -0.0021  0.0715 -0.4452
 2501TIP3    H128994   4.890   5.444  12.417  0.7713  1.4039 -3.1921
 2501TIP3    H228995   5.012   5.530  12.445  1.9256 -0.4669 -2.2532
 2502TIP3   OH228996   1.346   3.406   1.743 -0.1384 -0.0705 -0.0997
 2502TIP3    H128997   1.418   3.457   1.707  0.6963 -2.1141 -1.5070
 2502TIP3    H228998   1.389   3.332   1.786 -1.3396 -0.0746  1.1716
 2503TIP3   OH228999   3.300   3.450  11.616 -0.4888 -0.2616 -0.3491
 2503TIP3    H129000   3.238   3.477  11.683 -0.5766 -0.3598 -0.3900
 2503TIP3    H229001   3.380   3.498  11.636 -0.7201  0.2186 -0.5762
 2504TIP3   OH229002   1.127   3.591  15.831  0.0025 -0.4901 -0.7858
 2504TIP3    H129003   1.046   3.543  15.851 -0.4978  1.0277  1.1150
 2504TIP3    H229004   1.160   3.549  15.752 -1.9247 -2.0472 -0.8552
 2505TIP3   OH229005   6.241   1.757  16.355 -0.1434  0.0638 -0.2019
 2505TIP3    H129006   6.252   1.831  16.296  0.5078 -1.3173 -1.9177
 2505TIP3    H229007   6.330   1.735  16.384 -0.3615  0.1366  0.5522
 2506TIP3   OH229008   0.199   4.963  13.441 -0.4520 -0.6808 -0.3123
 2506TIP3    H129009   0.193   5.000  13.530 -2.0835 -2.3455  0.3306
 2506TIP3    H229010   0.175   5.036  13.384 -1.4533 -0.1351  0.7545
 2507TIP3   OH229011   1.884   1.955  16.288  0.2459  0.0138 -0.2625
 2507TIP3    H129012   1.829   2.020  16.332 -0.5500 -1.8278  1.5907
 2507TIP3    H229013   1.968   1.959  16.334  0.7214  0.7242 -1.1425
 2508TIP3   OH229014   4.243   4.021   3.041 -0.4537  0.2518  0.0077
 2508TIP3    H129015   4.218   4.048   3.130  1.0900  1.5812  0.0823
 2508TIP3    H229016   4.330   3.983   3.052 -0.5548 -0.2494 -0.8554
 2509TIP3   OH229017   2.821   0.253   2.953 -0.7631 -0.5584  0.9276
 2509TIP3    H129018   2.749   0.193   2.935  0.9840 -2.4426 -0.1129
 2509TIP3    H229019   2.794   0.335   2.912 -1.3924 -1.8552 -1.4260
 2510TIP3   OH229020   2.747   2.077   5.875  0.3219 -0.3006  0.0215
 2510TIP3    H129021   2.677   2.064   5.939  1.3499 -3.4531  0.6748
 2510TIP3    H229022   2.825   2.093   5.927  0.5383  0.8706 -0.6244
 2511TIP3   OH229023   6.632   3.588  13.484 -0.0045  0.4615 -0.3744
 2511TIP3    H129024   6.586   3.623  13.407 -0.9026  1.8835  0.7551
 2511TIP3    H229025   6.689   3.660  13.512 -0.7368  0.4902  1.1077
 2512TIP3   OH229026   1.452   0.384  12.276  0.3172 -0.1590  0.2911
 2512TIP3    H129027   1.461   0.466  12.326 -1.5140  0.8927 -0.9672
 2512TIP3    H229028   1.499   0.319  12.327  0.0430  1.2440  2.4448
 2513TIP3   OH229029   5.046   5.289   2.473 -0.0356 -0.1088  0.3789
 2513TIP3    H129030   4.999   5.208   2.454 -0.2714  0.3631 -1.1717
 2513TIP3    H229031   4.990   5.359   2.439  0.0056  0.7726  1.9863
 2514TIP3   OH229032   4.454   3.436  16.309  0.2182  0.5385  0.1147
 2514TIP3    H129033   4.435   3.424  16.402  0.1813  0.5144  0.1039
 2514TIP3    H229034   4.518   3.367  16.289 -0.0260  0.3332  0.0430
 2515TIP3   OH229035   5.828   5.753   1.409 -0.1803 -0.5147  0.0315
 2515TIP3    H129036   5.902   5.692   1.417  0.3482 -0.7279 -4.2327
 2515TIP3    H229037   5.751   5.696   1.406 -0.4468 -0.4049  2.5873
 2516TIP3   OH229038   4.183   5.360  12.830  0.0813 -0.1307  0.5149
 2516TIP3    H129039   4.236   5.291  12.870  0.5255 -1.2101 -1.8101
 2516TIP3    H229040   4.172   5.333  12.739 -1.0634  2.1035 -0.0833
 2517TIP3   OH229041   2.272   1.128  13.977 -0.2902 -0.2205 -0.6401
 2517TIP3    H129042   2.350   1.145  13.925 -0.7537 -2.0528 -2.0778
 2517TIP3    H229043   2.281   1.182  14.054  2.5873 -0.6577 -0.5869
 2518TIP3   OH229044   3.797   4.099  10.465 -0.1102  0.6437  0.3798
 2518TIP3    H129045   3.727   4.037  10.442 -1.5704  2.0907  0.7572
 2518TIP3    H229046   3.878   4.053  10.443 -1.1686 -1.1420  0.0495
 2519TIP3   OH229047   3.528   5.948  12.247 -0.6775 -0.4595  0.2487
 2519TIP3    H129048   3.586   5.981  12.315  0.2542  0.5632 -0.9851
 2519TIP3    H229049   3.440   5.969  12.278 -0.2369  0.5500  0.8702
 2520TIP3   OH229050   5.508   5.520   3.730  0.3871  0.4943 -0.4568
 2520TIP3    H129051   5.487   5.505   3.638 -1.4237  1.8059 -0.2962
 2520TIP3    H229052   5.447   5.464   3.778  1.9859 -0.9671  0.0094
 2521TIP3   OH229053   0.757   6.780  16.585 -0.3094 -0.0102  0.1722
 2521TIP3    H129054   0.736   6.825  16.503  1.2911  1.0893  0.3034
 2521TIP3    H229055   0.704   6.701  16.585 -0.6405  0.1861 -1.7310
 2522TIP3   OH229056   2.343   0.460  14.953 -0.5904 -0.0230  0.1701
 2522TIP3    H129057   2.362   0.455  15.047  0.0474  1.2373  0.1326
 2522TIP3    H229058   2.368   0.373  14.919 -0.0427 -0.2199  1.0347
 2523TIP3   OH229059   6.469   0.158  15.640  0.7896 -0.2706  0.3705
 2523TIP3    H129060   6.498   0.072  15.610  0.4012  0.0849 -1.0580
 2523TIP3    H229061   6.466   0.212  15.561  0.3139  0.8605  1.1379
 2524TIP3   OH229062   2.256   4.006   1.958  0.8602 -0.2154  0.4484
 2524TIP3    H129063   2.195   4.022   2.031  0.3792  0.0235 -0.0000
 2524TIP3    H229064   2.199   3.994   1.882  1.3784  0.0047  0.0238
 2525TIP3   OH229065   3.935   2.538  10.432 -0.4404  0.1823 -0.1427
 2525TIP3    H129066   3.909   2.626  10.404 -1.5605 -0.3687 -0.9366
 2525TIP3    H229067   4.023   2.549  10.468  0.4801  1.2032 -2.5367
 2526TIP3   OH229068   3.451   1.356  15.623 -0.4716 -0.1219 -0.3721
 2526TIP3    H129069   3.420   1.443  15.597 -0.6541 -0.6785 -2.1746
 2526TIP3    H229070   3.546   1.362  15.619 -0.4616  0.1313  0.0728
 2527TIP3   OH229071   1.476   2.002  14.409  0.3104 -0.5319 -0.2381
 2527TIP3    H129072   1.417   2.067  14.371  0.1368 -1.7270 -2.1815
 2527TIP3    H229073   1.560   2.047  14.415 -0.6578  1.1575  2.4527
 2528TIP3   OH229074   1.990   2.395  10.890  0.8421 -0.6554 -0.5045
 2528TIP3    H129075   2.050   2.453  10.842  0.9281 -0.4283 -0.1237
 2528TIP3    H229076   1.904   2.413  10.852  0.8141 -0.0122 -0.1360
 2529TIP3   OH229077   1.938   4.595  15.564 -0.2527 -0.6787  0.3674
 2529TIP3    H129078   2.021   4.565  15.602  0.5832  0.2509 -0.6395
 2529TIP3    H229079   1.915   4.673  15.615  0.0888 -0.2916 -0.0624
 2530TIP3   OH229080   6.371   2.951  13.004 -0.8154 -1.0370 -0.2836
 2530TIP3    H129081   6.281   2.926  12.981 -1.4087  1.5129 -1.1376
 2530TIP3    H229082   6.415   2.961  12.919  0.2647 -2.0803  0.1263
 2531TIP3   OH229083   2.746   6.133  11.432  0.0634  0.4516  0.7120
 2531TIP3    H129084   2.711   6.079  11.503 -0.5586 -0.9824 -0.6235
 2531TIP3    H229085   2.697   6.215  11.437 -0.4828  0.0852  1.4754
 2532TIP3   OH229086   5.428   1.167  16.117 -0.0405  0.3600 -0.4200
 2532TIP3    H129087   5.512   1.159  16.072  0.2814  1.6690 -0.0811
 2532TIP3    H229088   5.399   1.256  16.099 -1.9616 -0.4319 -1.5224
 2533TIP3   OH229089   1.156   0.914   4.135  0.6396 -0.2504 -0.1714
 2533TIP3    H129090   1.098   0.978   4.176  0.7193  0.8873 -1.7420
 2533TIP3    H229091   1.140   0.833   4.183 -1.5671  0.2599  0.0545
 2534TIP3   OH229092   0.202   5.841  15.603  0.8895  0.2430 -0.2928
 2534TIP3    H129093   0.273   5.854  15.666  1.9147 -1.5010 -1.0152
 2534TIP3    H229094   0.247   5.826  15.519 -0.3933  0.9172 -1.1336
 2535TIP3   OH229095   4.890   6.103   3.326 -0.0197 -0.1709  0.0494
 2535TIP3    H129096   4.968   6.059   3.292  0.1766 -1.3699  1.9126
 2535TIP3    H229097   4.826   6.033   3.338 -0.8369  0.5603  0.0597
 2536TIP3   OH229098   1.848   5.398   0.679 -0.0748 -0.0181 -0.5280
 2536TIP3    H129099   1.822   5.457   0.749 -3.5433 -2.5905  0.6142
 2536TIP3    H229100   1.811   5.437   0.599  1.5763  1.5416 -0.5827
 2537TIP3   OH229101   1.631   3.599  10.403 -0.3757 -1.1420  0.4205
 2537TIP3    H129102   1.638   3.503  10.400  0.9441 -1.0416 -1.0355
 2537TIP3    H229103   1.681   3.629  10.327  0.7669  0.7732  1.8464
 2538TIP3   OH229104   4.477   6.513  15.116 -0.2804 -0.2875  0.4773
 2538TIP3    H129105   4.517   6.444  15.168 -1.1888 -1.6790 -0.5699
 2538TIP3    H229106   4.403   6.544  15.169  0.5062  0.3417  1.2187
 2539TIP3   OH229107   6.561   5.963   3.530 -0.2316 -0.6635 -0.4343
 2539TIP3    H129108   6.581   6.038   3.475 -0.5765 -0.9420 -0.9410
 2539TIP3    H229109   6.470   5.942   3.511 -0.4821 -0.5247  0.5300
 2540TIP3   OH229110   1.287   0.312  16.773 -0.0985  0.3599 -0.2662
 2540TIP3    H129111   1.311   0.343  16.686 -1.2542  0.4518 -0.5618
 2540TIP3    H229112   1.255   0.223  16.759 -0.8371  0.5827 -0.0225
 2541TIP3   OH229113   3.441   3.507   4.247  0.3170 -0.2038  0.0847
 2541TIP3    H129114   3.467   3.490   4.156 -0.1256 -0.2299 -0.0398
 2541TIP3    H229115   3.345   3.511   4.244  0.2946 -0.3239  0.5720
 2542TIP3   OH229116   0.862   3.571   2.786 -0.2336 -0.4024 -0.1774
 2542TIP3    H129117   0.855   3.621   2.867  1.5245  0.9475 -0.7734
 2542TIP3    H229118   0.953   3.542   2.783 -1.1303 -3.6750  0.0760
 2543TIP3   OH229119   6.554   5.570  11.044 -0.3684  0.5853  0.5333
 2543TIP3    H129120   6.470   5.527  11.028  0.4291 -0.4941 -0.8943
 2543TIP3    H229121   6.556   5.581  11.139 -0.8331 -2.1134  0.9290
 2544TIP3   OH229122   2.305   4.285  15.099 -0.2986  0.1784 -0.0071
 2544TIP3    H129123   2.387   4.332  15.084 -0.2889  0.2279  0.1942
 2544TIP3    H229124   2.332   4.198  15.128 -0.3146 -0.1851 -1.0725
 2545TIP3   OH229125   6.860   1.963  12.350  0.3586  0.0645  0.3456
 2545TIP3    H129126   6.789   1.910  12.314  1.0857 -1.0521  0.4941
 2545TIP3    H229127   6.939   1.926  12.311  0.8159  1.9025 -0.5587
 2546TIP3   OH229128   4.151   4.086   3.290  0.4472 -0.5154  0.2026
 2546TIP3    H129129   4.222   4.097   3.353  0.2704  0.4807  0.2458
 2546TIP3    H229130   4.081   4.141   3.324  1.4784  2.8243 -2.5760
 2547TIP3   OH229131   2.540   6.855   0.509 -0.2497 -0.3462  0.3547
 2547TIP3    H129132   2.458   6.837   0.554 -0.2804  0.4114  0.6195
 2547TIP3    H229133   2.531   6.944   0.476 -0.5097 -1.0926 -1.7851
 2548TIP3   OH229134   5.983   6.675  14.623  0.4041 -0.0025  0.3225
 2548TIP3    H129135   6.075   6.680  14.647  0.1211  2.8606  1.1859
 2548TIP3    H229136   5.969   6.750  14.565 -1.7383  0.7778  1.7146
 2549TIP3   OH229137   3.544   0.352   2.446 -0.4317 -0.5819 -0.1118
 2549TIP3    H129138   3.626   0.379   2.403  0.4402 -2.6758  0.1048
 2549TIP3    H229139   3.551   0.387   2.535  0.4471 -1.0682  0.0255
 2550TIP3   OH229140   1.777   0.933   5.033 -0.1228 -0.4197 -0.2455
 2550TIP3    H129141   1.748   1.007   5.086 -0.1538  0.0072 -0.8342
 2550TIP3    H229142   1.718   0.862   5.055 -1.3152  0.2769 -1.0329
 2551TIP3   OH229143   6.329   5.150   3.371  0.1204 -0.2933 -0.8379
 2551TIP3    H129144   6.289   5.201   3.441 -0.3945 -1.5693 -0.1732
 2551TIP3    H229145   6.422   5.148   3.393 -0.2719 -2.3101  0.9505
 2552TIP3   OH229146   1.971   2.686   5.171  0.5231  0.1496  0.2036
 2552TIP3    H129147   1.999   2.640   5.091  3.3959 -0.7844  1.6093
 2552TIP3    H229148   1.906   2.628   5.210  0.1768 -0.0966 -0.7177
 2553TIP3   OH229149   3.223   1.808  12.228 -0.1094  0.2104  0.2542
 2553TIP3    H129150   3.292   1.851  12.278  0.2837  1.4294 -1.2690
 2553TIP3    H229151   3.260   1.798  12.140 -1.7131  0.4781 -0.4764
 2554TIP3   OH229152   6.163   4.136  15.457 -0.2987 -0.3862  0.2130
 2554TIP3    H129153   6.183   4.047  15.484 -0.0970  0.0962  1.7433
 2554TIP3    H229154   6.187   4.190  15.532  1.1379  1.1452 -1.2652
 2555TIP3   OH229155   0.633   4.500   3.575 -0.5243 -0.0450 -0.0613
 2555TIP3    H129156   0.581   4.442   3.631  0.2500 -1.2882 -0.5784
 2555TIP3    H229157   0.714   4.451   3.559 -0.0672  0.9645 -0.9560
 2556TIP3   OH229158   3.777   3.751  15.532  0.7913 -0.8231 -0.1559
 2556TIP3    H129159   3.864   3.718  15.508  0.2039 -3.0177  0.4432
 2556TIP3    H229160   3.719   3.715  15.465  0.0439 -1.4745  0.8093
 2557TIP3   OH229161   3.858   2.246   4.010 -0.4847  0.4334 -0.0720
 2557TIP3    H129162   3.870   2.307   4.083 -1.5221  0.6794 -0.1009
 2557TIP3    H229163   3.813   2.297   3.943 -0.5202 -0.1068 -0.4614
 2558TIP3   OH229164   2.412   3.958  12.263 -0.2417  0.0898 -0.0015
 2558TIP3    H129165   2.403   4.005  12.180  1.7724  1.5989  0.5444
 2558TIP3    H229166   2.482   3.895  12.248 -2.4734 -2.4238 -0.5203
 2559TIP3   OH229167   0.025   1.426   2.598  0.2223  0.6956 -0.2945
 2559TIP3    H129168  -0.027   1.506   2.598  0.2291  0.7137 -1.4449
 2559TIP3    H229169  -0.038   1.356   2.617  0.2708  0.9917  1.0135
 2560TIP3   OH229170   0.953   1.009  15.330  0.1699  0.0413 -0.4384
 2560TIP3    H129171   1.003   1.004  15.248 -0.4800  1.9191 -1.0013
 2560TIP3    H229172   1.003   0.956  15.392  1.6124  0.0032 -1.5891
 2561TIP3   OH229173   2.831   3.398   3.641  0.4057  0.4906  0.2087
 2561TIP3    H129174   2.916   3.415   3.680  0.7493 -2.2298  0.8262
 2561TIP3    H229175   2.777   3.367   3.713 -1.2883  2.4134 -0.1069
 2562TIP3   OH229176   0.664   5.247   2.170 -0.0117  0.0662 -0.1173
 2562TIP3    H129177   0.683   5.210   2.084  0.9057 -0.3962  0.2730
 2562TIP3    H229178   0.602   5.318   2.152 -0.0385 -0.1936 -1.1223
 2563TIP3   OH229179   4.000   4.589  17.033 -0.4013  0.5423 -0.0809
 2563TIP3    H129180   4.047   4.634  17.103  0.4545  2.0012 -1.5142
 2563TIP3    H229181   4.059   4.518  17.007 -0.7774 -0.0811  0.7354
 2564TIP3   OH229182   6.544   6.454  15.417  0.1955  0.8216  0.2896
 2564TIP3    H129183   6.458   6.423  15.447  0.4564  1.1877  1.4702
 2564TIP3    H229184   6.530   6.545  15.392  0.2896  0.9701  0.7613
 2565TIP3   OH229185   1.436   0.131   1.646  0.3489  0.1049  0.2330
 2565TIP3    H129186   1.384   0.206   1.675 -1.6689 -0.8111 -0.7722
 2565TIP3    H229187   1.505   0.169   1.591  0.1694  1.3040  0.8031
 2566TIP3   OH229188   0.957   2.363  13.889  0.4614 -0.2970  0.0086
 2566TIP3    H129189   0.962   2.301  13.816  0.4100  0.5526 -0.7385
 2566TIP3    H229190   1.022   2.332  13.951  1.6531 -0.1634 -1.1156
 2567TIP3   OH229191   2.702   2.884   0.562  0.0930  0.0119 -0.2930
 2567TIP3    H129192   2.634   2.910   0.623 -0.5569 -0.6223 -0.7276
 2567TIP3    H229193   2.733   2.799   0.594 -0.7614 -0.6823 -1.2080
 2568TIP3   OH229194   3.668   5.718   2.803  0.0703 -0.6917  0.2593
 2568TIP3    H129195   3.612   5.682   2.734  1.4733 -3.0787  0.2624
 2568TIP3    H229196   3.614   5.714   2.882 -1.3888  1.6495 -0.5066
 2569TIP3   OH229197   4.763   1.942   0.654 -0.1780  0.5179  0.3762
 2569TIP3    H129198   4.678   1.903   0.675 -0.4661  0.9342  0.0073
 2569TIP3    H229199   4.764   1.945   0.558  0.6303 -0.3020  0.3445
 2570TIP3   OH229200   5.432   4.851  15.153 -0.0887 -0.1435 -0.0601
 2570TIP3    H129201   5.460   4.899  15.075 -0.1533 -1.2670 -0.8038
 2570TIP3    H229202   5.345   4.887  15.173 -0.5872 -0.6169 -1.2299
 2571TIP3   OH229203   2.390   0.759   1.882  0.0642  0.5050 -0.2405
 2571TIP3    H129204   2.434   0.683   1.845 -1.0535  0.7197 -2.1119
 2571TIP3    H229205   2.338   0.724   1.954  0.3529 -0.3428 -0.4339
 2572TIP3   OH229206   4.889   6.627  13.324 -0.4704  0.1486  0.1694
 2572TIP3    H129207   4.855   6.558  13.380 -1.1211 -0.0707 -0.4768
 2572TIP3    H229208   4.844   6.614  13.240  1.8095 -0.6803 -1.0159
 2573TIP3   OH229209   3.272   1.600  11.018 -0.0781 -0.4622  0.4606
 2573TIP3    H129210   3.219   1.625  10.942  0.8844 -1.0312 -0.4186
 2573TIP3    H229211   3.341   1.667  11.022 -0.8443  0.2929  1.6193
 2574TIP3   OH229212   3.977   4.412   2.883  0.8486 -0.7168  0.1409
 2574TIP3    H129213   3.904   4.359   2.851  0.3214 -0.3599  0.7175
 2574TIP3    H229214   4.011   4.455   2.805 -1.8652  1.9377  0.2265
 2575TIP3   OH229215   3.782   3.268   5.281  0.6134 -0.2768  0.3210
 2575TIP3    H129216   3.862   3.223   5.306  1.5429  0.0064 -1.9187
 2575TIP3    H229217   3.803   3.361   5.286  0.1752 -0.1803  0.4622
 2576TIP3   OH229218   2.104   5.449  13.663 -0.8888 -0.5382 -0.0883
 2576TIP3    H129219   2.166   5.502  13.712  0.5686 -1.4063 -0.9291
 2576TIP3    H229220   2.046   5.412  13.729 -0.8110  0.6560  0.6665
 2577TIP3   OH229221   6.562   0.091   6.056  0.9679  0.4043  0.8150
 2577TIP3    H129222   6.644   0.122   6.096  1.6007 -0.7907  0.5003
 2577TIP3    H229223   6.571  -0.005   6.054  0.8960  0.3745 -2.0155
 2578TIP3   OH229224   1.220   4.232   5.483  0.3467  0.0443  0.3750
 2578TIP3    H129225   1.132   4.244   5.519  1.5587  0.4676  3.4781
 2578TIP3    H229226   1.246   4.145   5.511  1.7181  0.7702  1.4994
 2579TIP3   OH229227   1.609   4.467   4.384  0.0159 -0.5810 -0.5508
 2579TIP3    H129228   1.516   4.480   4.402  0.1531 -0.4642  0.0737
 2579TIP3    H229229   1.633   4.388   4.433  0.1794 -0.7771 -0.9405
 2580TIP3   OH229230   1.948   5.639   2.877  0.2205 -0.2937 -0.2701
 2580TIP3    H129231   1.913   5.704   2.938 -1.8760 -0.2014 -1.4840
 2580TIP3    H229232   1.905   5.557   2.901  0.2259 -0.4970 -0.9363
 2581TIP3   OH229233   1.782   3.260   0.180 -0.1957  0.4945  0.6248
 2581TIP3    H129234   1.860   3.260   0.235  0.0992 -0.5592  0.2302
 2581TIP3    H229235   1.803   3.320   0.109 -0.1422  0.9875  1.0496
 2582TIP3   OH229236   4.742   5.490  14.635  0.4059  0.2303 -0.0490
 2582TIP3    H129237   4.823   5.503  14.683  0.6850 -1.4535  0.0048
 2582TIP3    H229238   4.769   5.481  14.544 -0.0011  2.1528 -0.4084
 2583TIP3   OH229239   6.655   6.616  12.691  0.1960 -0.4035 -0.1879
 2583TIP3    H129240   6.696   6.632  12.606  0.2564  0.8413  0.0631
 2583TIP3    H229241   6.561   6.609  12.670  0.1639  0.3400 -0.3004
 2584TIP3   OH229242   2.751   5.791   5.778 -0.6103  0.4563 -0.3181
 2584TIP3    H129243   2.800   5.873   5.777 -1.9468  1.3154  0.5211
 2584TIP3    H229244   2.811   5.727   5.816 -0.4825  1.7330  1.7905
 2585TIP3   OH229245   4.210   1.152   4.842 -0.1046 -0.2120  0.2144
 2585TIP3    H129246   4.124   1.147   4.883  0.1787  2.3930  1.3495
 2585TIP3    H229247   4.250   1.066   4.857 -1.1180 -0.3083  2.9417
 2586TIP3   OH229248   2.895   0.910  10.621  0.2056 -0.6001 -0.1013
 2586TIP3    H129249   2.865   0.924  10.531 -0.2372 -0.1616  0.1120
 2586TIP3    H229250   2.943   0.826  10.617  0.2655 -0.5443 -0.7579
 2587TIP3   OH229251   4.245   4.214   2.586 -0.0743 -0.1419  0.3230
 2587TIP3    H129252   4.245   4.251   2.674 -1.2334 -0.7052  0.5813
 2587TIP3    H229253   4.276   4.285   2.530 -0.8379  0.7483  0.9898
 2588TIP3   OH229254   2.525   1.639   6.112  0.3412 -0.0613 -0.6907
 2588TIP3    H129255   2.473   1.673   6.185 -1.6423 -2.4525 -0.8614
 2588TIP3    H229256   2.529   1.711   6.049  0.6965  1.4955  1.0224
 2589TIP3   OH229257   4.256   5.022   0.152 -0.4488  0.3473 -0.0143
 2589TIP3    H129258   4.324   5.051   0.212 -0.2711  0.8779 -0.4580
 2589TIP3    H229259   4.264   4.927   0.150  0.2748  0.3999 -0.0466
 2590TIP3   OH229260   6.815   0.166  10.786  0.0949 -0.5637 -0.4445
 2590TIP3    H129261   6.768   0.195  10.864  0.5164  1.6845 -0.9709
 2590TIP3    H229262   6.847   0.079  10.809 -0.7552 -0.4333  1.4564
 2591TIP3   OH229263   3.584   5.016  12.052  0.2902  0.7303  0.1497
 2591TIP3    H129264   3.585   5.053  12.141 -1.0557  0.5290  0.2627
 2591TIP3    H229265   3.521   5.069  12.004  1.2278  1.0274 -0.8001
 2592TIP3   OH229266   2.961   4.081  11.718 -0.1314  0.3484 -0.0799
 2592TIP3    H129267   3.035   4.038  11.674 -0.0358  0.0828  0.3400
 2592TIP3    H229268   2.979   4.175  11.706  0.4535  0.2948  0.2942
 2593TIP3   OH229269   1.764   2.996  16.446  0.1291 -0.2964 -0.3788
 2593TIP3    H129270   1.733   2.923  16.500 -0.4289  0.3682  0.2288
 2593TIP3    H229271   1.822   2.956  16.381  3.3164 -0.8414  2.5295
 2594TIP3   OH229272   2.882   1.463   2.958  0.4463 -0.0097 -0.2625
 2594TIP3    H129273   2.959   1.431   3.006 -0.6701 -1.4202  0.6556
 2594TIP3    H229274   2.862   1.392   2.896 -0.0542  0.3872 -0.5581
 2595TIP3   OH229275   4.570   3.461  12.205 -0.0804 -0.2034  0.2629
 2595TIP3    H129276   4.572   3.395  12.275  3.2459  0.7116  1.2295
 2595TIP3    H229277   4.564   3.545  12.251 -0.5749  0.3198 -0.7263
 2596TIP3   OH229278   2.325   3.866   2.781  0.2816 -0.2573 -0.3452
 2596TIP3    H129279   2.341   3.833   2.869  1.2801  1.6873  0.2563
 2596TIP3    H229280   2.231   3.886   2.779  0.0048 -1.4410 -0.1718
 2597TIP3   OH229281   5.593   4.788  16.969  0.0976  0.4187  0.1618
 2597TIP3    H129282   5.634   4.803  16.884 -1.3536  1.8295 -0.3311
 2597TIP3    H229283   5.654   4.826  17.032  0.0523  1.5651 -0.4690
 2598TIP3   OH229284   3.209   0.920   6.112 -0.2815 -0.1540 -0.0456
 2598TIP3    H129285   3.186   1.012   6.104 -0.8073 -0.3827 -1.4999
 2598TIP3    H229286   3.266   0.916   6.189  0.6812  1.5576 -0.6199
 2599TIP3   OH229287   2.277   4.139  14.357  0.3482  0.3216  0.3102
 2599TIP3    H129288   2.316   4.206  14.300 -1.4774 -0.2229 -1.7288
 2599TIP3    H229289   2.182   4.151  14.347 -0.0254 -1.5676  1.1090
 2600TIP3   OH229290   2.288   2.717   5.836  0.4960  0.4936 -0.3900
 2600TIP3    H129291   2.206   2.741   5.792  0.4019 -0.5468 -0.7977
 2600TIP3    H229292   2.278   2.752   5.925  0.0369  1.2608 -0.7344
 2601TIP3   OH229293   5.644   2.998  12.086 -0.5440  0.2179  0.1335
 2601TIP3    H129294   5.616   3.018  11.997 -0.5538 -1.1667 -0.2104
 2601TIP3    H229295   5.564   2.970  12.131 -0.2169 -1.1300 -0.0662
 2602TIP3   OH229296   4.344   1.168  11.603  0.3518  0.5290  0.1176
 2602TIP3    H129297   4.309   1.253  11.627 -2.2410 -0.7581  1.2936
 2602TIP3    H229298   4.382   1.134  11.684  0.7433  0.2689 -0.1697
 2603TIP3   OH229299   4.992   4.574  14.260  0.0192 -0.4756 -0.3901
 2603TIP3    H129300   5.032   4.643  14.208 -1.3923  1.6380  1.1488
 2603TIP3    H229301   4.898   4.586  14.248 -0.3969  0.4262  2.8422
 2604TIP3   OH229302   1.603   5.350   0.228 -0.9185  0.1424  0.3997
 2604TIP3    H129303   1.580   5.383   0.141  2.6699  1.3593 -0.2800
 2604TIP3    H229304   1.674   5.288   0.212  2.1173  2.7209  2.4157
 2605TIP3   OH229305   3.102   2.287  14.534 -0.4138 -0.4922  0.5073
 2605TIP3    H129306   3.061   2.330  14.610 -0.7195 -0.1562  0.1563
 2605TIP3    H229307   3.097   2.352  14.464 -1.2667 -1.2387 -0.1555
 2606TIP3   OH229308   1.010   6.409   3.160 -0.6330  0.5827 -0.0984
 2606TIP3    H129309   0.927   6.443   3.128 -0.0709  0.9879 -1.1532
 2606TIP3    H229310   1.076   6.449   3.104  0.3079  0.5145  0.9252
 2607TIP3   OH229311   6.144   3.778   5.077  0.1466  0.0157  0.4832
 2607TIP3    H129312   6.170   3.867   5.056 -1.2590  0.1337 -1.0226
 2607TIP3    H229313   6.217   3.724   5.047  0.5390  0.5907  0.3920
 2608TIP3   OH229314   5.154   0.350  11.521  0.2817 -0.2038  0.3991
 2608TIP3    H129315   5.072   0.330  11.476  1.3767  1.3141 -2.5478
 2608TIP3    H229316   5.127   0.393  11.602 -1.8500  0.3857 -0.5516
 2609TIP3   OH229317   4.606   2.133  11.660  0.0382  0.4064  0.5664
 2609TIP3    H129318   4.521   2.168  11.631  0.6279  0.6605 -0.9390
 2609TIP3    H229319   4.654   2.210  11.691 -0.4237  0.1971  1.8851
 2610TIP3   OH229320   1.160   4.077  14.226 -0.5349  0.1775 -0.0172
 2610TIP3    H129321   1.232   4.099  14.166  0.2939 -1.5252  0.2913
 2610TIP3    H229322   1.176   4.132  14.303  0.3647 -0.0692 -0.0160
 2611TIP3   OH229323   6.169   1.403   1.091 -0.0677 -0.4687  0.5373
 2611TIP3    H129324   6.129   1.443   1.168 -0.1127  1.2622 -0.3265
 2611TIP3    H229325   6.099   1.351   1.052 -1.3273  1.8251 -0.4759
 2612TIP3   OH229326   2.398   1.224   6.564  0.1305 -0.4234  0.0383
 2612TIP3    H129327   2.389   1.306   6.515  3.0457 -0.3720 -0.6191
 2612TIP3    H229328   2.316   1.215   6.611 -1.7942  0.9603 -2.7335
 2613TIP3   OH229329   3.775   0.463   2.881  0.3708  0.0469  0.3887
 2613TIP3    H129330   3.817   0.378   2.893  0.3344 -0.1365 -0.6886
 2613TIP3    H229331   3.847   0.523   2.864  0.4106  0.2770  1.3152
 2614TIP3   OH229332   2.371   5.757  14.795 -0.1314 -0.2606  0.4384
 2614TIP3    H129333   2.405   5.688  14.738 -0.9547 -0.5191  0.2358
 2614TIP3    H229334   2.323   5.815  14.736 -0.8238 -0.4224  0.8232
 2615TIP3   OH229335   0.693   3.222  11.928 -0.6614  0.0241 -0.4436
 2615TIP3    H129336   0.623   3.288  11.928 -1.3111 -0.6340  0.3659
 2615TIP3    H229337   0.709   3.205  12.021 -0.5745 -1.0299 -0.6400
 2616TIP3   OH229338   1.038   2.255  14.976 -0.0393 -0.5386  0.1565
 2616TIP3    H129339   0.979   2.322  14.942  2.0475  0.9974 -0.5561
 2616TIP3    H229340   1.070   2.291  15.059  2.0049 -0.0649 -0.7988
 2617TIP3   OH229341   3.012   1.452  15.121  0.0041 -0.4936  0.2879
 2617TIP3    H129342   2.990   1.386  15.186  0.6016  0.9020  1.9865
 2617TIP3    H229343   2.930   1.466  15.073 -0.1619 -2.3064 -0.0249
 2618TIP3   OH229344   4.055   5.055   0.500  0.5633  0.0940  0.2484
 2618TIP3    H129345   4.062   5.128   0.561  0.6245  0.2185  0.0910
 2618TIP3    H229346   4.068   5.093   0.413  2.6174 -0.3859  0.2896
 2619TIP3   OH229347   0.896   0.016  15.566  0.0064 -0.0955 -0.5174
 2619TIP3    H129348   0.869   0.107  15.550 -1.8214 -0.8725 -2.3498
 2619TIP3    H229349   0.941  -0.010  15.486  0.3438 -0.8854 -0.0786
 2620TIP3   OH229350   1.249   3.850   1.434 -0.2660 -0.3402 -0.1654
 2620TIP3    H129351   1.224   3.767   1.393 -0.5781  0.2553 -1.2306
 2620TIP3    H229352   1.212   3.845   1.522 -0.3971 -1.2676 -0.2583
 2621TIP3   OH229353   6.412   2.877   6.381 -0.5131 -0.3029  0.6702
 2621TIP3    H129354   6.470   2.827   6.324 -1.6380 -0.7897 -0.0891
 2621TIP3    H229355   6.444   2.860   6.469  1.7860  1.1423  0.1970
 2622TIP3   OH229356   5.798   5.549   3.680  0.7465 -0.2414 -0.4872
 2622TIP3    H129357   5.766   5.636   3.704 -0.0023 -0.2278 -1.5108
 2622TIP3    H229358   5.722   5.492   3.688  1.3035 -0.8893  0.4884
 2623TIP3   OH229359   3.906   4.080   4.364 -0.2352  0.1670  0.4059
 2623TIP3    H129360   3.961   4.150   4.401 -0.7557  0.2604  1.0080
 2623TIP3    H229361   3.884   4.111   4.276 -1.8559  1.5658  1.2557
 2624TIP3   OH229362   6.134   6.026  11.201 -0.3774 -0.2080 -0.0034
 2624TIP3    H129363   6.136   6.119  11.180  0.7123 -0.6085 -1.8615
 2624TIP3    H229364   6.133   5.982  11.116 -0.3046 -1.9019  0.8342
 2625TIP3   OH229365   4.250   3.613   3.806 -0.1398 -0.0713 -0.0607
 2625TIP3    H129366   4.310   3.673   3.761 -0.6675  0.8913  0.4844
 2625TIP3    H229367   4.204   3.568   3.735  0.0498  0.3874 -0.4828
 2626TIP3   OH229368   0.619   5.599   1.098 -0.1251  0.0392  0.4954
 2626TIP3    H129369   0.676   5.638   1.164  0.6761  0.9024 -0.6668
 2626TIP3    H229370   0.664   5.518   1.072  0.7053  0.8020 -0.5390
 2627TIP3   OH229371   0.031   5.566  15.369 -0.3009  0.6351 -0.3864
 2627TIP3    H129372  -0.048   5.516  15.349 -0.5626  1.0148 -0.3218
 2627TIP3    H229373   0.071   5.521  15.443 -0.9054  0.9187  0.1153
 2628TIP3   OH229374   3.209   0.446  14.984 -0.3224  0.1849  0.2263
 2628TIP3    H129375   3.251   0.424  15.066  2.6313  1.0075 -0.9554
 2628TIP3    H229376   3.240   0.379  14.922 -1.4449  0.3407 -0.5397
 2629TIP3   OH229377   0.545   0.272  16.938  0.2458 -0.2649 -0.4585
 2629TIP3    H129378   0.522   0.350  16.888  0.7559 -0.2441 -0.6698
 2629TIP3    H229379   0.580   0.212  16.872 -1.7466 -1.3586 -0.6089
 2630TIP3   OH229380   4.561   0.714   3.702 -0.9042  0.2686  0.0638
 2630TIP3    H129381   4.600   0.641   3.749 -0.2623  1.0293  0.7393
 2630TIP3    H229382   4.627   0.740   3.637 -0.4545  1.2287  0.8699
 2631TIP3   OH229383   6.806   5.207  14.374  0.3070  0.5872 -0.0106
 2631TIP3    H129384   6.874   5.221  14.308 -1.1104 -0.1896 -1.7145
 2631TIP3    H229385   6.782   5.295  14.403 -0.3671  1.0932 -1.9766
 2632TIP3   OH229386   2.653   2.800   4.514 -0.8283  0.2114  0.7442
 2632TIP3    H129387   2.731   2.851   4.491 -1.4075  1.6946  1.9206
 2632TIP3    H229388   2.672   2.765   4.601 -0.8067 -0.8386  0.3238
 2633TIP3   OH229389   4.879   2.707   1.502 -0.6911 -0.4653  0.0752
 2633TIP3    H129390   4.898   2.653   1.425 -0.1459  0.3997 -0.4078
 2633TIP3    H229391   4.962   2.711   1.550 -1.3962 -2.3224  1.6042
 2634TIP3   OH229392   3.713   3.131   2.159  0.3373 -0.1646 -0.5339
 2634TIP3    H129393   3.727   3.191   2.232  0.0750  1.4038 -1.7039
 2634TIP3    H229394   3.768   3.166   2.089 -2.5756  1.0099 -2.4568
 2635TIP3   OH229395   2.802   3.228  16.260  0.3138 -0.3330  0.0410
 2635TIP3    H129396   2.881   3.266  16.300  0.4850 -0.3078 -0.3208
 2635TIP3    H229397   2.791   3.275  16.178 -1.1781  1.0078  0.9486
 2636TIP3   OH229398   4.132   5.757   6.812 -0.4338 -0.0661  0.4266
 2636TIP3    H129399   4.040   5.754   6.788 -0.4028 -0.5351  0.3639
 2636TIP3    H229400   4.179   5.730   6.733 -0.2383  0.2680  0.4277
 2637TIP3   OH229401   6.012   4.996   3.166 -0.6328  0.0002 -0.1688
 2637TIP3    H129402   6.102   4.972   3.145 -0.3903  0.2693  0.5467
 2637TIP3    H229403   5.959   4.926   3.128 -0.0100 -1.1330  0.9700
 2638TIP3   OH229404   0.037   6.771   4.151 -0.2167  0.0640 -0.2118
 2638TIP3    H129405   0.115   6.827   4.144 -1.7266  2.1988 -0.9605
 2638TIP3    H229406  -0.010   6.805   4.228 -1.0357 -0.3459 -0.5238
 2639TIP3   OH229407   2.328   2.966   1.298 -0.5060 -0.2359  0.5323
 2639TIP3    H129408   2.303   2.951   1.389 -1.4321 -1.2032  0.1549
 2639TIP3    H229409   2.290   2.891   1.251  1.0006 -0.4252 -0.4751
 2640TIP3   OH229410   5.677   6.021   2.348 -0.4182 -0.0872 -0.1626
 2640TIP3    H129411   5.707   6.043   2.436  0.1360 -0.5755 -0.2215
 2640TIP3    H229412   5.757   6.007   2.298 -0.7216  0.7858 -0.9108
 2641TIP3   OH229413   2.250   2.083  17.112  0.7955  0.0437  0.5049
 2641TIP3    H129414   2.260   2.026  17.188  0.5553 -1.7388 -0.7198
 2641TIP3    H229415   2.170   2.133  17.130  0.7409 -0.3571  1.4163
 2642TIP3   OH229416   6.288   6.550   4.990 -0.1189  0.3759 -0.8202
 2642TIP3    H129417   6.382   6.541   4.980  0.3108  0.8782  1.8990
 2642TIP3    H229418   6.277   6.614   5.061 -2.3998 -1.4743  0.6745
 2643TIP3   OH229419   0.699   5.359  14.306  0.4135  0.1045 -0.1754
 2643TIP3    H129420   0.689   5.441  14.353 -2.8790 -0.7450  0.8681
 2643TIP3    H229421   0.745   5.301  14.367  2.5334  1.0129 -0.8280
 2644TIP3   OH229422   5.976   4.422  12.804 -0.2448  0.1041 -0.8721
 2644TIP3    H129423   5.956   4.488  12.738  0.8746  1.3523 -0.0183
 2644TIP3    H229424   6.072   4.421  12.809 -0.3127  0.3371  0.9989
 2645TIP3   OH229425   0.403   4.624  14.298  0.1995  0.1218  0.1044
 2645TIP3    H129426   0.385   4.717  14.285  0.1068  0.0955  0.0475
 2645TIP3    H229427   0.488   4.610  14.255  1.1487  0.5887  1.7391
 2646TIP3   OH229428   6.419   2.328  17.102 -0.1734 -0.1760 -0.7224
 2646TIP3    H129429   6.450   2.333  17.192 -3.4250 -0.2410  0.5353
 2646TIP3    H229430   6.479   2.384  17.053  2.9704 -1.7383  0.9773
 2647TIP3   OH229431   5.363   5.242   5.326 -0.3385  0.6815  0.1025
 2647TIP3    H129432   5.368   5.314   5.263  0.4114 -1.2706 -2.2270
 2647TIP3    H229433   5.341   5.165   5.273  2.1236 -1.4418  1.8621
 2648TIP3   OH229434   3.838   0.824   4.483 -0.2569 -0.2692 -0.2688
 2648TIP3    H129435   3.903   0.856   4.546  0.3744 -1.2237 -0.4010
 2648TIP3    H229436   3.815   0.901   4.431 -0.4422  0.4350  0.8233
 2649TIP3   OH229437   4.050   2.553  15.679  0.5917  0.0663  0.0388
 2649TIP3    H129438   4.075   2.584  15.766  1.6661 -0.6681  0.0071
 2649TIP3    H229439   4.114   2.485  15.658 -0.2809 -0.5068 -0.8845
 2650TIP3   OH229440   1.280   3.171  14.434  0.4625  0.0514 -0.0476
 2650TIP3    H129441   1.367   3.139  14.459  0.4997 -0.5140 -0.8489
 2650TIP3    H229442   1.244   3.100  14.380 -0.4847  0.2952  0.2572
 2651TIP3   OH229443   3.818   5.177  13.444  0.6044 -0.4840 -0.2106
 2651TIP3    H129444   3.785   5.092  13.414  0.5975  0.0610 -1.8053
 2651TIP3    H229445   3.778   5.240  13.385  1.5712  0.5290  0.2022
 2652TIP3   OH229446   6.524   4.566  15.266  0.0719 -0.3638 -0.8539
 2652TIP3    H129447   6.592   4.572  15.333  0.1520 -3.5200 -0.5059
 2652TIP3    H229448   6.444   4.547  15.314  0.0312 -2.1428 -1.5577
 2653TIP3   OH229449   5.493   5.448  11.303  0.3280 -0.6481 -0.2595
 2653TIP3    H129450   5.533   5.521  11.350  1.2115 -1.7101  0.6678
 2653TIP3    H229451   5.399   5.468  11.306  0.4971  0.1255  0.5489
 2654TIP3   OH229452   3.522   3.662   5.161 -0.0742  0.5153 -0.1164
 2654TIP3    H129453   3.492   3.586   5.112 -0.3613 -0.8117  1.9921
 2654TIP3    H229454   3.442   3.705   5.191  0.0641  0.0054  1.0488
 2655TIP3   OH229455   5.416   6.067  12.198 -0.0147  0.4350  0.3420
 2655TIP3    H129456   5.397   6.161  12.196 -0.1851  0.3935 -0.0523
 2655TIP3    H229457   5.510   6.062  12.217 -0.4099  0.6402  2.6598
 2656TIP3   OH229458   3.591   1.135   2.709 -0.5201 -0.3762 -0.0679
 2656TIP3    H129459   3.648   1.181   2.647 -0.0453 -0.1986  0.4912
 2656TIP3    H229460   3.645   1.123   2.787 -1.2889 -0.0974  0.5205
 2657TIP3   OH229461   2.073   2.234   2.415 -0.3467 -0.0294 -0.2396
 2657TIP3    H129462   2.100   2.204   2.502 -2.0861  1.3958  0.8659
 2657TIP3    H229463   1.986   2.271   2.429  0.0811  1.9089 -2.2338
 2658TIP3   OH229464   0.093   2.383   0.883  0.0462  0.7859 -0.4223
 2658TIP3    H129465   0.167   2.353   0.830 -0.3366  0.4203 -0.7610
 2658TIP3    H229466   0.101   2.333   0.965  0.8649  1.6398  0.0389
 2659TIP3   OH229467   3.137   0.916   0.852 -0.0456 -0.1789  0.5737
 2659TIP3    H129468   3.218   0.866   0.865  1.0379  1.6797  1.3205
 2659TIP3    H229469   3.164   0.992   0.799 -1.9477 -1.0860 -1.9306
 2660TIP3   OH229470   4.091   0.014  12.728  0.4932  0.4937  0.1693
 2660TIP3    H129471   4.154   0.073  12.686  0.1629  1.0087  0.3789
 2660TIP3    H229472   4.030   0.073  12.773 -0.5225  0.0350 -0.5658
 2661TIP3   OH229473   6.589   1.329  13.705 -0.4382 -0.2840  0.0961
 2661TIP3    H129474   6.572   1.402  13.646 -1.8158 -1.0907 -0.5680
 2661TIP3    H229475   6.648   1.364  13.772 -1.3832  1.5463  0.0273
 2662TIP3   OH229476   1.779   1.657   0.514  0.3936 -0.3186 -0.4552
 2662TIP3    H129477   1.752   1.593   0.448  1.2910 -2.0914  0.8136
 2662TIP3    H229478   1.742   1.624   0.596  2.3484 -0.1960  0.5336
 2663TIP3   OH229479   5.915   2.464  11.205 -0.2368 -0.1518 -0.3034
 2663TIP3    H129480   5.977   2.401  11.242 -0.5095  0.4850  1.3006
 2663TIP3    H229481   5.930   2.544  11.255 -0.2490  0.9370 -1.9600
 2664TIP3   OH229482   0.519   1.511   3.342  0.3248 -0.2978 -0.6468
 2664TIP3    H129483   0.465   1.484   3.416  0.9347 -0.4523 -0.2480
 2664TIP3    H229484   0.462   1.501   3.266 -0.4356  0.2077 -0.1703
 2665TIP3   OH229485   6.486   6.183   5.240  0.0523 -0.3690  0.6417
 2665TIP3    H129486   6.516   6.250   5.179  0.4503 -0.7450  0.4164
 2665TIP3    H229487   6.409   6.221   5.282  0.4445  0.3378  0.7325
 2666TIP3   OH229488   0.686   4.436  13.916  0.0036 -0.6341 -0.2850
 2666TIP3    H129489   0.700   4.342  13.912  2.1340 -0.3464 -1.7076
 2666TIP3    H229490   0.753   4.468  13.977 -1.1458 -0.0816  0.7298
 2667TIP3   OH229491   0.247   2.359   2.346  0.3103  0.1289 -0.6369
 2667TIP3    H129492   0.271   2.330   2.434  1.7368  0.8913 -0.7503
 2667TIP3    H229493   0.284   2.293   2.287  1.6425  0.9544 -0.7746
 2668TIP3   OH229494   6.524   6.411   1.255 -0.2425  0.4181  0.3188
 2668TIP3    H129495   6.518   6.315   1.257  0.1996  0.2555 -2.3751
 2668TIP3    H229496   6.433   6.441   1.263 -0.4704 -0.2545  0.3324
 2669TIP3   OH229497   4.104   4.889  13.343  0.2342 -0.0143 -0.1052
 2669TIP3    H129498   4.179   4.944  13.364  1.4298 -1.1268 -1.3293
 2669TIP3    H229499   4.073   4.922  13.259 -0.0418 -0.1800 -0.0699
 2670TIP3   OH229500   1.066   4.238   3.451  0.3716  0.4120 -0.1546
 2670TIP3    H129501   1.104   4.152   3.465  0.4281  0.4065 -0.3464
 2670TIP3    H229502   1.141   4.297   3.442  0.3954  0.8537  2.0962
 2671TIP3   OH229503   5.371   3.689   0.447 -0.2426 -0.3197 -0.1285
 2671TIP3    H129504   5.306   3.752   0.418  0.3460 -0.3804 -1.6756
 2671TIP3    H229505   5.342   3.606   0.408 -0.2651 -0.7330  0.7509
 2672TIP3   OH229506   2.532   0.643  13.255  0.0134 -0.0098  0.1089
 2672TIP3    H129507   2.437   0.627  13.257 -0.3371  1.8926  0.4836
 2672TIP3    H229508   2.565   0.579  13.192 -1.4948 -0.7731  0.0222
 2673TIP3   OH229509   4.241   3.745  15.704  0.4109  0.3184  0.5155
 2673TIP3    H129510   4.264   3.806  15.775  2.5648 -0.7150  0.7840
 2673TIP3    H229511   4.231   3.660  15.748  1.2749 -0.2394 -0.3321
 2674TIP3   OH229512   4.043   3.720  15.493 -0.7911 -0.2256 -0.1277
 2674TIP3    H129513   4.078   3.717  15.404  0.1352 -3.1246  0.2102
 2674TIP3    H229514   4.120   3.729  15.549 -1.3566  1.4760  0.4289
 2675TIP3   OH229515   5.563   6.471   3.309 -0.3244 -0.1079  0.1045
 2675TIP3    H129516   5.589   6.513   3.227 -1.4068 -0.0885 -0.2419
 2675TIP3    H229517   5.618   6.513   3.376 -0.8824  1.3808 -0.3366
 2676TIP3   OH229518   4.239   6.554  14.635 -0.0049  0.0378 -0.1630
 2676TIP3    H129519   4.146   6.531  14.642 -0.1501  0.8507  0.7046
 2676TIP3    H229520   4.260   6.598  14.717  0.9607  0.5364 -0.6518
 2677TIP3   OH229521   3.664   2.448   5.512  0.0355  0.7258  0.3889
 2677TIP3    H129522   3.662   2.537   5.476  0.2677  1.1987  1.5052
 2677TIP3    H229523   3.706   2.457   5.598  0.7980 -0.5902  0.1914
 2678TIP3   OH229524   3.643   5.294   0.702  0.1703 -0.1389 -0.0284
 2678TIP3    H129525   3.554   5.322   0.685  0.1517  1.2189  1.9324
 2678TIP3    H229526   3.637   5.199   0.714 -0.7019 -0.2929 -1.5231
 2679TIP3   OH229527   1.401   0.573   4.079 -0.1860 -0.3492 -0.2191
 2679TIP3    H129528   1.323   0.581   4.024  0.6069  0.1831 -1.3003
 2679TIP3    H229529   1.474   0.579   4.018  0.7457  0.9177  0.9658
 2680TIP3   OH229530   5.307   2.522  15.041  0.3157  0.2116 -0.2405
 2680TIP3    H129531   5.373   2.541  14.975  0.1130 -0.0556 -0.5233
 2680TIP3    H229532   5.228   2.567  15.010  0.3947  0.6427  0.1639
 2681TIP3   OH229533   2.619   5.200  14.864  0.2037 -0.4175 -0.0915
 2681TIP3    H129534   2.603   5.107  14.879  2.3572 -0.7740  0.3524
 2681TIP3    H229535   2.621   5.238  14.952 -0.5738  0.0517 -0.2669
 2682TIP3   OH229536   3.017   5.266   0.157 -0.0764  0.2615 -0.2831
 2682TIP3    H129537   3.100   5.234   0.123  0.3785  1.4818 -0.3578
 2682TIP3    H229538   2.950   5.216   0.109  0.5951 -0.0803 -0.8706
 2683TIP3   OH229539   5.463   0.234   5.197 -0.1318 -0.0342 -0.6237
 2683TIP3    H129540   5.381   0.229   5.149 -0.5940  0.4338  0.0972
 2683TIP3    H229541   5.523   0.176   5.149 -1.2085 -1.3035 -0.4993
 2684TIP3   OH229542   5.666   4.784   2.473 -0.5888  0.1409 -0.1435
 2684TIP3    H129543   5.670   4.747   2.385 -0.7886 -1.9067  0.6422
 2684TIP3    H229544   5.700   4.714   2.529 -0.6110  1.3404  1.4312
 2685TIP3   OH229545   4.878   3.623   1.837 -0.2241 -0.0475  0.3277
 2685TIP3    H129546   4.972   3.628   1.859  0.1270 -0.1692 -1.0842
 2685TIP3    H229547   4.874   3.641   1.744 -1.9696  3.2453  0.9048
 2686TIP3   OH229548   3.793   3.528   5.642 -0.1009 -0.0230  0.3136
 2686TIP3    H129549   3.797   3.606   5.698 -2.2723  0.0590  0.4499
 2686TIP3    H229550   3.738   3.554   5.568 -1.0986 -1.4637  0.4918
 2687TIP3   OH229551   1.047   4.093  13.813 -0.1093 -0.5164 -0.1405
 2687TIP3    H129552   1.027   4.126  13.725 -0.5179 -1.9269 -0.6026
 2687TIP3    H229553   1.142   4.087  13.815  0.0152  1.0185  0.1059
 2688TIP3   OH229554   3.945   4.820  16.830  0.1582 -0.4637  0.3931
 2688TIP3    H129555   3.858   4.801  16.794 -0.3256  0.6666  0.9026
 2688TIP3    H229556   3.962   4.748  16.890 -2.6176  1.5208  4.0304
 2689TIP3   OH229557   5.581   4.732  13.617  0.2777 -0.3089 -0.1652
 2689TIP3    H129558   5.565   4.826  13.603 -1.0523 -0.3356  0.9249
 2689TIP3    H229559   5.666   4.716  13.577  1.3246  1.7255  1.0799
 2690TIP3   OH229560   5.087   0.910   2.651 -0.1545  0.2923 -0.5034
 2690TIP3    H129561   5.071   0.928   2.559 -1.9208 -0.4220 -0.3734
 2690TIP3    H229562   5.157   0.845   2.652  0.7772  1.2459 -1.2549
 2691TIP3   OH229563   2.160   0.309  13.531 -0.1150  0.4245 -0.4459
 2691TIP3    H129564   2.138   0.227  13.487  0.5361 -0.0513  0.0931
 2691TIP3    H229565   2.076   0.354  13.542 -0.6975 -0.8510  0.5955
 2692TIP3   OH229566   6.770   3.758  11.560  0.5061 -0.2767  0.1163
 2692TIP3    H129567   6.678   3.745  11.582  0.1160 -1.8806 -2.0428
 2692TIP3    H229568   6.811   3.674  11.579  0.7926 -0.6428 -1.8957
 2693TIP3   OH229569   3.718   3.621  15.264 -0.2754 -0.0688 -0.2151
 2693TIP3    H129570   3.796   3.647  15.214  0.7744 -1.3277  0.6743
 2693TIP3    H229571   3.715   3.526  15.256 -0.0067 -0.3459  2.1050
 2694TIP3   OH229572   2.415   3.101  12.258 -0.5190 -0.2367 -0.0902
 2694TIP3    H129573   2.482   3.108  12.191  2.5614  0.7013  2.8169
 2694TIP3    H229574   2.393   3.008  12.261  0.6031 -0.5605 -1.1430
 2695TIP3   OH229575   1.985   1.982  15.681  0.2653 -0.1197  0.6921
 2695TIP3    H129576   1.912   1.979  15.744 -0.0649  1.5587  0.4471
 2695TIP3    H229577   2.062   1.999  15.734  0.0858  0.6243  0.7260
 2696TIP3   OH229578   0.376   1.714   2.424  0.4920 -0.0937 -0.8923
 2696TIP3    H129579   0.341   1.747   2.506  2.8284 -0.3579  0.3143
 2696TIP3    H229580   0.319   1.641   2.401 -1.5308  1.3817 -0.7319
 2697TIP3   OH229581   0.659   4.580   3.887  0.6573 -0.1208  0.7426
 2697TIP3    H129582   0.595   4.535   3.832 -0.8767  3.1479 -0.4298
 2697TIP3    H229583   0.744   4.545   3.858 -0.3116 -0.9171 -1.3660
 2698TIP3   OH229584   0.477   2.745   0.235  0.0087 -0.6831  0.0533
 2698TIP3    H129585   0.399   2.786   0.197 -0.0787 -1.0812 -0.2015
 2698TIP3    H229586   0.532   2.819   0.262  0.0963 -0.3879 -0.8958
 2699TIP3   OH229587   6.839   2.646  13.914 -0.1321  0.0162 -0.2489
 2699TIP3    H129588   6.761   2.680  13.958 -0.6733 -1.1916 -0.2279
 2699TIP3    H229589   6.907   2.710  13.933 -1.2597  1.4759 -0.8422
 2700TIP3   OH229590   4.122   1.958   6.196  0.4033 -0.1937  0.2329
 2700TIP3    H129591   4.119   1.960   6.292 -1.8471 -1.2941  0.2765
 2700TIP3    H229592   4.046   2.010   6.169  1.0126  0.1069 -0.9551
 2701TIP3   OH229593   0.410   4.770   3.070 -0.3254 -0.3923 -0.2131
 2701TIP3    H129594   0.501   4.783   3.045 -0.2264 -0.5032  0.0809
 2701TIP3    H229595   0.391   4.844   3.128 -0.2966 -0.5964  0.0566
 2702TIP3   OH229596   6.772   4.513   6.039  0.1244  0.2743 -0.0642
 2702TIP3    H129597   6.811   4.541   5.956 -1.9249 -0.3952 -1.3221
 2702TIP3    H229598   6.830   4.548   6.106  1.3407  1.6416 -1.7570
 2703TIP3   OH229599   0.199   4.950   5.008  0.7478  0.3481 -0.1565
 2703TIP3    H129600   0.290   4.936   4.981  1.7091 -1.4996  3.3611
 2703TIP3    H229601   0.196   4.916   5.098 -3.8510 -1.1795 -0.6636
 2704TIP3   OH229602   0.546   3.725   5.740 -0.3831 -0.0604  0.6894
 2704TIP3    H129603   0.503   3.727   5.825 -1.5900 -1.3241  0.1470
 2704TIP3    H229604   0.637   3.702   5.759 -1.0017 -1.9502  1.5412
 2705TIP3   OH229605   1.400   4.786  16.022  0.4805  0.4152  0.2383
 2705TIP3    H129606   1.464   4.809  16.090  0.6665 -0.5493  0.4090
 2705TIP3    H229607   1.375   4.696  16.043  0.6360  0.0513 -1.0463
 2706TIP3   OH229608   4.951   4.396   3.107 -0.0416 -0.1056  0.4686
 2706TIP3    H129609   5.030   4.447   3.126  1.0417 -1.6254  0.2358
 2706TIP3    H229610   4.925   4.360   3.192 -0.2778  0.1114  0.4878
 2707TIP3   OH229611   4.700   3.765   2.095  0.2015  0.2907 -0.1304
 2707TIP3    H129612   4.675   3.682   2.136  1.0665  1.0012  1.9967
 2707TIP3    H229613   4.652   3.832   2.144  0.3815  1.1248 -1.0587
 2708TIP3   OH229614   0.847   5.757   4.906 -0.4140 -0.4699 -0.0910
 2708TIP3    H129615   0.854   5.826   4.840  0.9747 -0.6613 -0.1637
 2708TIP3    H229616   0.892   5.793   4.983 -0.9022 -0.7562  0.3358
 2709TIP3   OH229617   5.667   6.629   3.522  0.1471 -0.4227  0.5869
 2709TIP3    H129618   5.617   6.686   3.580 -0.5209 -0.8850  0.4833
 2709TIP3    H229619   5.749   6.613   3.568  0.6401  1.1406  0.3290
 2710TIP3   OH229620   1.390   3.864  14.622  0.1647  0.4123  0.4258
 2710TIP3    H129621   1.485   3.864  14.620  0.1912 -1.5159 -0.7919
 2710TIP3    H229622   1.363   3.892  14.534 -0.3597  0.0341  0.4572
 2711TIP3   OH229623   5.231   1.416   4.083 -0.0797  0.0798  0.7246
 2711TIP3    H129624   5.298   1.460   4.031  0.0413 -0.5113  0.3721
 2711TIP3    H229625   5.274   1.399   4.167  0.9019 -2.0195 -0.1229
 2712TIP3   OH229626   1.214   3.360   1.223  0.1278  0.4872 -0.0334
 2712TIP3    H129627   1.145   3.298   1.244  1.7269 -1.1924  0.5941
 2712TIP3    H229628   1.291   3.327   1.271  2.0284  0.8099 -2.6406
 2713TIP3   OH229629   0.482   3.320   5.261 -0.4099 -0.2930 -0.0877
 2713TIP3    H129630   0.427   3.267   5.204 -0.5073 -0.3392  0.0476
 2713TIP3    H229631   0.437   3.318   5.346 -0.8548  0.6761 -0.2805
 2714TIP3   OH229632   0.690   4.562  13.159  0.4444 -0.4507 -0.0719
 2714TIP3    H129633   0.603   4.527  13.139  0.5027 -1.0086  0.6117
 2714TIP3    H229634   0.683   4.656  13.143 -0.0895 -0.5867 -0.6810
 2715TIP3   OH229635   3.305   5.336  12.243 -0.6133  0.2495 -0.5820
 2715TIP3    H129636   3.228   5.382  12.277 -0.3007  1.6401 -1.6639
 2715TIP3    H229637   3.269   5.275  12.177 -0.8657  0.2303 -0.4280
 2716TIP3   OH229638   4.747   5.858  14.328  0.5077  0.0620  0.0378
 2716TIP3    H129639   4.688   5.867  14.404  0.9305  0.9397  0.2802
 2716TIP3    H229640   4.689   5.835  14.256  0.0605 -0.5199  0.5741
 2717TIP3   OH229641   5.652   1.439  13.815 -0.2750 -0.1060 -0.2160
 2717TIP3    H129642   5.614   1.455  13.902 -0.0675  0.3766 -0.2114
 2717TIP3    H229643   5.676   1.346  13.816  0.8435  0.1724  0.6865
 2718TIP3   OH229644   3.442   3.922   5.411 -0.1521 -0.1453 -0.1392
 2718TIP3    H129645   3.495   3.970   5.348  0.1162 -0.6823 -0.3270
 2718TIP3    H229646   3.398   3.855   5.359 -0.9952  0.2637  0.0148
 2719TIP3   OH229647   4.226   5.561   0.528  0.2111  0.1897  0.0327
 2719TIP3    H129648   4.232   5.477   0.574  0.6173  0.9064  1.3502
 2719TIP3    H229649   4.276   5.548   0.448  1.7100 -0.3345  1.0161
 2720TIP3   OH229650   5.011   5.025   1.779  0.1095 -0.1067 -0.4315
 2720TIP3    H129651   5.049   4.963   1.716 -0.6262 -0.4230 -0.5745
 2720TIP3    H229652   5.002   4.974   1.860  0.8470  0.2355 -0.1305
 2721TIP3   OH229653   2.408   5.936   2.635 -0.0400  0.4944 -1.1810
 2721TIP3    H129654   2.503   5.939   2.628 -0.0478  1.3226 -0.9966
 2721TIP3    H229655   2.390   5.956   2.727 -0.4112  0.7672 -1.3107
 2722TIP3   OH229656   0.218   6.642  16.536  0.2750 -0.4127  0.1365
 2722TIP3    H129657   0.290   6.635  16.598  0.8194 -0.2614 -0.4724
 2722TIP3    H229658   0.224   6.731  16.502 -0.3222 -0.3338  0.2273
 2723TIP3   OH229659   0.965   0.930  14.377  0.2740  0.1376 -0.1730
 2723TIP3    H129660   1.035   0.990  14.404 -0.6210  0.7822  0.8194
 2723TIP3    H229661   0.988   0.905  14.288  1.3891  0.8943 -0.1239
 2724TIP3   OH229662   1.844   4.188  16.104  0.3710 -0.1034  0.2286
 2724TIP3    H129663   1.867   4.279  16.085 -0.4106 -0.2147 -1.4328
 2724TIP3    H229664   1.926   4.140  16.091  0.8417  0.3694  1.3373
 2725TIP3   OH229665   6.815   5.310   1.770  0.2494 -0.3801  0.5382
 2725TIP3    H129666   6.871   5.235   1.787  0.7539  0.0409  0.7633
 2725TIP3    H229667   6.728   5.273   1.756  0.8057 -1.1568 -1.0813
 2726TIP3   OH229668   3.045   0.979   2.173  0.5083 -0.5952 -0.1701
 2726TIP3    H129669   3.054   0.932   2.256  1.1229 -0.6452 -0.2627
 2726TIP3    H229670   2.966   1.032   2.184  0.7262 -0.4071  0.5418
 2727TIP3   OH229671   1.168   5.220   2.251 -0.1035 -0.3907 -0.2561
 2727TIP3    H129672   1.083   5.226   2.208  0.3291  1.2648 -0.9856
 2727TIP3    H229673   1.192   5.312   2.268  0.9674 -0.8803  1.0811
 2728TIP3   OH229674   5.923   4.817   2.969 -0.0110 -0.6356 -0.2717
 2728TIP3    H129675   5.898   4.727   2.992  1.0625 -0.4445  2.0534
 2728TIP3    H229676   6.017   4.810   2.950  0.6238  0.2155  2.0990
 2729TIP3   OH229677   5.008   1.303   2.531 -0.2748  0.5083  0.0824
 2729TIP3    H129678   4.992   1.265   2.444 -0.3286 -0.8541  0.6661
 2729TIP3    H229679   5.090   1.352   2.520 -0.5740  0.8215 -0.8740
 2730TIP3   OH229680   3.507   4.028   5.170 -0.2592  0.2211  0.2085
 2730TIP3    H129681   3.476   3.946   5.131 -0.9721 -0.8422  2.7800
 2730TIP3    H229682   3.470   4.097   5.115  1.4701 -1.0682 -2.8720
 2731TIP3   OH229683   2.123   3.903  11.989  0.1474 -0.4247  0.4003
 2731TIP3    H129684   2.155   3.920  12.078  0.1033 -1.4947  0.6260
 2731TIP3    H229685   2.199   3.870  11.942  0.3686  0.8610 -0.1924
 2732TIP3   OH229686   0.749   6.221   0.786  0.2441 -0.7249 -0.0128
 2732TIP3    H129687   0.776   6.297   0.736 -2.6081  0.9196  0.7160
 2732TIP3    H229688   0.818   6.208   0.851  1.2028  0.6862 -0.7143
 2733TIP3   OH229689   4.335   1.188   1.615  0.7981 -0.4730 -0.4470
 2733TIP3    H129690   4.251   1.168   1.656 -0.5199  2.1791 -1.6089
 2733TIP3    H229691   4.381   1.242   1.679  1.2807 -1.2020 -0.1633
 2734TIP3   OH229692   5.468   3.388   4.351  0.0676  0.2855 -0.2984
 2734TIP3    H129693   5.541   3.400   4.289  1.7211  1.5353  1.7506
 2734TIP3    H229694   5.391   3.420   4.304  0.9124 -0.4616 -2.3077
 2735TIP3   OH229695   3.476   4.203  11.408 -0.0802 -0.3068  0.1588
 2735TIP3    H129696   3.505   4.258  11.480 -2.4888  0.2557  0.7919
 2735TIP3    H229697   3.439   4.125  11.449 -0.2961 -0.5818 -0.5300
 2736TIP3   OH229698   1.948   2.296   2.860 -0.1558  0.3932  0.3473
 2736TIP3    H129699   1.872   2.271   2.912  1.2212 -0.5780  1.9906
 2736TIP3    H229700   1.941   2.391   2.851 -0.4663  0.5967  2.3128
 2737TIP3   OH229701   2.997   1.313  13.738  0.1680  0.0435  0.0849
 2737TIP3    H129702   3.036   1.400  13.725  1.4474 -0.8810 -3.3641
 2737TIP3    H229703   3.044   1.277  13.813  2.3177  0.9436 -0.7579
 2738TIP3   OH229704   5.514   5.395  16.759  0.2179  1.0457  0.2546
 2738TIP3    H129705   5.505   5.454  16.833 -1.5807  0.1145  0.8412
 2738TIP3    H229706   5.579   5.436  16.703  0.3940  2.6086  1.5418
 2739TIP3   OH229707   6.437   0.143   4.355 -0.7281 -0.2130 -0.1577
 2739TIP3    H129708   6.360   0.189   4.388 -1.0078 -0.3238 -0.6407
 2739TIP3    H229709   6.420   0.133   4.261  0.3379  0.6925 -0.4745
 2740TIP3   OH229710   6.616   4.914  13.717  0.5107 -0.2963 -0.4600
 2740TIP3    H129711   6.641   4.914  13.809  1.1961 -2.1572 -0.6002
 2740TIP3    H229712   6.560   4.991  13.707 -0.0284 -0.3638  1.6215
 2741TIP3   OH229713   2.579   0.118  13.322  0.5147  0.1214 -0.1474
 2741TIP3    H129714   2.521   0.182  13.363  1.3975  0.7149  0.2119
 2741TIP3    H229715   2.521   0.052  13.286 -0.3214 -1.8202  4.1619
 2742TIP3   OH229716   5.764   0.525  11.842 -0.0194 -0.2336  0.1448
 2742TIP3    H129717   5.857   0.509  11.855  0.1048  1.8909  2.6947
 2742TIP3    H229718   5.721   0.449  11.881  0.5840 -1.6483 -1.8174
 2743TIP3   OH229719   4.699   5.268  12.344  0.1012 -0.1591  0.5005
 2743TIP3    H129720   4.702   5.179  12.306 -0.1757  0.3103 -0.6667
 2743TIP3    H229721   4.673   5.324  12.271  2.4611  1.2118  0.5849
 2744TIP3   OH229722   6.798   1.472  13.303  0.0574 -0.0877 -0.3161
 2744TIP3    H129723   6.807   1.450  13.396  0.7705  0.4250 -0.2599
 2744TIP3    H229724   6.757   1.558  13.303  0.2014 -0.0183 -0.4755
 2745TIP3   OH229725   0.639   2.924  15.172  0.5442 -0.2955  0.2369
 2745TIP3    H129726   0.693   2.847  15.154  1.7543  0.1862  1.6213
 2745TIP3    H229727   0.702   2.992  15.196 -0.4689  1.2994 -1.4474
 2746TIP3   OH229728   1.073   1.658   3.828 -0.3839 -0.2080  0.2303
 2746TIP3    H129729   1.074   1.690   3.738  2.9896  0.4427  0.3675
 2746TIP3    H229730   0.989   1.686   3.863 -0.9644  1.2289 -2.1252
 2747TIP3   OH229731   4.668   5.741   3.026 -0.4085  0.4552 -0.3352
 2747TIP3    H129732   4.594   5.682   3.010  0.4148 -0.5482 -0.5120
 2747TIP3    H229733   4.707   5.755   2.940 -0.9241  1.7417 -0.3884
 2748TIP3   OH229734   0.602   0.735  11.117 -0.0941 -0.1076  0.0176
 2748TIP3    H129735   0.615   0.737  11.023  0.8954  1.7913  0.1603
 2748TIP3    H229736   0.690   0.743  11.154 -0.6750  2.2222  1.0564
 2749TIP3   OH229737   4.015   6.689  11.868  0.3999 -0.5016  0.6952
 2749TIP3    H129738   4.050   6.684  11.779  0.1696 -1.3626  0.6502
 2749TIP3    H229739   3.936   6.743  11.860  0.4497 -0.4740  0.4036
 2750TIP3   OH229740   3.236   1.382  16.964  0.1486 -0.2614 -0.0589
 2750TIP3    H129741   3.254   1.457  17.020  0.9570 -0.6504  0.2086
 2750TIP3    H229742   3.284   1.400  16.883 -1.8393  0.8040 -1.0924
 2751TIP3   OH229743   4.151   1.491  14.254 -0.2208 -0.0308 -0.6457
 2751TIP3    H129744   4.057   1.496  14.273 -0.2680 -1.0766 -0.5306
 2751TIP3    H229745   4.183   1.581  14.264 -0.6511 -0.0896  2.3808
 2752TIP3   OH229746   1.684   0.987  16.624  0.0799 -0.1336  0.4278
 2752TIP3    H129747   1.627   1.046  16.574  0.7344 -1.0633 -1.5437
 2752TIP3    H229748   1.772   1.023  16.611  0.1310  0.5450  2.3540
 2753TIP3   OH229749   5.447   1.448  16.331  0.2163  0.4407 -0.2738
 2753TIP3    H129750   5.474   1.521  16.276 -1.7920  1.8868  0.5376
 2753TIP3    H229751   5.363   1.475  16.368 -0.2387 -1.9687  0.6824
 2754TIP3   OH229752   4.950   1.144  11.986  0.0430  0.2543  0.2943
 2754TIP3    H129753   4.860   1.116  12.005  0.1282 -1.5270 -1.5635
 2754TIP3    H229754   5.005   1.080  12.031  0.2892 -0.7519 -1.3539
 2755TIP3   OH229755   0.563   6.464   0.283  0.2289 -0.1515  0.4066
 2755TIP3    H129756   0.654   6.486   0.301 -0.0550  0.8766  0.6631
 2755TIP3    H229757   0.559   6.452   0.188  0.7116 -0.6504  0.4429
 2756TIP3   OH229758   3.445   1.234  15.317 -0.1764 -0.1405 -0.4832
 2756TIP3    H129759   3.492   1.317  15.315 -2.0476  0.9535 -1.4844
 2756TIP3    H229760   3.485   1.182  15.248 -0.3084  0.7184 -1.2326
 2757TIP3   OH229761   1.438   5.542   5.685 -0.2238  0.1292  0.0024
 2757TIP3    H129762   1.404   5.456   5.709 -1.0663  0.1471 -1.0667
 2757TIP3    H229763   1.374   5.604   5.720  0.3264  0.3308  0.6775
 2758TIP3   OH229764   1.562   1.439  11.785  0.3786  0.2509  0.4668
 2758TIP3    H129765   1.613   1.469  11.861  0.5914 -1.1129  0.8989
 2758TIP3    H229766   1.478   1.411  11.822 -0.4211  1.7752 -0.1419
 2759TIP3   OH229767   0.498   2.985  12.293 -0.4381 -0.1799 -0.0396
 2759TIP3    H129768   0.481   2.960  12.202 -0.2060 -1.2168  0.1879
 2759TIP3    H229769   0.417   2.964  12.339  0.2284 -1.9285  0.4169
 2760TIP3   OH229770   6.312   2.609   0.466 -0.6786  0.0520 -0.1197
 2760TIP3    H129771   6.310   2.692   0.419  1.3755 -0.5708 -1.4673
 2760TIP3    H229772   6.318   2.633   0.558  3.7101  1.6320 -0.5733
 2761TIP3   OH229773   3.664   6.844  15.301  0.4520  0.3388  0.5058
 2761TIP3    H129774   3.620   6.914  15.350 -0.5961 -0.3673  0.6190
 2761TIP3    H229775   3.755   6.872  15.296 -0.1509  2.3588 -0.5787
 2762TIP3   OH229776   4.394   3.456  11.106  0.1148 -0.0487 -0.1468
 2762TIP3    H129777   4.419   3.463  11.014 -1.1480  0.5337 -0.4634
 2762TIP3    H229778   4.376   3.546  11.133 -0.5365 -0.3221  0.3717
 2763TIP3   OH229779   3.083   4.216   4.064 -0.8083  0.2677  0.5715
 2763TIP3    H129780   3.041   4.290   4.019 -0.7199  0.1823  0.3450
 2763TIP3    H229781   3.176   4.225   4.044 -0.7854  0.1485  0.6206
 2764TIP3   OH229782   6.277   5.483  12.487  0.0776 -0.1574  0.3339
 2764TIP3    H129783   6.347   5.418  12.482 -0.5714 -0.8202 -0.6079
 2764TIP3    H229784   6.197   5.432  12.495 -0.4176  0.5387 -0.0282
 2765TIP3   OH229785   1.289   6.081  16.728  0.0465  0.4037 -0.0793
 2765TIP3    H129786   1.208   6.132  16.732 -0.8467 -0.9975  2.4114
 2765TIP3    H229787   1.262   5.995  16.696  0.4467 -0.1421  0.9796
 2766TIP3   OH229788   5.248   5.957  15.975  0.1730  0.3980  0.1393
 2766TIP3    H129789   5.192   6.035  15.971 -0.4499 -0.0814 -1.0163
 2766TIP3    H229790   5.186   5.884  15.971  0.8329 -0.1390 -0.3867
 2767TIP3   OH229791   3.744   6.307   5.735  0.2430 -0.3185 -0.8966
 2767TIP3    H129792   3.671   6.333   5.792  1.5966  2.4427 -0.2724
 2767TIP3    H229793   3.806   6.264   5.794 -0.1526 -1.2047 -1.1160
 2768TIP3   OH229794   1.741   0.042   1.235 -0.3409 -0.2332  0.1515
 2768TIP3    H129795   1.660   0.068   1.192 -0.0659  1.0774  0.3938
 2768TIP3    H229796   1.714  -0.019   1.303 -0.9503 -1.0108 -0.7652
 2769TIP3   OH229797   1.815   1.798   1.669 -0.0444 -0.0750  0.0059
 2769TIP3    H129798   1.833   1.828   1.580 -1.0123  1.3292  0.2469
 2769TIP3    H229799   1.901   1.786   1.709  0.3938  1.0644 -0.5564
 2770TIP3   OH229800   2.520   4.398   4.154 -0.1134  0.6559 -0.1861
 2770TIP3    H129801   2.472   4.464   4.104 -1.7755 -0.0871  0.3623
 2770TIP3    H229802   2.536   4.327   4.092  0.7689  1.1177 -0.5052
 2771TIP3   OH229803   2.883   3.123  11.953  0.2001 -0.3467  0.1747
 2771TIP3    H129804   2.864   3.030  11.948 -0.1134 -0.2953  0.3841
 2771TIP3    H229805   2.929   3.134  12.037 -2.9376  0.2084  1.9889
 2772TIP3   OH229806   0.732   4.669   5.273  0.6464  0.1331  0.0867
 2772TIP3    H129807   0.728   4.687   5.367 -0.1363 -0.6721  0.2257
 2772TIP3    H229808   0.825   4.662   5.254  0.8998  1.8874  0.4669
 2773TIP3   OH229809   4.877   0.020  11.727 -0.3407  0.2472  0.5666
 2773TIP3    H129810   4.793   0.042  11.768 -1.0921 -2.9513  1.0085
 2773TIP3    H229811   4.853  -0.031  11.649  1.1993  0.2798  0.0303
 2774TIP3   OH229812   4.324   4.098  14.805  0.6353 -0.5493  0.0035
 2774TIP3    H129813   4.387   4.029  14.827  3.3548  2.4930  3.0202
 2774TIP3    H229814   4.262   4.097  14.878  0.1935 -0.3201 -0.3640
 2775TIP3   OH229815   1.159   3.774  13.855  0.4443 -0.0045 -0.4361
 2775TIP3    H129816   1.250   3.746  13.856  0.4241 -0.3185 -2.4803
 2775TIP3    H229817   1.148   3.816  13.769 -1.2172  0.4179 -0.0525
 2776TIP3   OH229818   6.053   6.717   6.010  0.1097 -0.4082 -0.0773
 2776TIP3    H129819   6.049   6.783   6.079  1.6445 -1.1535  0.7777
 2776TIP3    H229820   5.966   6.676   6.010 -0.2888  0.4162  0.5636
 2777TIP3   OH229821   2.458   4.210  14.121  0.5100  0.0964 -0.2422
 2777TIP3    H129822   2.370   4.210  14.158  0.4678 -0.7129 -0.3395
 2777TIP3    H229823   2.471   4.301  14.093 -0.3816  0.1768 -0.4456
 2778TIP3   OH229824   4.221   1.755  12.490  0.6481  0.1783 -0.0247
 2778TIP3    H129825   4.181   1.837  12.460 -0.0632 -0.5741 -1.2012
 2778TIP3    H229826   4.165   1.726  12.561  0.7107  0.5460  0.1765
 2779TIP3   OH229827   1.974   3.069  12.974 -0.1685 -0.1464 -0.5272
 2779TIP3    H129828   1.976   3.156  12.934 -1.3359 -0.6561 -1.7939
 2779TIP3    H229829   2.051   3.066  13.030  1.2234  0.8508 -2.2941
 2780TIP3   OH229830   0.675   1.198  11.384 -0.1555 -0.2624  0.6142
 2780TIP3    H129831   0.581   1.197  11.404 -0.7276 -2.8514 -1.6388
 2780TIP3    H229832   0.686   1.272  11.325 -1.1267 -0.8208 -0.2999
 2781TIP3   OH229833   5.260   3.736  14.430  0.6729  0.0966  0.0133
 2781TIP3    H129834   5.335   3.685  14.463  1.4169  0.1723 -1.4635
 2781TIP3    H229835   5.283   3.827  14.448  0.0537  0.0211  1.2559
 2782TIP3   OH229836   4.034   3.007   0.244 -0.0378 -0.2453 -0.1084
 2782TIP3    H129837   3.964   2.999   0.308  0.7221  0.7830  0.9092
 2782TIP3    H229838   4.057   2.917   0.222 -0.2733 -0.6327  1.1297
 2783TIP3   OH229839   4.594   1.104  15.062 -0.6409  0.3059  0.0420
 2783TIP3    H129840   4.603   1.077  15.153 -0.5754  2.8769  0.8698
 2783TIP3    H229841   4.684   1.110  15.030 -0.6680 -0.7605 -0.3018
 2784TIP3   OH229842   4.592   6.267  15.183  0.0821 -0.2250  0.3483
 2784TIP3    H129843   4.512   6.245  15.230  0.8253 -0.4110  1.5528
 2784TIP3    H229844   4.599   6.199  15.116 -1.1497  0.2213 -0.2666
 2785TIP3   OH229845   6.152   6.272   1.779 -0.1508 -0.5440 -0.3587
 2785TIP3    H129846   6.101   6.197   1.809 -0.7639 -0.9262 -2.2016
 2785TIP3    H229847   6.086   6.338   1.755  0.2535 -0.4895 -1.3801
 2786TIP3   OH229848   2.515   0.049  11.604 -0.7371  0.7925 -0.4029
 2786TIP3    H129849   2.547   0.138  11.619 -1.0824  0.9543 -0.5881
 2786TIP3    H229850   2.576  -0.007  11.651 -1.4068  1.2316  1.0591
 2787TIP3   OH229851   5.136   5.022   4.150  0.3497 -0.4768 -0.5460
 2787TIP3    H129852   5.168   5.113   4.147 -0.9033  0.0693  0.9498
 2787TIP3    H229853   5.057   5.023   4.095  0.4359 -0.7024 -0.6720
 2788TIP3   OH229854   5.182   6.160   1.140 -0.2005  0.3894  0.0071
 2788TIP3    H129855   5.276   6.152   1.125 -0.2203 -0.4345  0.2581
 2788TIP3    H229856   5.149   6.071   1.134 -1.1628  0.8022 -1.2622
 2789TIP3   OH229857   3.697   0.750   1.661  0.1376  0.2595  0.4955
 2789TIP3    H129858   3.602   0.745   1.667  0.1252  0.9114  0.9429
 2789TIP3    H229859   3.726   0.659   1.671 -0.3897  0.1773  1.3588
 2790TIP3   OH229860   2.247   0.446   2.927  0.1931  0.4674 -0.7911
 2790TIP3    H129861   2.304   0.477   2.998  0.1488 -0.8617 -0.1422
 2790TIP3    H229862   2.307   0.415   2.860  0.2308  1.4311 -1.2278
 2791TIP3   OH229863   4.944   0.429   1.929  0.0173  0.3338 -0.6574
 2791TIP3    H129864   4.890   0.408   1.854  2.1381  0.2994 -2.2786
 2791TIP3    H229865   4.985   0.513   1.907  1.6050 -0.2476 -0.1206
 2792TIP3   OH229866   1.113   4.953   4.245 -0.2398 -0.0220  0.4749
 2792TIP3    H129867   1.139   4.973   4.335 -2.6675  2.5834  0.7556
 2792TIP3    H229868   1.195   4.952   4.195  0.9568  0.7871  2.3409
 2793TIP3   OH229869   2.329   3.534   4.594 -0.5697 -0.3313 -0.0054
 2793TIP3    H129870   2.395   3.567   4.533 -0.9611  0.6312  0.0792
 2793TIP3    H229871   2.379   3.500   4.668 -0.1622  1.1955  0.4644
 2794TIP3   OH229872   6.164   4.239   3.008 -0.0140 -0.1603 -0.3497
 2794TIP3    H129873   6.189   4.304   2.942  0.1354 -0.5328 -0.6598
 2794TIP3    H229874   6.208   4.269   3.088 -0.2999  0.3630 -0.3785
 2795TIP3   OH229875   1.722   6.735  13.589  0.2408  0.4395 -0.4311
 2795TIP3    H129876   1.716   6.756  13.496  2.5128  0.8329 -0.5445
 2795TIP3    H229877   1.631   6.728  13.618 -0.5292  1.5744 -2.3890
 2796TIP3   OH229878   4.196   3.699   5.127  0.1341  0.5542  0.3092
 2796TIP3    H129879   4.168   3.791   5.125 -0.9027  0.2545 -2.0238
 2796TIP3    H229880   4.291   3.704   5.129  0.0943  1.6659  0.4475
 2797TIP3   OH229881   3.700   5.913   4.314 -0.0519 -0.2347 -0.0237
 2797TIP3    H129882   3.709   5.820   4.332  1.4010 -0.2442 -0.7105
 2797TIP3    H229883   3.738   5.926   4.227 -2.9509  0.5372 -1.2894
 2798TIP3   OH229884   0.007   2.534   4.881  0.1246 -0.1407  0.2244
 2798TIP3    H129885   0.048   2.589   4.947  1.4018  0.3549 -0.9199
 2798TIP3    H229886   0.019   2.444   4.912  1.0651  0.0676  0.4669
 2799TIP3   OH229887   1.622   0.045  15.421 -0.1954 -0.3671  0.2645
 2799TIP3    H129888   1.682   0.025  15.349  1.4171 -1.8388  1.9166
 2799TIP3    H229889   1.660   0.122  15.463  0.5755 -1.2807  1.2929
 2800TIP3   OH229890   3.973   0.214   6.039  0.2416 -0.3063 -1.1790
 2800TIP3    H129891   3.929   0.220   6.124  0.5758  1.7671 -1.1005
 2800TIP3    H229892   3.917   0.157   5.986 -0.9462 -0.1279 -0.1518
 2801TIP3   OH229893   6.421   0.028  14.595  0.1803 -0.2962  0.6563
 2801TIP3    H129894   6.481   0.081  14.648  0.2947 -1.1854  1.4318
 2801TIP3    H229895   6.351   0.089  14.572  0.3014  0.1995  1.5405
 2802TIP3   OH229896   2.382   3.581   0.610  0.3450  0.0945  0.1949
 2802TIP3    H129897   2.377   3.537   0.694  2.9697 -3.3719 -1.1994
 2802TIP3    H229898   2.359   3.514   0.546  3.4082  0.9431 -2.0571
 2803TIP3   OH229899   0.714   3.046  10.665  0.3393 -0.6776 -0.0116
 2803TIP3    H129900   0.656   2.983  10.706 -0.6464  0.2198  0.0085
 2803TIP3    H229901   0.719   3.018  10.573  0.9763 -1.5424  0.2786
 2804TIP3   OH229902   2.213   2.920   0.698 -0.3658  0.0875 -0.2062
 2804TIP3    H129903   2.192   3.002   0.653 -0.0721 -0.1603 -0.8098
 2804TIP3    H229904   2.217   2.944   0.791 -1.6888  0.4625 -0.2295
 2805TIP3   OH229905   5.096   6.402   3.490  0.0386 -0.0040 -0.5577
 2805TIP3    H129906   5.097   6.401   3.394 -0.8229 -1.3009 -0.5856
 2805TIP3    H229907   5.012   6.363   3.513  1.2763 -2.0820  0.7271
 2806TIP3   OH229908   3.194   6.600  11.777  0.4507  0.5038 -0.2648
 2806TIP3    H129909   3.282   6.575  11.750  0.2263  0.4078 -0.9231
 2806TIP3    H229910   3.149   6.623  11.696 -0.7664 -1.4735 -0.2250
 2807TIP3   OH229911   6.028   1.203   5.488 -0.1609  0.0408  0.4821
 2807TIP3    H129912   6.047   1.276   5.546  0.6222  1.3591 -1.3233
 2807TIP3    H229913   5.944   1.169   5.517 -0.0091  0.9423  2.0587
 2808TIP3   OH229914   0.187   5.107  12.995  0.5439  0.3787  0.2211
 2808TIP3    H129915   0.269   5.083  12.952  0.3673 -1.2682  0.7350
 2808TIP3    H229916   0.138   5.157  12.929  1.1489 -0.3103 -0.7571
 2809TIP3   OH229917   2.614   1.050  11.463 -0.5261 -0.6651  0.8195
 2809TIP3    H129918   2.589   1.043  11.371  0.0420  0.7886  0.5262
 2809TIP3    H229919   2.535   1.082  11.507 -0.8531 -1.5358  0.8870
 2810TIP3   OH229920   0.268   3.673  15.660  0.7403  0.2246 -0.8309
 2810TIP3    H129921   0.293   3.765  15.659 -1.3310  0.9049  1.0077
 2810TIP3    H229922   0.343   3.627  15.697  1.1191  1.4402 -0.0486
 2811TIP3   OH229923   5.784   6.205   6.326  0.0511 -0.0430  0.1859
 2811TIP3    H129924   5.815   6.251   6.248  2.1505 -1.3909  0.1381
 2811TIP3    H229925   5.802   6.265   6.398  0.1545  0.3242 -0.1416
 2812TIP3   OH229926   4.967   6.753  10.896  0.4834  0.3197  0.1084
 2812TIP3    H129927   4.886   6.702  10.895  0.4886  0.3093  0.1852
 2812TIP3    H229928   5.034   6.690  10.868  0.4543  0.3474 -0.0235
 2813TIP3   OH229929   5.230   5.717  12.139  0.4910  0.0602  0.4732
 2813TIP3    H129930   5.307   5.693  12.087 -0.3594 -0.1208 -0.7521
 2813TIP3    H229931   5.253   5.802  12.177  1.3258 -0.0258  0.1876
 2814TIP3   OH229932   4.301   0.333   3.309  0.4505  0.3991 -0.4961
 2814TIP3    H129933   4.366   0.333   3.378 -0.2565  1.3558  0.1955
 2814TIP3    H229934   4.328   0.403   3.250  1.5504 -0.9831 -1.7207
 2815TIP3   OH229935   3.230   2.899  14.723  0.4401 -0.2155 -0.3265
 2815TIP3    H129936   3.287   2.922  14.797  0.5998 -0.2309 -0.4460
 2815TIP3    H229937   3.275   2.934  14.646 -0.4804  1.2300 -0.2654
 2816TIP3   OH229938   5.637   1.067  15.133  0.5823 -0.0588 -0.5126
 2816TIP3    H129939   5.666   1.125  15.203 -0.8667 -0.0249  0.0890
 2816TIP3    H229940   5.671   1.108  15.053  2.7096 -0.3735  0.1460
 2817TIP3   OH229941   5.134   0.295  14.219 -0.1169  0.3855  0.4573
 2817TIP3    H129942   5.060   0.354  14.207 -0.7982 -0.6397 -0.4968
 2817TIP3    H229943   5.207   0.340  14.176  0.9507  3.2921  4.6537
 2818TIP3   OH229944   1.576   6.541   4.353 -0.2276 -0.0132  0.0976
 2818TIP3    H129945   1.500   6.570   4.303  0.9321  0.8709 -1.2187
 2818TIP3    H229946   1.613   6.470   4.301  0.5310  0.3670  0.1080
 2819TIP3   OH229947   3.116   4.330  15.531 -0.1268  0.0093 -0.0760
 2819TIP3    H129948   3.208   4.305  15.541  0.1950  1.2538  0.2890
 2819TIP3    H229949   3.109   4.412  15.579 -1.4863 -0.1762  0.0702
 2820TIP3   OH229950   1.737   0.389   2.564 -0.0441 -0.0214  0.3512
 2820TIP3    H129951   1.820   0.371   2.608 -0.1016 -1.6919 -0.1721
 2820TIP3    H229952   1.756   0.465   2.509  1.4212 -0.8899 -0.4295
 2821TIP3   OH229953   6.624   6.480  15.965 -0.1902 -0.3670  0.3815
 2821TIP3    H129954   6.714   6.484  15.932 -1.0257 -1.6386 -2.3969
 2821TIP3    H229955   6.602   6.387  15.964 -2.5061  0.0765 -2.1749
 2822TIP3   OH229956   5.063   3.017  13.045 -0.0424 -0.6301  0.3400
 2822TIP3    H129957   5.155   3.043  13.046 -0.3837  0.7030 -0.2222
 2822TIP3    H229958   5.024   3.070  12.975 -0.8870 -2.4491 -0.6365
 2823TIP3   OH229959   3.711   4.597  14.326 -0.4180  0.3887  0.4216
 2823TIP3    H129960   3.701   4.535  14.254 -0.8049  0.4745  0.3999
 2823TIP3    H229961   3.708   4.543  14.405 -0.3024  0.3291  0.3850
 2824TIP3   OH229962   2.449   4.127  12.492  0.0498 -0.4096  0.7416
 2824TIP3    H129963   2.442   4.070  12.415 -0.7795  0.3767  0.2029
 2824TIP3    H229964   2.479   4.211  12.455 -1.1977  0.2267  1.1444
 2825TIP3   OH229965   4.729   0.361   0.504  0.4036 -0.2190 -0.5946
 2825TIP3    H129966   4.689   0.427   0.447 -1.8156 -1.3337 -0.4325
 2825TIP3    H229967   4.690   0.376   0.590 -0.7955 -2.2205 -0.7389
 2826TIP3   OH229968   2.654   1.240  17.005  0.3610  0.6288 -0.5345
 2826TIP3    H129969   2.716   1.177  17.040  0.3262 -0.0867 -1.6914
 2826TIP3    H229970   2.612   1.278  17.081  0.8305 -0.2939  0.2026
 2827TIP3   OH229971   1.473   2.739  16.040 -0.2095  0.6108 -0.0767
 2827TIP3    H129972   1.435   2.730  15.953 -1.3394  1.0147  0.3646
 2827TIP3    H229973   1.467   2.833  16.059  0.2276  0.5571  0.3618
 2828TIP3   OH229974   1.519   3.015  11.898  0.3098 -0.0763  0.4695
 2828TIP3    H129975   1.561   3.099  11.914 -0.2770 -0.0599  2.1392
 2828TIP3    H229976   1.590   2.957  11.869  0.7799  0.8865 -0.3275
 2829TIP3   OH229977   6.413   1.050  11.606 -0.4721  0.1245  0.8107
 2829TIP3    H129978   6.418   0.959  11.578 -0.0875  0.1555  0.7663
 2829TIP3    H229979   6.340   1.053  11.668 -2.1880  0.2976 -1.1130
 2830TIP3   OH229980   6.415   6.651  16.328  0.7933 -0.4277  0.2236
 2830TIP3    H129981   6.388   6.742  16.316  1.2766 -0.3844 -0.6252
 2830TIP3    H229982   6.492   6.656  16.383  1.2315 -0.2578 -0.3914
 2831TIP3   OH229983   3.613   5.894   3.627 -0.8035  0.0232 -0.5117
 2831TIP3    H129984   3.671   5.838   3.678  0.2227 -0.2313 -1.9181
 2831TIP3    H229985   3.548   5.835   3.589 -1.2643  0.1465  0.0683
 2832TIP3   OH229986   0.001   2.352  12.773 -0.0523 -0.1801 -0.0683
 2832TIP3    H129987  -0.054   2.423  12.743  0.0093 -0.1710 -0.1589
 2832TIP3    H229988   0.084   2.364  12.727  0.2591  0.2062  0.5786
 2833TIP3   OH229989   6.129   1.809   4.448  0.3603  0.1921  0.5276
 2833TIP3    H129990   6.158   1.735   4.395  1.3056 -0.9843  2.5398
 2833TIP3    H229991   6.182   1.883   4.417 -1.5605  0.4698 -2.4522
 2834TIP3   OH229992   4.485   5.578   2.807  0.2734 -0.6750  0.4259
 2834TIP3    H129993   4.398   5.608   2.780  0.4024 -0.8443 -0.1898
 2834TIP3    H229994   4.478   5.483   2.814  0.6298 -0.7706 -0.4538
 2835TIP3   OH229995   3.023   0.516   4.633 -0.0046  0.7141 -0.0497
 2835TIP3    H129996   2.985   0.429   4.619  1.4244  0.0643 -0.0304
 2835TIP3    H229997   3.039   0.520   4.727 -1.1472  1.4914  0.1389
 2836TIP3   OH229998   1.496   6.438  13.358 -0.2826 -0.2897 -0.6314
 2836TIP3    H129999   1.449   6.358  13.334  1.2305 -1.5171  0.3394
 2836TIP3    H230000   1.588   6.413  13.358  0.4362  1.9766 -2.1837
 2837TIP3   OH230001   1.101   5.027  14.552  0.1602 -0.0309  0.6037
 2837TIP3    H130002   1.010   5.002  14.571 -0.9696  2.2877 -1.2560
 2837TIP3    H230003   1.123   5.091  14.620 -0.4521  1.1099 -0.2475
 2838TIP3   OH230004   5.319   3.031   1.175 -0.4081  0.0974  0.6636
 2838TIP3    H130005   5.288   2.942   1.159  0.4290  0.0071 -0.5817
 2838TIP3    H230006   5.245   3.087   1.150  0.3534 -0.1021 -2.4655
 2839TIP3   OH230007   4.459   4.518   1.671  0.3571 -0.3286 -0.7251
 2839TIP3    H130008   4.516   4.483   1.603  4.1816  0.6975  1.6544
 2839TIP3    H230009   4.411   4.441   1.704  1.8314 -1.6635 -1.5537
 2840TIP3   OH230010   1.622   2.110   0.791 -0.6929 -0.2162 -0.0443
 2840TIP3    H130011   1.632   2.205   0.782  0.0483 -0.4514 -2.1943
 2840TIP3    H230012   1.554   2.087   0.728  0.4719 -1.3313 -0.9452
 2841TIP3   OH230013   4.144   2.604  13.842  0.4942 -0.7790 -0.0060
 2841TIP3    H130014   4.110   2.686  13.807  1.6282 -0.9360 -1.6056
 2841TIP3    H230015   4.074   2.570  13.896 -0.3856  0.7497 -0.1303
 2842TIP3   OH230016   1.767   2.229   1.489  0.4450 -0.4992 -0.3911
 2842TIP3    H130017   1.780   2.176   1.568 -0.4148 -0.9742 -0.5621
 2842TIP3    H230018   1.780   2.167   1.417 -0.9902 -0.5950 -0.5864
 2843TIP3   OH230019   3.609   5.001   0.924  0.5883  0.0644  0.3890
 2843TIP3    H130020   3.677   5.032   0.865  0.7064  1.5638  1.2607
 2843TIP3    H230021   3.582   5.079   0.973 -0.0406 -0.9632  1.7651
 2844TIP3   OH230022   2.683   0.889  12.467 -0.0545  0.1222  0.4754
 2844TIP3    H130023   2.633   0.820  12.511  1.1459 -1.8087 -1.0096
 2844TIP3    H230024   2.622   0.926  12.403 -0.3663 -0.3967  0.4704
 2845TIP3   OH230025   0.138   6.690   5.781 -0.3978 -0.6582 -0.2416
 2845TIP3    H130026   0.204   6.631   5.817  0.1235 -0.3967 -0.7598
 2845TIP3    H230027   0.095   6.638   5.713  0.5913 -0.2046 -1.2435
 2846TIP3   OH230028   0.139   0.411   2.936  0.2038 -0.1750  0.9695
 2846TIP3    H130029   0.119   0.318   2.945  1.1713 -0.8008 -2.2015
 2846TIP3    H230030   0.144   0.443   3.026 -0.6929 -3.0341  2.1575
 2847TIP3   OH230031   0.129   1.194   4.074  0.6872  0.3985 -0.1456
 2847TIP3    H130032   0.073   1.256   4.121 -1.2466 -1.3883  0.0893
 2847TIP3    H230033   0.185   1.156   4.142  0.7045  0.7057  0.0123
 2848TIP3   OH230034   1.766   1.743  11.325 -0.0317  0.1730  0.4451
 2848TIP3    H130035   1.811   1.815  11.369 -0.1616  0.6222 -0.1422
 2848TIP3    H230036   1.740   1.684  11.396  2.5099 -0.7265  0.7274
 2849TIP3   OH230037   5.330   0.059   0.367  0.5291  0.0491 -0.1868
 2849TIP3    H130038   5.420   0.027   0.379  0.3158 -0.1639  0.8563
 2849TIP3    H230039   5.340   0.137   0.312  1.4331  0.5000  0.5950
 2850TIP3   OH230040   5.618   6.783  11.930 -0.7303 -0.5723  0.0950
 2850TIP3    H130041   5.671   6.851  11.888  1.6517 -1.4351  1.5227
 2850TIP3    H230042   5.567   6.830  11.996 -0.1345  0.0321  0.1394
 2851TIP3   OH230043   5.425   2.361   5.233 -0.0135 -0.1965  0.2075
 2851TIP3    H130044   5.371   2.380   5.310  1.2379 -0.5961  1.2236
 2851TIP3    H230045   5.379   2.292   5.187  0.5254 -1.9249  2.0994
 2852TIP3   OH230046   3.814   0.594  14.220 -0.7090  0.2233 -0.5640
 2852TIP3    H130047   3.724   0.608  14.192 -0.6389 -1.7902 -1.9833
 2852TIP3    H230048   3.827   0.499  14.213  1.8280  0.5576 -1.4174
 2853TIP3   OH230049   0.569   2.834  12.851 -0.0620  0.2022 -0.1390
 2853TIP3    H130050   0.501   2.786  12.898 -0.4554  0.9753  0.1003
 2853TIP3    H230051   0.650   2.815  12.898  0.3314 -2.5481 -1.7253
 2854TIP3   OH230052   4.072   6.007  15.311  0.3966  0.1085 -0.2944
 2854TIP3    H130053   4.048   6.098  15.297 -1.3080 -0.3988 -0.8358
 2854TIP3    H230054   4.080   5.970  15.223 -1.1553 -0.7975 -0.0879
 2855TIP3   OH230055   5.492   5.648  10.904 -0.2400 -0.0830  0.5123
 2855TIP3    H130056   5.496   5.571  10.847 -0.5708  2.0594 -2.6381
 2855TIP3    H230057   5.407   5.688  10.885 -0.1692  0.9732  2.2151
 2856TIP3   OH230058   6.077   3.998  16.097  0.0323  0.4779  0.1050
 2856TIP3    H130059   6.143   4.011  16.165 -0.5750 -0.2093  0.8542
 2856TIP3    H230060   6.017   4.073  16.107  0.1353  0.5605  0.1033
 2857TIP3   OH230061   6.466   0.322  13.172  0.1815  0.0023  0.2003
 2857TIP3    H130062   6.477   0.335  13.266  0.5923 -0.2794  0.1950
 2857TIP3    H230063   6.475   0.228  13.159  1.5671  0.1761 -0.2900
 2858TIP3   OH230064   3.976   1.489  17.034  0.0928  0.0012  0.7795
 2858TIP3    H130065   3.970   1.394  17.034  0.2754 -0.0142  1.2296
 2858TIP3    H230066   4.021   1.510  17.116  0.3730  0.4522  0.5165
 2859TIP3   OH230067   3.722   6.774   4.285  0.6269 -0.0747 -0.3009
 2859TIP3    H130068   3.793   6.830   4.317  0.7826 -1.8272  2.8645
 2859TIP3    H230069   3.648   6.793   4.343 -0.9293  0.2648 -2.2661
 2860TIP3   OH230070   6.292   0.495  14.976  0.4485 -0.6199 -0.2763
 2860TIP3    H130071   6.266   0.531  14.891 -0.9340  2.1977  1.2070
 2860TIP3    H230072   6.210   0.469  15.017  1.1900 -2.9111 -0.1198
 2861TIP3   OH230073   2.080   5.371  16.332 -0.0268 -0.0028 -0.0116
 2861TIP3    H130074   2.009   5.419  16.375  0.7002  2.0174 -0.9304
 2861TIP3    H230075   2.046   5.282  16.322 -0.2995 -0.6547  4.5468
 2862TIP3   OH230076   2.879   0.628  15.002 -0.1919  0.3142 -0.6368
 2862TIP3    H130077   2.947   0.658  14.942  1.1202 -0.6420  0.3106
 2862TIP3    H230078   2.802   0.615  14.947  0.7729  0.0847 -1.9855
 2863TIP3   OH230079   5.029   3.196  14.142 -0.4073 -0.6384 -0.1912
 2863TIP3    H130080   5.086   3.191  14.065  1.5978 -0.7920  1.2115
 2863TIP3    H230081   4.957   3.253  14.115  1.6304  1.5660 -1.3832
 2864TIP3   OH230082   0.154   0.611   1.690 -0.4819  0.2579  0.5691
 2864TIP3    H130083   0.076   0.567   1.725  0.1474 -0.8386  0.6450
 2864TIP3    H230084   0.169   0.685   1.748  0.1542 -1.1356  2.2813
 2865TIP3   OH230085   3.057   5.615   4.389  0.1964  0.2555  0.3703
 2865TIP3    H130086   3.149   5.639   4.394 -0.3046  2.3352  0.3401
 2865TIP3    H230087   3.043   5.560   4.466  1.4401 -0.0754  0.3827
 2866TIP3   OH230088   4.271   1.650   4.920  0.8699 -0.3657  0.1111
 2866TIP3    H130089   4.306   1.608   4.841  1.2296  0.2737 -0.0735
 2866TIP3    H230090   4.326   1.616   4.991  0.3516 -1.1765  0.1378
 2867TIP3   OH230091   5.608   4.290   3.899 -0.0946 -0.0038 -0.1361
 2867TIP3    H130092   5.545   4.298   3.827 -0.2227  1.7844  0.1336
 2867TIP3    H230093   5.632   4.197   3.899 -1.5982 -0.4349 -1.1936
 2868TIP3   OH230094   3.668   6.351  12.991 -0.0238  0.5020 -0.1161
 2868TIP3    H130095   3.623   6.376  12.911  1.2394 -0.7811 -1.2889
 2868TIP3    H230096   3.711   6.268  12.970  1.1169  0.5948  1.5881
 2869TIP3   OH230097   2.405   3.306   2.577  0.2469  0.1971 -0.5542
 2869TIP3    H130098   2.469   3.283   2.510  1.3353  1.5563 -0.0605
 2869TIP3    H230099   2.457   3.313   2.657 -0.7636  0.0609  0.1247
 2870TIP3   OH230100   0.434   5.617   4.127  0.0003 -0.0090 -0.3188
 2870TIP3    H130101   0.516   5.630   4.079 -0.3998  0.4693 -0.9060
 2870TIP3    H230102   0.458   5.627   4.219  0.6793 -0.3315 -0.4548
 2871TIP3   OH230103   5.750   6.844   0.104 -0.0863  0.4670  0.0085
 2871TIP3    H130104   5.768   6.926   0.059  0.7003 -0.6149 -1.7638
 2871TIP3    H230105   5.831   6.823   0.151 -0.8589  1.5237  1.9357
 2872TIP3   OH230106   2.244   2.779  16.023  0.2628 -0.1044 -0.0740
 2872TIP3    H130107   2.174   2.844  16.014 -0.1390 -0.5249 -0.0240
 2872TIP3    H230108   2.287   2.802  16.105  0.0822  0.0608 -0.0242
 2873TIP3   OH230109   0.987   0.367  14.540 -0.3541 -0.2613  0.2827
 2873TIP3    H130110   0.950   0.290  14.498  0.0652 -0.6500  0.6183
 2873TIP3    H230111   0.911   0.414  14.575 -0.6200 -0.4411 -0.0490
 2874TIP3   OH230112   1.654   2.558   2.661  0.1523  0.3220 -0.0540
 2874TIP3    H130113   1.667   2.587   2.571 -0.2285 -0.3355 -0.3231
 2874TIP3    H230114   1.743   2.545   2.695  0.2844  0.0628 -0.5001
 2875TIP3   OH230115   0.221   4.531  15.750 -0.1399 -0.2986  0.1509
 2875TIP3    H130116   0.195   4.587  15.823 -0.9267 -2.1917  1.4216
 2875TIP3    H230117   0.308   4.500  15.773 -0.8140 -1.7642  0.9292
 2876TIP3   OH230118   6.693   6.282  12.087  0.7674 -0.6722  0.5125
 2876TIP3    H130119   6.654   6.265  12.173  1.3256 -4.5628  0.1891
 2876TIP3    H230120   6.629   6.249  12.025  1.1836  0.3290 -0.4620
 2877TIP3   OH230121   2.706   6.063   0.238 -0.3641  0.3840  0.1347
 2877TIP3    H130122   2.699   5.969   0.223  0.7564 -0.0953  2.2933
 2877TIP3    H230123   2.618   6.097   0.225 -0.6457 -0.8090 -1.3624
 2878TIP3   OH230124   5.349   4.612   2.874  0.0189  0.5436 -0.6778
 2878TIP3    H130125   5.359   4.690   2.929  0.3223  0.5662 -0.7665
 2878TIP3    H230126   5.432   4.566   2.881 -0.6746 -0.6255  0.6695
 2879TIP3   OH230127   6.853   1.054   0.980 -0.0601 -0.0365  0.1308
 2879TIP3    H130128   6.846   0.987   0.912  3.2937 -0.4044 -0.0414
 2879TIP3    H230129   6.838   1.005   1.062 -1.5306 -0.1191 -0.1579
 2880TIP3   OH230130   3.129   6.712   5.257  0.1703 -0.6730 -0.0586
 2880TIP3    H130131   3.217   6.741   5.234 -0.4838  1.3895 -0.1988
 2880TIP3    H230132   3.092   6.681   5.174 -0.3037  1.5684 -0.7698
 2881TIP3   OH230133   5.767   3.022  16.150  0.2541  0.0389 -0.0273
 2881TIP3    H130134   5.793   3.072  16.228 -1.7573 -0.3449  0.9401
 2881TIP3    H230135   5.816   2.940  16.157  0.0454 -0.0219  0.8983
 2882TIP3   OH230136   6.371   4.571   1.666 -0.3423  0.0821  0.8125
 2882TIP3    H130137   6.387   4.639   1.601  1.2978 -0.3857  0.6805
 2882TIP3    H230138   6.361   4.491   1.615 -0.8860 -0.0004  1.0443
 2883TIP3   OH230139   2.324   2.002  13.703  0.0276 -0.4856 -0.1039
 2883TIP3    H130140   2.409   1.963  13.721 -0.1863 -1.0621 -0.3212
 2883TIP3    H230141   2.261   1.940  13.739 -0.2993  0.0573  0.2765
 2884TIP3   OH230142   1.226   0.904  12.281 -0.1593 -0.4355 -0.5039
 2884TIP3    H130143   1.172   0.896  12.360  0.7628 -0.4132  0.1494
 2884TIP3    H230144   1.184   0.847  12.217 -1.2272 -0.0381 -0.1660
 2885TIP3   OH230145   4.864   2.292  16.865 -0.1453  0.3484 -0.3623
 2885TIP3    H130146   4.797   2.312  16.930 -0.4580 -0.3338 -0.4599
 2885TIP3    H230147   4.815   2.272  16.785  0.1559 -0.3607 -0.3766
 2886TIP3   OH230148   4.742   3.906   0.892 -0.1627  0.2793  0.3489
 2886TIP3    H130149   4.657   3.888   0.933  0.4436 -3.7337  0.2534
 2886TIP3    H230150   4.734   3.871   0.804  0.4057  3.6077 -1.1533
 2887TIP3   OH230151   0.927   5.298   2.550 -0.3326  0.0366 -0.3404
 2887TIP3    H130152   1.013   5.340   2.560  0.8664 -2.1951 -0.5925
 2887TIP3    H230153   0.884   5.312   2.634  0.2774  1.1390 -0.1883
 2888TIP3   OH230154   5.087   5.084  13.083 -0.5952  0.2511  0.1618
 2888TIP3    H130155   5.147   5.112  13.014 -1.6364  0.7618 -0.5470
 2888TIP3    H230156   5.002   5.077  13.040 -0.7670 -2.1463  0.7337
 2889TIP3   OH230157   5.964   3.485  12.542  0.0186 -0.0555  0.1235
 2889TIP3    H130158   5.918   3.485  12.458 -0.7049  3.0208  0.4060
 2889TIP3    H230159   5.915   3.423  12.595 -0.9955 -0.2771 -1.0160
 2890TIP3   OH230160   3.071   5.266  13.209 -0.1704 -0.1199  0.0939
 2890TIP3    H130161   3.055   5.175  13.185  0.1983 -0.2150  0.2121
 2890TIP3    H230162   3.013   5.282  13.283 -1.5519  0.2624 -1.0099
 2891TIP3   OH230163   6.462   1.740  12.225 -0.2972  0.2145  0.0377
 2891TIP3    H130164   6.497   1.684  12.294  0.0901 -0.9873 -1.0996
 2891TIP3    H230165   6.527   1.810  12.216 -0.2704  0.2895  0.7594
 2892TIP3   OH230166   5.471   5.138   0.958  0.0985  0.0311  0.1604
 2892TIP3    H130167   5.488   5.132   0.864  0.4804 -0.0329  0.2290
 2892TIP3    H230168   5.381   5.107   0.969  0.7675 -2.1204  0.0777
 2893TIP3   OH230169   5.095   3.889  15.679  0.7452 -0.1795  0.0919
 2893TIP3    H130170   5.014   3.858  15.638  1.4674 -1.1221 -0.6922
 2893TIP3    H230171   5.068   3.963  15.733 -0.4672  0.2166 -0.9987
 2894TIP3   OH230172   4.668   4.809  11.728 -0.0520  0.0117 -0.3596
 2894TIP3    H130173   4.695   4.784  11.639  0.2131  0.3340 -0.3718
 2894TIP3    H230174   4.687   4.732  11.781  0.5872  0.1142 -0.4316
 2895TIP3   OH230175   1.530   1.372  15.746 -0.1208  0.3315 -0.1732
 2895TIP3    H130176   1.512   1.458  15.785  0.4635 -0.1220  1.1257
 2895TIP3    H230177   1.582   1.326  15.812  0.0168 -0.8376 -1.0755
 2896TIP3   OH230178   4.629   1.428  15.310  0.5450 -0.4444  0.2728
 2896TIP3    H130179   4.686   1.361  15.271 -0.5877  0.1949 -2.7187
 2896TIP3    H230180   4.687   1.503  15.325  1.0281 -0.7104 -0.2335
 2897TIP3   OH230181   3.340   0.440   0.939  0.2990  0.0749  0.5426
 2897TIP3    H130182   3.340   0.362   0.884 -2.5639  0.5367 -0.2789
 2897TIP3    H230183   3.342   0.405   1.029  0.9416 -0.8536  0.1801
 2898TIP3   OH230184   3.217   1.818   6.633  0.0731 -0.3006 -0.8841
 2898TIP3    H130185   3.170   1.767   6.568  0.7138  1.2085 -2.6493
 2898TIP3    H230186   3.309   1.799   6.616  0.2550 -2.8162  2.1740
 2899TIP3   OH230187   0.388   1.687   3.641 -0.5824  0.2079  0.5898
 2899TIP3    H130188   0.368   1.597   3.614 -2.4319  0.6820  0.1995
 2899TIP3    H230189   0.327   1.705   3.712  0.1444  0.9791  1.0343
 2900TIP3   OH230190   5.751   0.221  15.833  0.6257 -0.1983 -0.1158
 2900TIP3    H130191   5.692   0.275  15.780 -0.3584  0.1130  1.2439
 2900TIP3    H230192   5.810   0.284  15.874  1.5017 -0.4540 -0.9645
 2901TIP3   OH230193   1.786   1.369  14.428 -0.5369  0.2165 -0.0660
 2901TIP3    H130194   1.771   1.331  14.342  0.4019  0.4484 -0.3523
 2901TIP3    H230195   1.727   1.445  14.432 -2.3082 -1.1184  0.4550
 2902TIP3   OH230196   3.156   5.249   5.481 -0.1136  0.0121 -0.5296
 2902TIP3    H130197   3.093   5.180   5.459  0.4416 -1.4575  2.0918
 2902TIP3    H230198   3.237   5.201   5.501  0.7117  1.5542 -0.0177
 2903TIP3   OH230199   5.796   1.080  16.204 -0.1325  0.7732 -0.1282
 2903TIP3    H130200   5.839   1.134  16.271  0.4686  0.3141 -0.1347
 2903TIP3    H230201   5.823   1.119  16.121  1.9281 -0.6634 -0.2154
 2904TIP3   OH230202   1.429   0.491   3.683  0.8794  0.5401  0.1018
 2904TIP3    H130203   1.346   0.505   3.637 -0.1203  0.2533  1.7239
 2904TIP3    H230204   1.439   0.569   3.738 -0.3193 -1.0420  2.7519
 2905TIP3   OH230205   5.264   3.179  16.973 -0.0846  0.0749 -0.1586
 2905TIP3    H130206   5.216   3.179  17.056  0.4993  0.3112  0.1842
 2905TIP3    H230207   5.344   3.130  16.991  0.8892  1.6101 -0.0637
 2906TIP3   OH230208   3.261   3.903   1.738 -0.1706  0.2518  0.0170
 2906TIP3    H130209   3.192   3.883   1.802  0.2487 -0.0140  0.3924
 2906TIP3    H230210   3.250   3.839   1.669 -0.3988  0.3096 -0.0016
 2907TIP3   OH230211   6.585   6.666  12.951 -0.6023  0.0514 -0.2198
 2907TIP3    H130212   6.665   6.655  13.002 -0.6480  0.1189 -0.1330
 2907TIP3    H230213   6.614   6.662  12.860 -0.4107  0.6620 -0.1938
 2908TIP3   OH230214   4.655   6.218   0.069  0.0403  0.2029 -0.0342
 2908TIP3    H130215   4.650   6.129   0.036 -1.2944  0.2745 -0.0959
 2908TIP3    H230216   4.733   6.220   0.125  0.3340 -0.8636 -0.3998
 2909TIP3   OH230217   3.618   4.669   0.654 -0.2052 -0.1332 -0.1288
 2909TIP3    H130218   3.658   4.756   0.656  0.3736 -0.4026  0.0603
 2909TIP3    H230219   3.523   4.686   0.654 -0.0939  0.4974 -0.2775
 2910TIP3   OH230220   5.272   3.884   4.389 -0.0988 -0.0944 -0.1663
 2910TIP3    H130221   5.232   3.842   4.313 -1.2437 -2.2069  1.5049
 2910TIP3    H230222   5.281   3.976   4.364 -0.3464 -0.7331 -2.8490
 2911TIP3   OH230223   3.643   2.042   2.436 -0.3881  0.0186 -0.3783
 2911TIP3    H130224   3.737   2.033   2.418 -0.1328  1.2326  0.2635
 2911TIP3    H230225   3.629   2.136   2.444 -1.8683 -0.0557 -1.4935
 2912TIP3   OH230226   6.008   4.407  15.627 -0.2949 -0.2008 -0.0055
 2912TIP3    H130227   5.989   4.477  15.690 -1.7544  0.1280 -0.7802
 2912TIP3    H230228   5.977   4.442  15.543  0.5494 -1.1002 -0.7085
 2913TIP3   OH230229   3.330   6.037   4.548  0.7260 -0.2806 -0.0257
 2913TIP3    H130230   3.365   5.989   4.472 -0.1372 -1.1112  0.0809
 2913TIP3    H230231   3.237   6.014   4.550  1.2257 -2.6920  2.9711
 2914TIP3   OH230232   3.648   0.984   4.623  0.2010 -0.0704 -0.5645
 2914TIP3    H130233   3.682   0.997   4.711 -2.4031 -1.7008  0.8039
 2914TIP3    H230234   3.706   0.917   4.585  1.0523  0.3027  0.0460
 2915TIP3   OH230235   5.323   3.593  13.396  0.5085 -0.5474  0.4048
 2915TIP3    H130236   5.335   3.499  13.378  0.0860 -0.3590 -0.9492
 2915TIP3    H230237   5.387   3.612  13.465  1.1841 -1.6495  0.1153
 2916TIP3   OH230238   5.926   2.006   0.390 -0.2938  0.3347  0.5921
 2916TIP3    H130239   5.943   2.097   0.414  1.0033  0.4388 -0.6134
 2916TIP3    H230240   6.003   1.959   0.423  0.0010  0.0019 -0.5525
 2917TIP3   OH230241   5.680   5.013  14.824  0.3264  0.2959  0.0087
 2917TIP3    H130242   5.670   5.100  14.861  0.2088  0.0428  0.5865
 2917TIP3    H230243   5.726   5.027  14.742 -0.9130  1.0339 -0.5841
 2918TIP3   OH230244   5.170   3.980   2.024 -0.1383 -0.0462 -0.8716
 2918TIP3    H130245   5.210   3.946   1.944 -1.2031 -0.9624 -1.0391
 2918TIP3    H230246   5.092   3.926   2.037  0.6047 -0.6904  1.4122
 2919TIP3   OH230247   0.185   5.029  14.852 -0.1590 -0.4539 -0.0264
 2919TIP3    H130248   0.186   4.939  14.819  0.5817 -0.5172  0.1507
 2919TIP3    H230249   0.173   5.082  14.774 -0.4740 -0.6994 -0.1488
 2920TIP3   OH230250   1.025   0.077  16.069  0.6063  0.0603  0.0676
 2920TIP3    H130251   0.977   0.075  15.986 -1.0341  2.1915  0.8676
 2920TIP3    H230252   1.111   0.041  16.047 -0.0868 -0.3438 -2.3283
 2921TIP3   OH230253   3.411   5.406  14.557 -0.0964  0.7336  0.1227
 2921TIP3    H130254   3.489   5.350  14.555  0.7494  1.8577  0.6284
 2921TIP3    H230255   3.340   5.350  14.525  0.5349 -0.9115  1.4912
 2922TIP3   OH230256   2.937   3.378  13.237 -0.4020 -0.2411  0.3649
 2922TIP3    H130257   2.878   3.303  13.229 -1.3321  0.4761  0.1896
 2922TIP3    H230258   2.879   3.450  13.264  0.1382  0.8199 -1.1896
 2923TIP3   OH230259   2.697   0.227   6.535 -0.3064  0.1295  0.6126
 2923TIP3    H130260   2.641   0.285   6.586  0.8349  1.0794  0.8157
 2923TIP3    H230261   2.724   0.279   6.459  0.8938 -0.0432  0.9007
 2924TIP3   OH230262   3.612   1.018  14.750  0.0337 -0.2542 -0.2142
 2924TIP3    H130263   3.583   1.060  14.669 -0.8097 -2.0828 -0.9099
 2924TIP3    H230264   3.700   1.053  14.765 -0.3264  1.1256 -1.1749
 2925TIP3   OH230265   4.409   6.364  12.519 -0.1603  0.6277 -0.0333
 2925TIP3    H130266   4.499   6.350  12.489 -0.8091 -3.3481 -0.6286
 2925TIP3    H230267   4.354   6.339  12.445 -1.7662  0.5857  1.1111
 2926TIP3   OH230268   1.199   4.926   0.230 -0.4583  0.6402 -0.0613
 2926TIP3    H130269   1.214   4.960   0.318 -0.0478  0.9571 -0.2533
 2926TIP3    H230270   1.147   4.847   0.244  2.5700 -1.3828  0.7460
 2927TIP3   OH230271   4.586   0.839  16.209  0.2256 -0.0195  0.4073
 2927TIP3    H130272   4.547   0.923  16.232 -1.2218 -0.6747  0.4834
 2927TIP3    H230273   4.588   0.790  16.292 -1.0084 -0.8397 -0.0185
 2928TIP3   OH230274   3.106   5.110  11.707  0.9806  0.2768 -0.0360
 2928TIP3    H130275   3.025   5.143  11.747  1.0626  0.4914 -0.0440
 2928TIP3    H230276   3.127   5.175  11.639  0.1474 -0.7197 -1.3028
 2929TIP3   OH230277   6.756   0.943   1.197 -0.0379  0.1230 -0.1910
 2929TIP3    H130278   6.780   0.850   1.191 -1.0899 -0.1016 -1.3418
 2929TIP3    H230279   6.668   0.947   1.161 -0.5239  1.3828  1.0612
 2930TIP3   OH230280   4.862   2.177  13.941 -0.1886  0.0335 -0.0245
 2930TIP3    H130281   4.841   2.088  13.913  0.4677 -0.2140  0.2371
 2930TIP3    H230282   4.842   2.231  13.864 -1.2512 -0.2420  0.0504
 2931TIP3   OH230283   1.160   6.335  16.995  0.4946 -0.1520 -0.3523
 2931TIP3    H130284   1.172   6.279  16.919  0.1529 -0.4402 -0.1960
 2931TIP3    H230285   1.076   6.378  16.981  1.1648  1.0003 -0.8992
 2932TIP3   OH230286   1.063   5.689   0.822  0.2486  0.5311 -0.0123
 2932TIP3    H130287   1.016   5.716   0.901  0.8628  0.5555  0.3601
 2932TIP3    H230288   1.098   5.602   0.844  0.0156  0.3270 -0.4396
 2933TIP3   OH230289   4.755   2.021  12.141  1.0704  0.3930 -0.3686
 2933TIP3    H130290   4.817   2.067  12.085 -0.0412  1.3472 -0.8551
 2933TIP3    H230291   4.809   1.970  12.201  2.3264  1.8322 -0.2470
 2934TIP3   OH230292   3.128   2.339   3.234 -0.0409  0.4053 -0.4188
 2934TIP3    H130293   3.133   2.246   3.210 -0.5155  0.1678  0.3693
 2934TIP3    H230294   3.147   2.340   3.328  1.1651  1.2430 -0.6482
 2935TIP3   OH230295   0.613   6.213   2.005  0.5440 -0.1488  0.4469
 2935TIP3    H130296   0.600   6.256   2.089 -0.6210 -1.0227  0.7397
 2935TIP3    H230297   0.584   6.122   2.019 -0.6083 -0.0777 -1.1256
 2936TIP3   OH230298   6.526   0.366  13.736 -0.5517 -0.0975  0.8410
 2936TIP3    H130299   6.460   0.419  13.780  0.2785  0.0393  1.9478
 2936TIP3    H230300   6.607   0.384  13.783 -0.2813 -2.5790  1.4697
 2937TIP3   OH230301   6.432   3.853  16.296  0.4460  0.2852 -0.2158
 2937TIP3    H130302   6.382   3.855  16.378  0.4034  0.1744 -0.2396
 2937TIP3    H230303   6.432   3.944  16.266 -0.5935  0.1333 -0.7312
 2938TIP3   OH230304   0.420   5.646   1.827  0.6002  0.4722  0.3502
 2938TIP3    H130305   0.425   5.742   1.835 -0.3145  0.4314  1.6322
 2938TIP3    H230306   0.331   5.624   1.856  0.2141 -0.6290 -1.5236
 2939TIP3   OH230307   5.207   0.658  16.899 -0.7915 -0.8876 -0.2937
 2939TIP3    H130308   5.200   0.753  16.896 -2.1105 -0.9652 -0.0695
 2939TIP3    H230309   5.281   0.638  16.841 -0.9669  0.2265 -0.9310
 2940TIP3   OH230310   1.609   6.776   2.100  0.0370 -0.3048  0.5396
 2940TIP3    H130311   1.553   6.795   2.025  0.1503  0.5282  0.6616
 2940TIP3    H230312   1.548   6.756   2.171 -0.0870 -0.1202  0.4834
 2941TIP3   OH230313   6.748   0.001  11.068  0.0665 -0.3621 -0.2585
 2941TIP3    H130314   6.840   0.027  11.069 -0.0884  0.1739  0.7849
 2941TIP3    H230315   6.700   0.081  11.048 -0.3049 -0.1297  1.4327
 2942TIP3   OH230316   4.069   5.403  15.234 -0.3514  0.1051 -0.3701
 2942TIP3    H130317   4.107   5.315  15.227  0.5009  0.5294 -1.4801
 2942TIP3    H230318   4.144   5.462  15.237 -0.8953  0.8892 -1.2598
 2943TIP3   OH230319   0.094   4.976   3.381 -0.3873 -0.4943 -0.6583
 2943TIP3    H130320   0.010   4.934   3.362 -0.9373 -1.1009  2.5558
 2943TIP3    H230321   0.145   4.909   3.425  0.3693  0.9064  0.6947
 2944TIP3   OH230322   2.045   2.453   3.997 -0.0172 -0.9035 -0.4311
 2944TIP3    H130323   2.074   2.527   4.051 -1.3122 -0.8963  0.2757
 2944TIP3    H230324   2.049   2.378   4.056 -1.7175 -0.8488 -0.2094
 2945TIP3   OH230325   2.712   4.698   2.482  0.6319 -0.5088  0.2927
 2945TIP3    H130326   2.636   4.664   2.528  0.6298  0.2166  0.8499
 2945TIP3    H230327   2.785   4.644   2.513  0.5967 -0.1612  1.0006
 2946TIP3   OH230328   4.864   4.043   5.907 -0.0236  0.6776  0.0712
 2946TIP3    H130329   4.957   4.033   5.923  0.2549 -0.1140 -1.7980
 2946TIP3    H230330   4.826   4.063   5.993  1.5575 -1.1346  1.2482
 2947TIP3   OH230331   0.286   6.075  12.319 -0.1369 -0.2789  0.2207
 2947TIP3    H130332   0.365   6.110  12.360 -0.3095 -0.2102  0.4996
 2947TIP3    H230333   0.310   5.987  12.291  0.7955  0.6180 -1.9490
 2948TIP3   OH230334   5.690   4.555  14.481  0.3208 -0.0205 -0.5856
 2948TIP3    H130335   5.711   4.561  14.575 -1.6781  2.4666 -0.1924
 2948TIP3    H230336   5.734   4.631  14.442 -0.2573 -0.0663 -1.3411
 2949TIP3   OH230337   4.043   1.137   4.491 -0.1615  0.3425  0.0423
 2949TIP3    H130338   4.038   1.230   4.512  1.8425  0.4843  0.1234
 2949TIP3    H230339   4.060   1.135   4.397  0.3617  0.0979  0.1382
 2950TIP3   OH230340   4.556   5.669  13.761  0.3540 -0.4711  0.0823
 2950TIP3    H130341   4.550   5.589  13.709  1.6273 -0.1440 -0.6183
 2950TIP3    H230342   4.646   5.699  13.748 -0.3151  1.5306 -0.3743
 2951TIP3   OH230343   5.109   1.936   5.831  0.4262  0.5914 -0.7048
 2951TIP3    H130344   5.160   1.978   5.762 -1.1390  0.4939 -1.9616
 2951TIP3    H230345   5.019   1.963   5.816 -0.0846 -0.1450  0.7773
 2952TIP3   OH230346   1.743   2.607   5.010  0.5451 -0.0573  0.5597
 2952TIP3    H130347   1.681   2.668   5.051 -0.5853 -1.9011  1.7071
 2952TIP3    H230348   1.808   2.664   4.968 -0.7646  1.9327  1.0865
 2953TIP3   OH230349   1.306   4.433   4.418  0.5671  0.1334 -0.2366
 2953TIP3    H130350   1.235   4.496   4.425 -0.8613 -1.4186 -0.0997
 2953TIP3    H230351   1.359   4.447   4.496 -0.5289  0.2442  0.5136
 2954TIP3   OH230352   6.801   6.364   2.133 -0.5220 -0.8689 -0.5017
 2954TIP3    H130353   6.748   6.339   2.209 -1.6816  2.1249 -0.1823
 2954TIP3    H230354   6.850   6.440   2.162  0.1023 -0.5194 -2.3406
 2955TIP3   OH230355   1.688   4.715  13.913  0.1326 -0.4619  0.0561
 2955TIP3    H130356   1.713   4.682  13.999  1.7324  0.8218  0.1280
 2955TIP3    H230357   1.623   4.782  13.931  0.3152 -0.3380  0.2615
 2956TIP3   OH230358   1.309   6.470  14.965 -0.0083  0.6283  0.1947
 2956TIP3    H130359   1.267   6.484  14.880 -0.1867  0.1090  0.1926
 2956TIP3    H230360   1.343   6.556  14.990  2.6999  0.2823 -1.8022
 2957TIP3   OH230361   5.276   5.585   5.437  0.5982 -0.3334 -0.4452
 2957TIP3    H130362   5.222   5.528   5.382  0.3044 -1.1079  0.6226
 2957TIP3    H230363   5.348   5.528   5.466 -0.0245 -0.3643  1.1269
 2958TIP3   OH230364   0.824   4.700  14.329 -0.5729  0.1286 -0.3239
 2958TIP3    H130365   0.747   4.667  14.283 -1.1278  0.0096  0.6480
 2958TIP3    H230366   0.899   4.667  14.279 -1.1346  1.4253 -2.0889
 2959TIP3   OH230367   0.489   5.706   1.563  0.1713 -0.0468 -0.3732
 2959TIP3    H130368   0.578   5.679   1.541  0.3147 -1.5327  1.7278
 2959TIP3    H230369   0.492   5.729   1.656 -1.3795  1.1529 -0.5669
 2960TIP3   OH230370   3.010   6.417  11.875  0.4188 -0.4696 -0.1129
 2960TIP3    H130371   3.065   6.495  11.874 -0.7152  0.3382 -0.4814
 2960TIP3    H230372   2.965   6.419  11.791 -1.1649 -0.4073  0.7146
 2961TIP3   OH230373   4.180   6.714   4.482 -0.0836  0.3641  0.1816
 2961TIP3    H130374   4.263   6.750   4.449  0.0627 -0.3827 -0.2832
 2961TIP3    H230375   4.128   6.697   4.404 -0.5334  0.4661  0.4544
 2962TIP3   OH230376   0.920   5.773  15.126 -0.0598  0.3559 -0.0841
 2962TIP3    H130377   1.000   5.781  15.178 -0.6512 -0.4626  1.0002
 2962TIP3    H230378   0.903   5.862  15.094  2.2219  0.2404 -1.8477
 2963TIP3   OH230379   3.744   2.305   0.707  0.6708 -0.6456  0.6325
 2963TIP3    H130380   3.714   2.395   0.693  2.3522 -0.1638 -0.1846
 2963TIP3    H230381   3.748   2.295   0.802  1.0254  0.3724  0.7450
 2964TIP3   OH230382   3.916   1.473  10.753  0.1970  0.1135  0.9347
 2964TIP3    H130383   3.991   1.500  10.700  0.4733 -1.3148  0.5487
 2964TIP3    H230384   3.953   1.417  10.821 -0.6578 -2.3022 -0.4602
 2965TIP3   OH230385   3.262   3.561   2.114  0.0014  0.4385  0.4701
 2965TIP3    H130386   3.211   3.551   2.194 -0.6161  2.1087  0.3205
 2965TIP3    H230387   3.258   3.655   2.094  3.6601  0.7948  0.7688
 2966TIP3   OH230388   2.004   6.787   3.202 -0.1688  0.1560 -0.3962
 2966TIP3    H130389   1.965   6.839   3.132  0.0186 -0.9075 -1.3082
 2966TIP3    H230390   2.050   6.851   3.256  1.9797  0.7636 -2.7385
 2967TIP3   OH230391   0.634   4.305  11.982 -0.6352  0.5789  0.1454
 2967TIP3    H130392   0.638   4.210  11.986  2.1414  0.5958 -0.4855
 2967TIP3    H230393   0.712   4.331  11.933 -2.1607  3.1243 -1.1667
 2968TIP3   OH230394   0.723   6.474  16.512  0.0600  0.2489 -0.3282
 2968TIP3    H130395   0.641   6.482  16.464  0.4309  0.5059 -0.9362
 2968TIP3    H230396   0.790   6.504  16.450  0.5430  0.6746  0.3906
 2969TIP3   OH230397   0.076   4.279  16.532  0.8137 -0.3746  0.2319
 2969TIP3    H130398   0.148   4.318  16.481  0.1758  0.3076 -0.1623
 2969TIP3    H230399   0.110   4.194  16.558  1.1628 -0.7760 -1.3851
 2970TIP3   OH230400   5.072   2.002   1.959 -0.3388  0.0510  0.0427
 2970TIP3    H130401   5.152   2.048   1.937 -1.8653  2.1790 -1.5292
 2970TIP3    H230402   5.058   1.941   1.886 -2.0254  2.4351 -1.7692
 2971TIP3   OH230403   1.760   6.498   6.650 -0.0964 -0.5046 -0.0530
 2971TIP3    H130404   1.803   6.582   6.664 -0.8424 -0.3020  1.1044
 2971TIP3    H230405   1.830   6.442   6.614 -0.1586  1.1976 -3.2161
 2972TIP3   OH230406   5.989   5.350   2.351  0.7279  0.7688 -0.0030
 2972TIP3    H130407   5.911   5.326   2.400  0.2438 -0.0793 -1.1522
 2972TIP3    H230408   6.048   5.276   2.361  0.2920  0.2182 -1.3624
 2973TIP3   OH230409   5.703   3.713  13.110 -0.4572 -0.2736 -0.0055
 2973TIP3    H130410   5.670   3.803  13.114  1.1939  0.4417 -1.2037
 2973TIP3    H230411   5.775   3.711  13.173 -1.0460 -1.0370  0.6590
 2974TIP3   OH230412   4.875   0.725   0.238  0.0212  1.0672  0.0183
 2974TIP3    H130413   4.829   0.801   0.201 -0.0876  0.5985 -0.8569
 2974TIP3    H230414   4.953   0.716   0.184  0.2113  0.7719  0.3397
 2975TIP3   OH230415   6.526   4.330  12.444  0.1375  0.2674  0.1234
 2975TIP3    H130416   6.615   4.358  12.423  0.1176  0.0439 -0.2628
 2975TIP3    H230417   6.490   4.402  12.498  0.0769  1.0012 -0.8702
 2976TIP3   OH230418   0.810   2.985   1.304 -0.0323 -0.2251  0.2221
 2976TIP3    H130419   0.722   3.023   1.311  0.3764  0.6451  0.7852
 2976TIP3    H230420   0.800   2.911   1.244 -1.4011 -0.8969  1.2237
 2977TIP3   OH230421   6.176   0.254  13.202  0.1327  0.3906  0.2462
 2977TIP3    H130422   6.214   0.330  13.157  1.4971 -0.8732 -0.8583
 2977TIP3    H230423   6.082   0.262  13.188  0.4248  0.6997 -1.8145
 2978TIP3   OH230424   1.183   4.467   5.336 -0.1827 -0.1147  0.0803
 2978TIP3    H130425   1.246   4.530   5.371 -0.3570  0.2373 -0.2387
 2978TIP3    H230426   1.197   4.388   5.389  0.9878 -0.2553 -0.4174
 2979TIP3   OH230427   2.165   5.690  11.206  0.1625  0.7787 -0.1710
 2979TIP3    H130428   2.107   5.641  11.263 -0.3425  1.8098  0.2245
 2979TIP3    H230429   2.148   5.655  11.118 -1.3471  1.3271 -0.1144
 2980TIP3   OH230430   6.382   1.472  14.939 -0.4166 -0.3798 -0.4606
 2980TIP3    H130431   6.396   1.426  14.856 -1.2105  0.1388 -0.8878
 2980TIP3    H230432   6.349   1.558  14.914 -1.5373 -0.5385  0.4239
 2981TIP3   OH230433   5.393   1.991  16.578  0.1994  0.5540  0.0217
 2981TIP3    H130434   5.454   1.951  16.516 -1.1532 -0.8916 -0.4677
 2981TIP3    H230435   5.330   2.037  16.522  1.4182  3.0114  0.5621
 2982TIP3   OH230436   1.342   4.229   2.387  0.3227  0.2923  0.1895
 2982TIP3    H130437   1.265   4.215   2.441  0.4924  0.9699  0.6173
 2982TIP3    H230438   1.308   4.241   2.298  0.0235 -0.5131  0.1927
 2983TIP3   OH230439   6.786   3.217  16.406  0.0484 -0.1160 -0.2714
 2983TIP3    H130440   6.858   3.188  16.462  0.1815  1.0223  0.1780
 2983TIP3    H230441   6.827   3.227  16.319  0.6769  1.3422  0.1564
 2984TIP3   OH230442   0.702   3.137  14.418 -1.2058 -0.5325 -0.0526
 2984TIP3    H130443   0.688   3.158  14.325  1.0121 -2.2096 -0.8576
 2984TIP3    H230444   0.614   3.115  14.450 -1.7686 -2.1838 -2.4039
 2985TIP3   OH230445   2.157   6.802   2.084 -0.3874 -0.6831 -0.7815
 2985TIP3    H130446   2.073   6.845   2.100 -0.6743 -1.9878  1.8616
 2985TIP3    H230447   2.221   6.872   2.087 -1.0620 -0.0878  0.9921
 2986TIP3   OH230448   6.629   2.737  14.049 -0.0962 -0.7503 -0.2013
 2986TIP3    H130449   6.543   2.776  14.066  0.1380 -0.5491  0.5939
 2986TIP3    H230450   6.654   2.698  14.132  0.0943 -1.8047 -0.7397
 2987TIP3   OH230451   6.455   6.510  11.995 -0.5652 -0.5022 -0.6153
 2987TIP3    H130452   6.522   6.480  11.934  0.4231  0.2751  0.0633
 2987TIP3    H230453   6.471   6.603  12.006  0.8253 -0.9929  2.6231
 2988TIP3   OH230454   5.680   6.515  16.062  0.3229 -0.0809  0.2040
 2988TIP3    H130455   5.718   6.582  16.005 -0.0509  1.2136  1.4225
 2988TIP3    H230456   5.727   6.435  16.040 -0.0040  0.2878 -2.1299
 2989TIP3   OH230457   1.654   6.417  13.634  0.0480  0.1133 -0.0656
 2989TIP3    H130458   1.734   6.386  13.592  0.2278  1.7798 -1.0456
 2989TIP3    H230459   1.679   6.499  13.676 -0.4713 -0.8181  2.1867
 2990TIP3   OH230460   5.024   1.694  11.226 -0.4892  0.2517 -0.1103
 2990TIP3    H130461   5.016   1.613  11.276 -0.5669  0.5797  0.4165
 2990TIP3    H230462   4.966   1.755  11.271 -0.9704  0.4073 -0.9151
 2991TIP3   OH230463   5.565   3.589  15.783  0.1713  0.1975  0.2031
 2991TIP3    H130464   5.513   3.514  15.811  0.4133  1.0681  3.3646
 2991TIP3    H230465   5.630   3.552  15.724  0.2533 -2.1275  1.6090
 2992TIP3   OH230466   2.470   0.845   0.206  0.0215 -0.2545  0.3452
 2992TIP3    H130467   2.520   0.873   0.283  2.3814 -0.0421 -1.1740
 2992TIP3    H230468   2.522   0.774   0.168 -1.3561 -0.7103 -0.7612
 2993TIP3   OH230469   1.378   0.407   1.679 -0.0940  0.1434  0.3595
 2993TIP3    H130470   1.349   0.497   1.664  0.3645  0.7755  2.7564
 2993TIP3    H230471   1.298   0.361   1.707  0.1452  0.5099  1.7041
 2994TIP3   OH230472   3.448   2.554   0.367 -0.2027 -0.0203 -0.0174
 2994TIP3    H130473   3.375   2.501   0.336 -1.3611  0.9941  0.8873
 2994TIP3    H230474   3.475   2.514   0.449  0.8367 -0.8688 -0.7305
 2995TIP3   OH230475   4.314   4.574  12.569  0.4755  0.8337  0.0395
 2995TIP3    H130476   4.396   4.624  12.579  0.2857  0.8695  1.7564
 2995TIP3    H230477   4.290   4.550  12.659 -0.5924 -0.4994 -0.5727
 2996TIP3   OH230478   4.638   2.625  14.090 -0.0769  0.0852  0.1727
 2996TIP3    H130479   4.594   2.705  14.117 -0.6835  0.6020 -2.1243
 2996TIP3    H230480   4.574   2.578  14.037  1.3068 -0.3221 -1.2227
 2997TIP3   OH230481   5.406   4.281   4.226 -0.6957  0.6135  0.0684
 2997TIP3    H130482   5.476   4.345   4.216 -1.2520  1.0814 -0.9354
 2997TIP3    H230483   5.361   4.307   4.307  1.1788 -0.5975  1.5854
 2998TIP3   OH230484   0.973   6.799   3.186  0.1460  0.2493  0.1377
 2998TIP3    H130485   0.961   6.725   3.126  1.6401 -0.3220  0.4927
 2998TIP3    H230486   0.938   6.874   3.138 -0.5524 -0.5356 -0.6107
 2999TIP3   OH230487   3.353   4.004   2.719  0.7320 -0.6301 -0.0318
 2999TIP3    H130488   3.347   4.001   2.814  1.3102 -1.6938 -0.0060
 2999TIP3    H230489   3.417   4.072   2.700 -0.3564  0.5112  0.2666
 3000TIP3   OH230490   6.071   0.311  14.098 -0.1042  0.0974 -0.0097
 3000TIP3    H130491   6.086   0.327  14.192  0.1543  1.0692 -0.2085
 3000TIP3    H230492   5.992   0.361  14.078 -0.0193  0.0874 -0.3658
 3001TIP3   OH230493   1.163   4.615  16.736 -0.0769  0.8309 -0.0220
 3001TIP3    H130494   1.248   4.573  16.742 -0.6219 -0.1603  1.2513
 3001TIP3    H230495   1.152   4.661  16.819 -1.0204  0.4439  0.0865
 3002TIP3   OH230496   5.461   1.765   4.576 -0.1115 -0.0921 -0.2414
 3002TIP3    H130497   5.550   1.735   4.591  0.9139  0.7880 -3.5991
 3002TIP3    H230498   5.468   1.860   4.568 -1.4612  0.0584  0.0793
 3003TIP3   OH230499   3.539   4.156   3.794  0.2234 -0.2984  0.1507
 3003TIP3    H130500   3.541   4.080   3.736  1.1836 -0.3626  0.2438
 3003TIP3    H230501   3.452   4.154   3.834  0.3768 -1.5879  0.4686
 3004TIP3   OH230502   4.338   5.981  15.578  0.2666  0.0636 -0.2585
 3004TIP3    H130503   4.365   5.902  15.624  1.7428  0.5025 -0.3225
 3004TIP3    H230504   4.350   6.052  15.641 -0.6957  0.2998 -0.3216
 3005TIP3   OH230505   2.818   4.929  15.798 -0.2373 -0.2693  0.3290
 3005TIP3    H130506   2.770   4.911  15.717  0.3516 -0.0008 -0.0889
 3005TIP3    H230507   2.778   5.010  15.831  0.6378  0.5710 -0.6040
 3006TIP3   OH230508   5.011   5.166  13.990  0.0954  0.2583  0.1129
 3006TIP3    H130509   4.949   5.135  14.056  2.2599 -1.7274  1.3798
 3006TIP3    H230510   4.958   5.179  13.912 -2.0914 -0.1723  1.4234
 3007TIP3   OH230511   1.850   6.852  12.670  0.0979  0.1622 -0.2805
 3007TIP3    H130512   1.789   6.780  12.652 -2.0709  1.2293  2.1246
 3007TIP3    H230513   1.936   6.812  12.668 -0.9188 -2.1859 -0.4240
 3008TIP3   OH230514   1.118   6.217   4.928  0.1182  0.1898 -0.3698
 3008TIP3    H130515   1.088   6.303   4.899 -1.0309  0.1332  0.5524
 3008TIP3    H230516   1.158   6.178   4.851 -0.0652  1.2381 -1.0184
 3009TIP3   OH230517   0.690   2.876  11.322 -0.1077  0.1172  0.4183
 3009TIP3    H130518   0.766   2.854  11.376 -1.1817 -0.6537  1.6888
 3009TIP3    H230519   0.615   2.864  11.381 -1.1928  1.2813 -0.6626
 3010TIP3   OH230520   3.246   3.466   2.448  0.6872  0.4143 -0.2989
 3010TIP3    H130521   3.302   3.424   2.514  1.3253 -1.1348 -1.7635
 3010TIP3    H230522   3.173   3.405   2.436 -0.2681  1.4400  0.0805
 3011TIP3   OH230523   3.913   3.432  16.630 -0.0983 -0.0105 -0.1285
 3011TIP3    H130524   3.840   3.494  16.625 -0.3259 -0.3036 -0.4901
 3011TIP3    H230525   3.882   3.354  16.584 -0.5420 -1.1384  1.9540
 3012TIP3   OH230526   1.568   1.657  15.758 -0.7221  0.6305 -0.5505
 3012TIP3    H130527   1.604   1.657  15.670 -0.7181  0.3508 -0.5502
 3012TIP3    H230528   1.638   1.691  15.813 -0.7334  0.8285 -0.6589
 3013TIP3   OH230529   1.240   6.323   0.584  0.3755 -0.2116 -0.1139
 3013TIP3    H130530   1.216   6.231   0.597  0.7274 -0.1910  0.8109
 3013TIP3    H230531   1.322   6.333   0.634  1.4702  0.0925 -1.8919
 3014TIP3   OH230532   1.293   5.944   0.074  0.1036 -0.3569  0.0828
 3014TIP3    H130533   1.224   5.930   0.009 -0.8594  0.4074  0.9052
 3014TIP3    H230534   1.294   5.865   0.127 -0.9896  0.0847  0.8049
 3015TIP3   OH230535   4.052   0.671   3.761  0.0930  0.1304 -0.2373
 3015TIP3    H130536   4.051   0.746   3.820  1.8763 -1.9646  2.7054
 3015TIP3    H230537   4.137   0.676   3.717  0.9516 -0.9767  1.2221
 3016TIP3   OH230538   2.964   2.981   0.419  0.1757 -0.1549  0.1229
 3016TIP3    H130539   2.887   2.945   0.462  0.6012 -2.0609 -0.5854
 3016TIP3    H230540   2.940   3.071   0.397 -2.0546 -0.8274 -0.5120
 3017TIP3   OH230541   5.974   5.307  15.380  0.2914  0.3031  0.0956
 3017TIP3    H130542   5.890   5.351  15.369 -0.7206 -0.8653  2.4659
 3017TIP3    H230543   5.993   5.314  15.473  1.7458 -1.3631 -0.0219
 3018TIP3   OH230544   1.309   3.561   4.380  0.1187 -0.2132 -0.2667
 3018TIP3    H130545   1.332   3.646   4.416 -0.1797  0.0422 -0.6569
 3018TIP3    H230546   1.214   3.553   4.395 -0.3239  0.5612 -2.2587
 3019TIP3   OH230547   3.481   6.544  13.773 -0.3357 -0.0944  0.1542
 3019TIP3    H130548   3.393   6.524  13.802 -0.7483 -0.3750 -1.2071
 3019TIP3    H230549   3.521   6.458  13.756 -0.1230  0.0515 -0.1026
 3020TIP3   OH230550   5.957   6.155  13.896  0.5172 -0.0110  0.9132
 3020TIP3    H130551   5.959   6.211  13.818  1.4560  0.5066  1.2920
 3020TIP3    H230552   5.871   6.113  13.894  1.0955 -1.2531 -1.2927
 3021TIP3   OH230553   2.797   0.174   3.789  0.4635 -0.2740 -0.1049
 3021TIP3    H130554   2.856   0.147   3.718  0.3414 -1.6474  0.2790
 3021TIP3    H230555   2.798   0.269   3.786  0.8211 -0.2965 -1.6555
 3022TIP3   OH230556   0.432   0.701  13.573 -0.0657 -0.5345  0.1100
 3022TIP3    H130557   0.502   0.696  13.508 -0.5074 -0.1330 -0.4151
 3022TIP3    H230558   0.374   0.628  13.552 -0.5747  0.0035 -0.3995
 3023TIP3   OH230559   2.789   4.896  14.142 -0.2376  0.3408  0.0903
 3023TIP3    H130560   2.786   4.916  14.236  0.8782  3.5216 -0.4118
 3023TIP3    H230561   2.864   4.838  14.132 -0.9618 -0.8399  1.2377
 3024TIP3   OH230562   6.726   1.714  10.643  0.6911  0.5078  0.2751
 3024TIP3    H130563   6.697   1.770  10.571 -0.5570 -1.1488 -0.6059
 3024TIP3    H230564   6.690   1.628  10.621  3.7026 -1.0156  0.7955
 3025TIP3   OH230565   3.496   3.893  11.157 -0.3057  0.0072 -0.0055
 3025TIP3    H130566   3.551   3.897  11.079  0.9187 -0.5968  0.7896
 3025TIP3    H230567   3.494   3.983  11.189  1.5638 -0.1829  0.8055
 3026TIP3   OH230568   5.525   2.084  12.107  1.1683 -0.5977 -0.0518
 3026TIP3    H130569   5.499   1.998  12.140  0.0713 -0.7320 -1.2133
 3026TIP3    H230570   5.480   2.146  12.164 -0.6480 -0.8260 -1.1752
 3027TIP3   OH230571   6.166   4.075  16.609  0.3425  0.1689 -0.1162
 3027TIP3    H130572   6.124   4.143  16.555  1.1322  0.1653 -0.7610
 3027TIP3    H230573   6.255   4.107  16.621  0.8634 -0.9603 -0.8104
 3028TIP3   OH230574   1.537   2.084   4.306 -0.0428 -0.4957  0.1501
 3028TIP3    H130575   1.548   2.172   4.342  2.2748 -0.6211 -0.0836
 3028TIP3    H230576   1.588   2.027   4.365  1.0537 -1.1821 -1.3705
 3029TIP3   OH230577   0.161   1.860   4.638 -0.4707 -0.0329  0.2385
 3029TIP3    H130578   0.171   1.797   4.709  0.3100 -0.6289 -0.3774
 3029TIP3    H230579   0.075   1.842   4.600 -1.5642  1.2918  1.9580
 3030TIP3   OH230580   6.172   5.105   4.702  0.1450  0.2710 -0.0745
 3030TIP3    H130581   6.225   5.112   4.781  0.7171 -2.0392 -0.1847
 3030TIP3    H230582   6.217   5.039   4.648 -0.5806  1.2914 -2.0534
 3031TIP3   OH230583   3.192   6.415   3.391 -0.6023 -0.5048 -0.7515
 3031TIP3    H130584   3.139   6.485   3.354 -3.5441 -2.2329 -0.1629
 3031TIP3    H230585   3.184   6.426   3.485  0.3332 -0.6740 -0.6433
 3032TIP3   OH230586   3.130   6.855   1.064 -0.1614  0.1604  0.0644
 3032TIP3    H130587   3.123   6.932   1.120 -0.4502 -0.8183  1.4600
 3032TIP3    H230588   3.114   6.781   1.124  0.4233 -0.9958 -1.1501
 3033TIP3   OH230589   6.105   5.321   3.037  0.5939 -0.3013  0.2117
 3033TIP3    H130590   6.065   5.408   3.046 -0.2646 -0.9297  3.7783
 3033TIP3    H230591   6.175   5.320   3.102  0.3794 -2.3738  0.4591
 3034TIP3   OH230592   3.600   0.410   0.815 -0.2670 -0.0758  0.2754
 3034TIP3    H130593   3.659   0.341   0.786 -0.6130 -0.1623 -0.2520
 3034TIP3    H230594   3.573   0.384   0.903 -0.2349 -0.5116  0.1578
 3035TIP3   OH230595   6.086   5.797   4.216  0.4657 -0.1836  0.6377
 3035TIP3    H130596   6.106   5.766   4.128 -2.7173 -1.3357  0.1895
 3035TIP3    H230597   6.142   5.745   4.273  1.1903 -0.7920 -0.5883
 3036TIP3   OH230598   5.494   2.423   4.960  0.0119 -0.3336  0.0545
 3036TIP3    H130599   5.491   2.437   5.055  0.4143 -1.8425  0.3122
 3036TIP3    H230600   5.403   2.415   4.934 -0.1073  0.2354  0.2782
 3037TIP3   OH230601   2.861   4.154  15.622  0.8881 -0.5625  0.3199
 3037TIP3    H130602   2.939   4.187  15.668 -0.8927 -0.6695  3.7757
 3037TIP3    H230603   2.792   4.158  15.688 -2.4808  0.9750 -3.0207
 3038TIP3   OH230604   3.514   6.126   5.511  0.0637 -0.5218  0.0394
 3038TIP3    H130605   3.471   6.192   5.565  0.0359  0.3667 -1.0373
 3038TIP3    H230606   3.484   6.042   5.546  1.6792 -0.0802  2.7777
 3039TIP3   OH230607   2.987   6.322  14.141  0.0320 -0.1960 -0.7172
 3039TIP3    H130608   3.004   6.386  14.209  0.9354  1.1312 -2.1420
 3039TIP3    H230609   2.972   6.240  14.188 -0.3830  0.8760  1.1006
 3040TIP3   OH230610   3.253   6.154  14.260 -0.2886 -0.1046  0.5965
 3040TIP3    H130611   3.160   6.131  14.258 -0.3510  0.0030 -2.1494
 3040TIP3    H230612   3.294   6.086  14.312 -1.6380 -1.4381 -0.0030
 3041TIP3   OH230613   0.510   3.528   3.572 -0.0815  0.5316  0.0345
 3041TIP3    H130614   0.536   3.604   3.624  0.6452 -0.0901  0.5953
 3041TIP3    H230615   0.585   3.469   3.577 -0.2493  0.1902 -1.2092
 3042TIP3   OH230616   5.339   6.642   4.244  0.6165  0.0900  0.3496
 3042TIP3    H130617   5.399   6.653   4.171  1.3332  2.1110  1.1685
 3042TIP3    H230618   5.271   6.708   4.230 -0.2460 -0.7475  0.5419
 3043TIP3   OH230619   6.755   5.559  14.324 -0.6192  0.4173 -0.3387
 3043TIP3    H130620   6.819   5.630  14.330  0.1660 -0.1279 -1.8336
 3043TIP3    H230621   6.773   5.504  14.401  0.2691  0.6249 -0.3896
 3044TIP3   OH230622   4.332   0.295   4.352  0.2265  0.1303 -0.4514
 3044TIP3    H130623   4.335   0.201   4.336 -1.7611  0.0008 -0.2563
 3044TIP3    H230624   4.252   0.325   4.309  0.6222  1.6720 -0.1926
 3045TIP3   OH230625   5.746   6.276  14.135 -0.4816  0.3556  0.4690
 3045TIP3    H130626   5.838   6.260  14.155 -0.0024  0.6633 -1.2883
 3045TIP3    H230627   5.716   6.335  14.205  0.3339 -0.6146  1.6642
 3046TIP3   OH230628   6.035   1.632  16.519 -0.2683  0.0640  0.2588
 3046TIP3    H130629   5.973   1.601  16.453 -0.0584 -0.0068  0.0930
 3046TIP3    H230630   6.117   1.645  16.471  0.3844 -1.6875  0.8299
 3047TIP3   OH230631   5.862   5.093   6.205 -0.3210  0.0969  0.5085
 3047TIP3    H130632   5.841   5.003   6.180  3.4817 -0.5560 -1.0252
 3047TIP3    H230633   5.864   5.091   6.300 -2.8071 -0.6888  0.6184
 3048TIP3   OH230634   0.423   4.692   4.700 -0.4029  0.6569  0.3462
 3048TIP3    H130635   0.501   4.639   4.708 -0.9074  0.2256  3.1943
 3048TIP3    H230636   0.441   4.770   4.753 -0.8516  1.9565 -1.3013
 3049TIP3   OH230637   5.594   2.939   0.905 -0.4404 -0.3059 -0.1296
 3049TIP3    H130638   5.669   2.966   0.852  0.3389 -0.6936  0.7409
 3049TIP3    H230639   5.537   3.016   0.908 -0.4458 -0.2440 -1.4149
 3050TIP3   OH230640   1.245   5.302   3.008  0.3206  0.2630  0.4925
 3050TIP3    H130641   1.330   5.285   3.048  0.5676  1.2249  0.3951
 3050TIP3    H230642   1.241   5.398   2.999 -1.0060  0.2909  1.0458
 3051TIP3   OH230643   1.403   5.251  13.602  0.3783 -0.4004  0.4299
 3051TIP3    H130644   1.485   5.219  13.565  0.2121  0.4590 -0.7430
 3051TIP3    H230645   1.423   5.268  13.694  1.5089 -0.2167  0.1633
 3052TIP3   OH230646   0.639   1.724   0.966 -0.3803 -0.5920  0.4982
 3052TIP3    H130647   0.613   1.640   0.929 -1.4465 -0.8760  1.7826
 3052TIP3    H230648   0.733   1.716   0.982 -0.0861 -0.8125 -1.1460
 3053TIP3   OH230649   6.722   2.263   6.263 -0.3049 -0.8805 -0.4334
 3053TIP3    H130650   6.776   2.341   6.247 -1.2501 -0.1002  0.0591
 3053TIP3    H230651   6.773   2.210   6.323 -1.4159  1.4537  2.8899
 3054TIP3   OH230652   6.413   5.427   5.747 -0.3026 -0.0988  0.3551
 3054TIP3    H130653   6.328   5.385   5.763 -0.4339  0.1312  0.2639
 3054TIP3    H230654   6.450   5.442   5.834 -1.3711  1.8824  0.5306
 3055TIP3   OH230655   5.495   6.754  13.329  0.2744 -0.6270  0.0414
 3055TIP3    H130656   5.454   6.812  13.393 -0.7414 -1.2634 -0.0196
 3055TIP3    H230657   5.584   6.741  13.363  0.0609 -0.1695  0.7970
 3056TIP3   OH230658   6.140   0.909  14.507  0.3849  0.1422 -0.2281
 3056TIP3    H130659   6.051   0.876  14.518  0.3636 -0.6968 -2.3925
 3056TIP3    H230660   6.194   0.847  14.555 -0.1248  0.2406  0.4917
 3057TIP3   OH230661   0.196   0.482   4.805  0.2113 -0.2442  1.0049
 3057TIP3    H130662   0.219   0.419   4.873 -1.7273 -0.3391  1.6306
 3057TIP3    H230663   0.190   0.566   4.851 -0.6501 -0.2277  0.8700
 3058TIP3   OH230664   5.539   5.833  10.519  0.2680  0.3104 -0.1224
 3058TIP3    H130665   5.501   5.789  10.444 -1.2669  1.1400  0.1260
 3058TIP3    H230666   5.549   5.924  10.491 -0.8648  0.7537  0.8431
 3059TIP3   OH230667   3.611   3.170   1.384  0.3363 -0.4198 -0.2098
 3059TIP3    H130668   3.557   3.139   1.311 -0.8041  0.5666  0.1884
 3059TIP3    H230669   3.688   3.208   1.342 -0.1174 -0.2169 -0.8866
 3060TIP3   OH230670   1.775   4.808  11.199  0.1887 -0.1507  0.1926
 3060TIP3    H130671   1.729   4.726  11.219  0.2967 -0.4900 -0.8632
 3060TIP3    H230672   1.795   4.801  11.105  2.4000 -0.0324  0.5985
 3061TIP3   OH230673   3.124   5.280  14.796  1.1209  0.2185  0.6711
 3061TIP3    H130674   3.192   5.213  14.788 -0.4300 -1.6226  1.9733
 3061TIP3    H230675   3.144   5.323  14.880  0.7067 -0.3120  1.0463
 3062TIP3   OH230676   2.433   4.562   1.163 -0.2520  0.0883  0.5017
 3062TIP3    H130677   2.450   4.614   1.241 -2.1027  0.1226  0.9448
 3062TIP3    H230678   2.387   4.485   1.196 -1.5450  0.3598 -0.5814
 3063TIP3   OH230679   1.774   3.252   2.048  0.0833  0.8078 -0.3075
 3063TIP3    H130680   1.785   3.341   2.084 -1.9194  1.3405 -0.8897
 3063TIP3    H230681   1.733   3.266   1.963 -0.2212 -0.6890 -0.4241
 3064TIP3   OH230682   4.038   3.646   4.259 -0.1667  0.0454  0.1269
 3064TIP3    H130683   4.065   3.606   4.176  1.4200  1.3501 -0.0319
 3064TIP3    H230684   4.089   3.601   4.326 -1.4076 -0.9691  0.4427
 3065TIP3   OH230685   5.492   0.513   0.608 -0.1847 -0.0007  0.2165
 3065TIP3    H130686   5.403   0.525   0.642 -0.5788  0.2507 -0.8380
 3065TIP3    H230687   5.488   0.430   0.559 -0.0664  0.4050 -0.4988
 3066TIP3   OH230688   5.630   4.508   0.160 -0.2223 -0.3382 -0.4635
 3066TIP3    H130689   5.538   4.527   0.143 -0.0069  1.3118  0.1172
 3066TIP3    H230690   5.635   4.496   0.255  0.2118 -0.1295 -0.4586
 3067TIP3   OH230691   2.762   3.120   2.833 -0.5779 -1.2315  0.0685
 3067TIP3    H130692   2.676   3.077   2.837 -0.3990 -1.6583 -0.6164
 3067TIP3    H230693   2.814   3.065   2.775 -0.7118  0.5137 -1.8313
 3068TIP3   OH230694   3.989   1.516  11.620  0.1504  0.0838  0.0723
 3068TIP3    H130695   4.052   1.452  11.586  0.2927 -0.7169  1.7334
 3068TIP3    H230696   3.931   1.465  11.676  0.7331  1.4810  2.0728
 3069TIP3   OH230697   0.689   4.388  12.340 -0.0728  0.9915  0.0594
 3069TIP3    H130698   0.675   4.384  12.246 -0.4712 -1.0046  0.1590
 3069TIP3    H230699   0.730   4.304  12.362  0.2109  1.5078  1.6377
 3070TIP3   OH230700   5.403   0.384   5.564  0.6290 -0.1650 -0.1889
 3070TIP3    H130701   5.455   0.465   5.556  1.4200 -0.6668 -0.2414
 3070TIP3    H230702   5.431   0.347   5.647  1.5606 -1.2610 -0.9589
 3071TIP3   OH230703   6.837   6.022   3.062  0.0125 -0.0135  0.3474
 3071TIP3    H130704   6.827   5.963   3.137 -0.3524 -0.2839  0.0925
 3071TIP3    H230705   6.843   6.109   3.101 -0.3455 -0.1340  0.6848
 3072TIP3   OH230706   1.818   1.066  13.878  0.6750 -0.4630  0.1690
 3072TIP3    H130707   1.756   1.062  13.805  0.2725 -0.7785  0.5268
 3072TIP3    H230708   1.810   0.982  13.922  1.9013 -0.8114 -0.2121
 3073TIP3   OH230709   6.768   5.245   1.041 -0.1291 -0.4258  0.4966
 3073TIP3    H130710   6.692   5.299   1.022 -1.2366 -1.7541  0.9992
 3073TIP3    H230711   6.798   5.214   0.956  0.0635  0.3682  0.2698
 3074TIP3   OH230712   3.309   4.588  16.790  0.0393  0.1010  0.0495
 3074TIP3    H130713   3.224   4.621  16.761  1.0032  1.3343 -1.5518
 3074TIP3    H230714   3.338   4.530  16.720  0.1140 -1.0952  1.0354
 3075TIP3   OH230715   3.774   3.445  13.823 -0.1369 -0.1248  0.2126
 3075TIP3    H130716   3.834   3.513  13.855 -1.6569  0.1571  2.7582
 3075TIP3    H230717   3.747   3.475  13.737 -0.3800  2.2867  1.0555
 3076TIP3   OH230718   1.229   2.699   6.037 -0.7782 -0.3382  0.2309
 3076TIP3    H130719   1.211   2.722   6.129  1.3296  1.1677  0.3238
 3076TIP3    H230720   1.204   2.777   5.988  1.2792  0.1883 -0.0605
 3077TIP3   OH230721   5.945   0.852  11.822  0.9715  0.0873 -0.6113
 3077TIP3    H130722   5.881   0.784  11.840 -0.2399  1.1275 -0.8940
 3077TIP3    H230723   6.023   0.804  11.795  0.3398 -1.2004 -0.2387
 3078TIP3   OH230724   5.049   2.893  14.787 -0.3265  0.0853 -0.4958
 3078TIP3    H130725   5.003   2.964  14.832 -2.6625 -0.6740 -1.5630
 3078TIP3    H230726   5.107   2.938  14.725  1.2054  1.0734  1.5225
 3079TIP3   OH230727   4.403   2.681   5.071  0.5580 -0.2179 -0.2894
 3079TIP3    H130728   4.452   2.604   5.099 -1.3371 -2.2059 -2.0672
 3079TIP3    H230729   4.466   2.732   5.020  1.5417 -1.2585 -0.1643
 3080TIP3   OH230730   3.289   4.055  16.307 -0.4126 -0.0414  0.1436
 3080TIP3    H130731   3.279   4.019  16.219 -0.9488  1.8099 -0.6142
 3080TIP3    H230732   3.353   3.998  16.350 -0.5310 -1.2836 -1.2559
 3081TIP3   OH230733   4.422   1.763   2.951 -0.3918  0.7428 -0.0786
 3081TIP3    H130734   4.417   1.769   3.046 -1.6071 -1.9491  0.1279
 3081TIP3    H230735   4.345   1.810   2.920 -1.1612 -0.1410  0.4294
 3082TIP3   OH230736   3.469   5.737  11.414 -0.1219  0.1899  0.0291
 3082TIP3    H130737   3.457   5.643  11.406 -1.3340  0.3737 -0.6449
 3082TIP3    H230738   3.406   5.764  11.481  0.2974  0.5098  0.3017
 3083TIP3   OH230739   1.102   5.578  10.343  0.1952 -0.1834  0.2899
 3083TIP3    H130740   1.059   5.578  10.258 -2.5506  1.2013  1.5472
 3083TIP3    H230741   1.040   5.533  10.401  1.9118 -0.9648  1.6323
 3084TIP3   OH230742   6.205   6.111  15.642  0.1356  0.6905  0.4606
 3084TIP3    H130743   6.260   6.187  15.662  0.3520  0.4917  0.6224
 3084TIP3    H230744   6.230   6.046  15.707  1.3886 -0.2348 -0.8744
 3085TIP3   OH230745   2.521   0.273  11.830  0.0455  0.7407  0.0843
 3085TIP3    H130746   2.515   0.335  11.902 -2.0569  0.2477  0.3990
 3085TIP3    H230747   2.486   0.191  11.865  0.7766 -0.0504 -0.9448
 3086TIP3   OH230748   6.423   2.659   1.106  0.1263 -0.6763  0.8656
 3086TIP3    H130749   6.501   2.606   1.122 -0.4574 -1.8811 -0.0885
 3086TIP3    H230750   6.456   2.743   1.075  1.1218  0.0007  3.4911
 3087TIP3   OH230751   2.616   4.719   3.239 -0.2774  0.2106 -0.3901
 3087TIP3    H130752   2.577   4.648   3.188  0.4608 -0.4374 -0.0614
 3087TIP3    H230753   2.541   4.759   3.284 -0.6721 -0.5340 -0.3626
 3088TIP3   OH230754   0.249   5.831   3.718  0.4949  0.5667 -0.3861
 3088TIP3    H130755   0.257   5.925   3.733  0.5169  0.2047  2.2837
 3088TIP3    H230756   0.292   5.817   3.633  0.7885  2.8884 -0.6943
 3089TIP3   OH230757   0.228   1.177  16.420 -0.0374  0.0813 -0.1308
 3089TIP3    H130758   0.262   1.267  16.417 -0.4394  0.2209 -0.6683
 3089TIP3    H230759   0.153   1.183  16.479  2.0044 -0.6431  2.7679
 3090TIP3   OH230760   1.611   5.263  13.404 -0.2528  0.4831  0.0854
 3090TIP3    H130761   1.567   5.278  13.320  0.3656  1.9183 -0.0132
 3090TIP3    H230762   1.648   5.175  13.396  0.8958  1.0596 -1.6751
 3091TIP3   OH230763   0.936   1.809   1.467  0.1010  0.0828  0.2632
 3091TIP3    H130764   1.006   1.848   1.415  1.0747 -0.5845  1.0433
 3091TIP3    H230765   0.886   1.757   1.404  1.2786 -0.7451 -0.0259
 3092TIP3   OH230766   2.115   1.764  12.944 -0.1438 -0.1254  0.0772
 3092TIP3    H130767   2.160   1.742  12.863 -0.3305  1.3371 -0.4464
 3092TIP3    H230768   2.024   1.738  12.929 -0.2616  0.5152 -0.3439
 3093TIP3   OH230769   2.619   6.615   6.278  0.1005  0.2540  0.3529
 3093TIP3    H130770   2.636   6.632   6.370 -0.3568  0.8978  0.3279
 3093TIP3    H230771   2.527   6.591   6.274  0.3023 -0.5172  0.1526
 3094TIP3   OH230772   4.998   1.008   2.404  0.1087  0.5477  0.7483
 3094TIP3    H130773   4.906   0.987   2.388  0.3968  0.2294 -0.5827
 3094TIP3    H230774   5.046   0.956   2.340  1.1672  1.4060  0.8247
 3095TIP3   OH230775   5.207   2.137   4.826  0.6464  0.2841 -0.0894
 3095TIP3    H130776   5.214   2.176   4.739 -0.8304  1.9810  0.4931
 3095TIP3    H230777   5.191   2.044   4.808  1.1640  0.4544 -1.6019
 3096TIP3   OH230778   1.254   5.724  11.618  0.6859 -0.4693  0.0017
 3096TIP3    H130779   1.183   5.747  11.679 -0.0486 -3.1369  0.2644
 3096TIP3    H230780   1.327   5.779  11.646 -0.5532  0.6304  1.2651
 3097TIP3   OH230781   5.449   1.878  11.727 -0.0026  0.0299 -0.0746
 3097TIP3    H130782   5.379   1.867  11.662 -0.1241  1.8398 -0.2900
 3097TIP3    H230783   5.463   1.790  11.762 -2.0176 -0.4776 -0.4184
 3098TIP3   OH230784   1.625   6.260   0.126 -0.8948  0.4852 -0.0233
 3098TIP3    H130785   1.673   6.337   0.155 -1.2093  0.2278  1.2395
 3098TIP3    H230786   1.557   6.248   0.192 -0.4360 -1.2756  0.1620
 3099TIP3   OH230787   3.548   3.281   0.335  0.6622 -0.0182  0.2745
 3099TIP3    H130788   3.527   3.205   0.389 -0.3333  1.2381  1.7334
 3099TIP3    H230789   3.479   3.284   0.270 -0.0791  0.3968  1.0641
 3100TIP3   OH230790   4.582   0.648   4.208  0.2522 -0.5865 -0.3861
 3100TIP3    H130791   4.542   0.562   4.220 -0.0964 -0.3363  0.2703
 3100TIP3    H230792   4.581   0.688   4.294  4.0706 -1.4601  0.2689
 3101TIP3   OH230793   4.994   4.101   0.416  0.3027 -0.2020 -0.5528
 3101TIP3    H130794   5.020   4.010   0.407  1.0232 -0.5887  3.5710
 3101TIP3    H230795   4.901   4.097   0.439  1.3652 -0.5770  4.8482
 3102TIP3   OH230796   3.457   3.093   5.131  0.2587  0.2805  0.7422
 3102TIP3    H130797   3.382   3.136   5.171 -0.7210 -0.4508 -0.2478
 3102TIP3    H230798   3.520   3.083   5.203 -0.6582  0.7387  1.6348
 3103TIP3   OH230799   0.267   1.933  13.414  0.2979  0.4592 -0.0236
 3103TIP3    H130800   0.244   1.995  13.345 -1.2130  0.2866  0.2895
 3103TIP3    H230801   0.228   1.969  13.493 -0.3537 -0.7304  0.2190
 3104TIP3   OH230802   5.478   6.045   1.139  0.4336 -0.3933  0.0920
 3104TIP3    H130803   5.535   6.053   1.215 -0.2438 -1.1805  0.7091
 3104TIP3    H230804   5.468   5.950   1.126  0.6567 -0.2783 -1.0773
 3105TIP3   OH230805   2.046   1.505   4.396  0.2420  0.2482 -0.1787
 3105TIP3    H130806   2.030   1.429   4.340 -0.1284  0.2817 -0.1217
 3105TIP3    H230807   2.127   1.484   4.442 -1.0573 -1.2021  1.6324
 3106TIP3   OH230808   0.599   5.706  16.110  0.1279 -0.2782 -0.0760
 3106TIP3    H130809   0.612   5.770  16.040  1.3002  0.0686  0.4441
 3106TIP3    H230810   0.510   5.724  16.141 -0.9598 -1.3665 -2.3708
 3107TIP3   OH230811   6.031   1.476   6.292  0.2821  0.5504 -0.2054
 3107TIP3    H130812   5.947   1.521   6.280 -0.1953 -0.6092 -1.5230
 3107TIP3    H230813   6.055   1.493   6.383 -2.1415 -0.3411  0.6797
 3108TIP3   OH230814   0.937   6.113   0.254 -0.1609  0.7565  0.3250
 3108TIP3    H130815   0.886   6.137   0.176 -0.7016  0.6435  0.6339
 3108TIP3    H230816   0.996   6.187   0.267  0.7750  0.2557 -0.8781
 3109TIP3   OH230817   4.453   6.801   0.792 -0.0193  0.3387 -0.0903
 3109TIP3    H130818   4.382   6.746   0.824 -0.5581  0.3298 -1.2560
 3109TIP3    H230819   4.430   6.819   0.701  0.2558  2.2900  0.1784
 3110TIP3   OH230820   2.832   4.498  13.482  0.2509  0.2759  0.4511
 3110TIP3    H130821   2.769   4.564  13.512  1.2714  2.0179 -1.0363
 3110TIP3    H230822   2.917   4.530  13.513  0.7919 -0.1949 -0.5167
 3111TIP3   OH230823   6.275   4.185  11.007 -0.3761 -0.0724 -0.0671
 3111TIP3    H130824   6.324   4.163  11.086  0.1557 -1.3857 -0.7235
 3111TIP3    H230825   6.342   4.195  10.939 -0.8156  1.1443 -0.3424
 3112TIP3   OH230826   0.217   3.600   2.334 -0.1370  0.3870 -0.2728
 3112TIP3    H130827   0.132   3.611   2.293 -1.1936 -0.4962  1.5497
 3112TIP3    H230828   0.198   3.596   2.428  2.0986  1.8940  0.3242
 3113TIP3   OH230829   4.196   4.233   2.855 -0.0683  0.0847  0.0867
 3113TIP3    H130830   4.113   4.277   2.874 -1.1192 -1.1608 -1.3207
 3113TIP3    H230831   4.201   4.162   2.919  0.0122  0.2639  0.2817
 3114TIP3   OH230832   4.067   1.714   3.451 -0.4720 -0.0737  0.5312
 3114TIP3    H130833   4.066   1.708   3.356 -0.4879 -0.4925  0.5561
 3114TIP3    H230834   4.072   1.623   3.481  0.2560  0.0859  0.9211
 3115TIP3   OH230835   3.045   4.486   3.052  0.2719 -0.0614  0.0243
 3115TIP3    H130836   3.051   4.572   3.011  0.1367  0.5967  1.3656
 3115TIP3    H230837   3.133   4.468   3.085  0.6391 -1.0359 -1.3461
 3116TIP3   OH230838   2.436   1.942  10.432  0.4344 -0.0332 -0.3198
 3116TIP3    H130839   2.360   1.954  10.489  0.5449  0.1574 -0.2154
 3116TIP3    H230840   2.452   1.847  10.433 -0.8988 -0.3264 -1.7387
 3117TIP3   OH230841   6.117   3.631   4.768  0.1068 -0.2079 -0.1852
 3117TIP3    H130842   6.079   3.710   4.729  0.2557 -0.3098 -0.5358
 3117TIP3    H230843   6.171   3.664   4.840  0.9605  0.0905 -0.9400
 3118TIP3   OH230844   5.623   1.558  11.092  0.8053  0.1364 -0.4845
 3118TIP3    H130845   5.685   1.491  11.061  3.2217  2.0867 -0.1538
 3118TIP3    H230846   5.630   1.555  11.187  0.8493  0.7818 -0.4638
 3119TIP3   OH230847   5.672   5.475  13.262  0.0426  0.5151  0.2783
 3119TIP3    H130848   5.636   5.535  13.196  0.7494  2.8025  1.8492
 3119TIP3    H230849   5.747   5.434  13.218 -0.7193  0.4195 -0.9790
 3120TIP3   OH230850   6.559   3.478   2.283  0.4023  0.5937  0.0813
 3120TIP3    H130851   6.638   3.424   2.288  1.8923  2.6921  3.1166
 3120TIP3    H230852   6.535   3.492   2.375 -2.6192  1.3577 -0.7240
 3121TIP3   OH230853   6.218   0.430   1.874 -0.3672  0.6371  1.0977
 3121TIP3    H130854   6.273   0.498   1.834 -0.2752  0.5592  1.0918
 3121TIP3    H230855   6.134   0.437   1.828  0.0685 -0.1644  0.1263
 3122TIP3   OH230856   0.345   3.252  15.197 -0.6442  0.0859 -0.3980
 3122TIP3    H130857   0.303   3.193  15.135 -2.1258 -0.9287  1.4658
 3122TIP3    H230858   0.291   3.331  15.195 -1.1116 -0.2139  0.0741
 3123TIP3   OH230859   4.006   6.082   2.426  0.7769  0.4778  0.8054
 3123TIP3    H130860   4.049   6.027   2.492  1.9611 -0.2362 -0.4909
 3123TIP3    H230861   4.062   6.159   2.418  0.4488  0.7266  0.8674
 3124TIP3   OH230862   4.509   3.134  16.526 -0.1282 -0.5204  0.8131
 3124TIP3    H130863   4.470   3.072  16.587  0.0016 -0.0048  1.4356
 3124TIP3    H230864   4.527   3.082  16.448 -3.2278 -0.5131 -0.0282
 3125TIP3   OH230865   1.698   0.628  11.837 -0.0135 -0.8602  0.4096
 3125TIP3    H130866   1.702   0.622  11.933 -0.3091 -0.7790  0.4284
 3125TIP3    H230867   1.782   0.594  11.808  1.0002  1.1787  0.7685
 3126TIP3   OH230868   1.489   2.053  15.193 -0.3568 -0.3093  0.2335
 3126TIP3    H130869   1.582   2.062  15.209 -0.4858 -0.9134  1.4450
 3126TIP3    H230870   1.448   2.120  15.248 -0.6097  0.6690 -1.0865
 3127TIP3   OH230871   4.774   5.437  12.933 -0.0946 -0.5012 -0.1418
 3127TIP3    H130872   4.689   5.406  12.902 -0.6979  0.1461  0.8332
 3127TIP3    H230873   4.770   5.430  13.028  1.4287 -1.6745 -0.1095
 3128TIP3   OH230874   2.795   0.869  14.416  0.5115  0.2699 -0.3420
 3128TIP3    H130875   2.856   0.909  14.353  2.8268 -0.6209  1.1946
 3128TIP3    H230876   2.786   0.778  14.385 -0.3590  0.4820 -0.7476
 3129TIP3   OH230877   1.314   5.725   4.187  0.1013  0.0401  0.1370
 3129TIP3    H130878   1.248   5.669   4.228  1.3037 -0.0217  2.0992
 3129TIP3    H230879   1.389   5.667   4.172  0.7449  0.7161  0.6331
 3130TIP3   OH230880   0.283   1.714   3.132  0.0301  0.8177 -0.1533
 3130TIP3    H130881   0.193   1.697   3.103 -0.6488  0.4310  2.0323
 3130TIP3    H230882   0.328   1.630   3.121 -0.2940  0.6007  0.1579
 3131TIP3   OH230883   5.264   0.892   0.130  0.1429  0.2396  0.0131
 3131TIP3    H130884   5.342   0.902   0.076  0.6481 -1.4769  0.3602
 3131TIP3    H230885   5.191   0.898   0.068  0.5895  0.7897 -0.4729
 3132TIP3   OH230886   6.751   2.417   3.058 -0.4946  0.3568  0.3052
 3132TIP3    H130887   6.682   2.380   3.003 -0.2104 -0.9586  0.7986
 3132TIP3    H230888   6.805   2.468   2.997 -1.1627  0.3551 -0.3114
 3133TIP3   OH230889   4.864   3.643   5.979  0.2158 -0.0075 -0.0292
 3133TIP3    H130890   4.939   3.596   6.016 -0.2651 -0.3340  0.5493
 3133TIP3    H230891   4.861   3.726   6.028 -1.1450 -0.9425  1.5658
 3134TIP3   OH230892   1.782   6.729  16.011  0.7298  0.0382 -0.4014
 3134TIP3    H130893   1.817   6.818  16.006  0.6463  0.0609 -0.5855
 3134TIP3    H230894   1.797   6.692  15.923  0.5762 -0.0583 -0.3880
 3135TIP3   OH230895   3.123   4.783  14.837 -0.2915  0.7032  0.1573
 3135TIP3    H130896   3.101   4.875  14.835  1.0342  1.0419 -0.4800
 3135TIP3    H230897   3.179   4.770  14.760 -2.4177 -1.1745 -1.2017
 3136TIP3   OH230898   4.834   2.724  15.306  0.0854 -0.6500 -0.2452
 3136TIP3    H130899   4.909   2.772  15.273 -0.1819 -0.3663 -0.4433
 3136TIP3    H230900   4.817   2.761  15.393 -1.0598  0.6864 -1.0032
 3137TIP3   OH230901   2.277   1.222   0.912  0.0955  0.0021 -0.0420
 3137TIP3    H130902   2.370   1.231   0.935 -0.0829  0.3724  0.5680
 3137TIP3    H230903   2.254   1.134   0.941  0.1731  0.0370  0.1298
 3138TIP3   OH230904   5.984   6.288  16.451 -0.5066 -0.2556  0.3814
 3138TIP3    H130905   5.982   6.260  16.359 -1.2996  0.1343  0.2724
 3138TIP3    H230906   5.931   6.368  16.453  1.1962  0.9334  0.8003
 3139TIP3   OH230907   3.279   0.897   1.873  0.6910 -0.4412 -0.4127
 3139TIP3    H130908   3.213   0.843   1.915 -2.8040  0.6218 -3.9758
 3139TIP3    H230909   3.282   0.977   1.925 -0.7192 -0.5940 -0.0692
 3140TIP3   OH230910   6.748   5.661   1.393  0.2544 -0.5600  0.1870
 3140TIP3    H130911   6.655   5.671   1.373 -0.0247 -1.4096  1.0354
 3140TIP3    H230912   6.766   5.568   1.381  1.3317 -0.2170 -1.2959
 3141TIP3   OH230913   0.348   3.662  14.746  0.0059 -0.5177  0.0641
 3141TIP3    H130914   0.395   3.738  14.712  0.6092 -0.4042  1.1171
 3141TIP3    H230915   0.267   3.660  14.695 -1.4198  2.5619  1.9010
 3142TIP3   OH230916   1.553   1.002   5.589  0.6649 -0.5808  0.1130
 3142TIP3    H130917   1.599   0.923   5.560  1.5274  0.4879 -1.6496
 3142TIP3    H230918   1.477   1.008   5.531  1.0143  0.2517 -0.2756
 3143TIP3   OH230919   0.951   3.618  12.774  0.0839  0.6738  0.0823
 3143TIP3    H130920   1.021   3.611  12.710  0.3101 -1.9419  0.4897
 3143TIP3    H230921   0.995   3.617  12.859 -0.3479  1.0152  0.3139
 3144TIP3   OH230922   0.970   5.946   5.405  0.1207  0.0407  0.6683
 3144TIP3    H130923   0.895   5.959   5.347 -0.7947 -0.6331  1.6659
 3144TIP3    H230924   1.040   5.998   5.366 -0.1897 -1.0658 -1.5287
 3145TIP3   OH230925   1.323   2.957   4.927 -0.0225 -0.4160 -0.5487
 3145TIP3    H130926   1.274   3.038   4.939 -2.1074 -1.2768 -2.5425
 3145TIP3    H230927   1.398   2.982   4.872 -0.7519  0.1330 -1.3063
 3146TIP3   OH230928   1.311   2.646   1.681 -0.3044  0.2988 -0.1437
 3146TIP3    H130929   1.375   2.575   1.675  0.7115  1.0558  1.2090
 3146TIP3    H230930   1.226   2.601   1.684  0.2002 -0.7674 -0.9988
 3147TIP3   OH230931   0.073   0.475   3.216 -0.4630  0.2438 -0.7502
 3147TIP3    H130932  -0.017   0.499   3.194 -0.2446  1.8845 -0.0114
 3147TIP3    H230933   0.082   0.498   3.308  0.6128 -0.2459 -0.7213
 3148TIP3   OH230934   0.894   2.397  12.562 -0.1733  0.2734 -0.6918
 3148TIP3    H130935   0.901   2.316  12.511 -6.4895 -0.4671 -1.1421
 3148TIP3    H230936   0.884   2.466  12.496 -0.9789  0.4403 -0.4046
 3149TIP3   OH230937   0.683   1.481   5.032 -0.2996 -0.1052 -0.3074
 3149TIP3    H130938   0.656   1.389   5.036  0.7519 -0.3771  3.4986
 3149TIP3    H230939   0.768   1.480   4.989 -1.3535 -0.4943 -2.5565
 3150TIP3   OH230940   1.486   6.726  11.988 -0.0719 -0.2926 -0.7435
 3150TIP3    H130941   1.565   6.672  11.993  0.4871  0.5635  0.1320
 3150TIP3    H230942   1.492   6.770  11.903  0.4523 -0.1551 -0.6391
 3151TIP3   OH230943   6.706   3.417   3.988  0.4719 -0.0729 -0.4139
 3151TIP3    H130944   6.772   3.444   3.924  0.2331 -0.8510 -1.0021
 3151TIP3    H230945   6.670   3.499   4.022 -0.2029  0.3583 -2.1132
 3152TIP3   OH230946   1.792   6.671   1.853  0.8983  0.6958 -0.3233
 3152TIP3    H130947   1.697   6.668   1.858  0.9394  1.4277  2.3825
 3152TIP3    H230948   1.814   6.761   1.876  2.3089 -0.5070  3.9162
 3153TIP3   OH230949   0.643   2.921   2.612  0.4146  0.6323  0.6681
 3153TIP3    H130950   0.608   3.001   2.653  0.6165  0.7443  0.6245
 3153TIP3    H230951   0.583   2.852   2.639 -1.0852  1.1555 -1.1359
 3154TIP3   OH230952   5.686   1.176  14.897 -0.3380  0.3543  0.4998
 3154TIP3    H130953   5.704   1.262  14.860  0.2522 -0.9660 -2.5820
 3154TIP3    H230954   5.594   1.160  14.876  0.0218 -0.4428 -0.5471
 3155TIP3   OH230955   2.309   4.585   4.074  0.3481  0.3843  0.3634
 3155TIP3    H130956   2.264   4.606   3.993  1.1764 -1.4633 -0.6332
 3155TIP3    H230957   2.333   4.671   4.111 -0.1177  1.2666 -1.2806
 3156TIP3   OH230958   5.341   0.184   4.001  0.5034  0.4559  0.5150
 3156TIP3    H130959   5.273   0.234   3.955  0.0264 -0.1702  0.5222
 3156TIP3    H230960   5.346   0.101   3.954  0.0659 -0.1680  1.5288
 3157TIP3   OH230961   1.031   6.511   0.512  0.1042 -0.4670 -0.0487
 3157TIP3    H130962   1.001   6.426   0.544  0.4773 -0.7206 -0.3663
 3157TIP3    H230963   1.033   6.567   0.590  0.4848 -0.9266  0.2707
 3158TIP3   OH230964   3.615   0.290   5.704 -0.4558  0.0563 -0.0823
 3158TIP3    H130965   3.577   0.224   5.645  0.0777 -2.0160  1.7578
 3158TIP3    H230966   3.696   0.249   5.736  0.4226  2.0474  0.3891
 3159TIP3   OH230967   5.431   3.783   4.623 -0.5850 -0.4371  0.2094
 3159TIP3    H130968   5.411   3.794   4.530 -0.6314  0.5016  0.3205
 3159TIP3    H230969   5.365   3.836   4.668  1.2129  1.5946  0.6390
 3160TIP3   OH230970   0.697   0.225   4.524  0.1171  0.1945 -0.4597
 3160TIP3    H130971   0.790   0.207   4.509  0.2647  0.5557  0.0131
 3160TIP3    H230972   0.694   0.315   4.557 -0.4096  0.2151 -0.5446
 3161TIP3   OH230973   5.270   1.446   5.590 -0.2392 -0.2464 -0.0335
 3161TIP3    H130974   5.245   1.535   5.615  0.5797 -0.4056  1.4699
 3161TIP3    H230975   5.198   1.392   5.619 -0.3367 -0.1748 -0.1403
 3162TIP3   OH230976   6.802   3.362   0.171  0.5828  0.5063  0.7288
 3162TIP3    H130977   6.855   3.285   0.189  0.8773  0.6171  0.3635
 3162TIP3    H230978   6.744   3.335   0.100 -1.0484 -0.1432  2.2311
 3163TIP3   OH230979   4.826   3.491   4.420 -0.1839  0.1183 -0.1468
 3163TIP3    H130980   4.773   3.494   4.340 -0.8139  0.9447  0.2789
 3163TIP3    H230981   4.860   3.402   4.424 -2.2631 -0.6993  0.0291
 3164TIP3   OH230982   0.010   0.266  16.884 -0.7186 -0.3820  0.0431
 3164TIP3    H130983  -0.006   0.342  16.940 -1.2667  1.4244 -2.4001
 3164TIP3    H230984   0.071   0.211  16.934 -0.4996  1.5276  2.0022
 3165TIP3   OH230985   3.506   2.607   2.944  0.1242  0.3947  0.2165
 3165TIP3    H130986   3.462   2.573   3.022 -0.8608 -0.3300 -0.6364
 3165TIP3    H230987   3.523   2.530   2.890  0.0513  0.9721 -0.6525
 3166TIP3   OH230988   1.924   5.248  11.564  0.6078  0.1700  0.2152
 3166TIP3    H130989   1.906   5.252  11.657  1.0007 -1.6751  0.4114
 3166TIP3    H230990   2.018   5.265  11.557  0.5319  0.5641  0.1197
 3167TIP3   OH230991   0.739   4.361  14.305 -0.4575  0.4852 -0.3493
 3167TIP3    H130992   0.819   4.387  14.259  1.2540 -1.4314  1.3225
 3167TIP3    H230993   0.757   4.379  14.397 -1.7401 -0.5101  0.1289
 3168TIP3   OH230994   4.574   3.421  11.477 -0.2412 -0.0296 -0.1570
 3168TIP3    H130995   4.480   3.416  11.491 -0.5910 -1.3273 -2.4395
 3168TIP3    H230996   4.600   3.330  11.461  1.4023  0.3266  0.2856
 3169TIP3   OH230997   2.763   0.806  17.104  0.1280  0.1121  0.7661
 3169TIP3    H130998   2.739   0.756  17.025  2.0139 -0.2532  0.3732
 3169TIP3    H230999   2.729   0.754  17.177 -0.0702 -0.4756  0.2638
 3170TIP3   OH231000   0.566   3.121   1.325 -0.3357  0.3040 -0.6228
 3170TIP3    H131001   0.475   3.094   1.323 -0.2582 -0.2534  1.3969
 3170TIP3    H231002   0.563   3.214   1.350 -0.3551  0.3912 -0.9438
 3171TIP3   OH231003   5.005   4.085   2.270 -0.0238 -0.0488  0.0817
 3171TIP3    H131004   5.057   4.005   2.271  0.4231  0.1947 -1.2475
 3171TIP3    H231005   4.943   4.073   2.198  0.9622  1.3183 -1.0672
 3172TIP3   OH231006   4.773   4.694   2.538  0.2622 -0.5997 -0.4003
 3172TIP3    H131007   4.792   4.608   2.499 -0.3368 -1.7279  1.6285
 3172TIP3    H231008   4.701   4.728   2.486  0.3609 -1.4229 -1.1082
 3173TIP3   OH231009   5.938   3.558   3.740 -0.2835  0.1074  0.0638
 3173TIP3    H131010   5.864   3.582   3.685 -0.2669 -0.6182 -0.2900
 3173TIP3    H231011   5.899   3.522   3.819 -0.3117  1.4406  0.6927
 3174TIP3   OH231012   0.285   5.876   1.461  0.0408 -0.0011  0.2606
 3174TIP3    H131013   0.286   5.877   1.365 -3.2980 -1.9426  0.0435
 3174TIP3    H231014   0.359   5.819   1.484 -0.3275 -1.2042 -1.3093
 3175TIP3   OH231015   4.996   3.712  13.908  0.3913 -0.5866  0.2581
 3175TIP3    H131016   5.040   3.714  13.993 -0.8831 -1.4380  0.9785
 3175TIP3    H231017   4.928   3.780  13.915 -1.9345 -2.8555  1.2562
 3176TIP3   OH231018   1.629   0.396  16.239 -0.4859 -0.5481  0.3451
 3176TIP3    H131019   1.688   0.371  16.310  1.7327  0.1152 -1.1760
 3176TIP3    H231020   1.580   0.471  16.273  1.7544  0.8500  0.6202
 3177TIP3   OH231021   4.547   1.456   6.023  0.2487 -0.1340  0.0968
 3177TIP3    H131022   4.477   1.481   5.963  0.7626 -1.3989 -1.0897
 3177TIP3    H231023   4.531   1.363   6.042  0.1594  0.2024  1.8574
 3178TIP3   OH231024   2.428   2.389  13.454 -0.5208 -0.3394 -0.1440
 3178TIP3    H131025   2.377   2.312  13.431 -0.0095 -0.9095  0.5628
 3178TIP3    H231026   2.519   2.361  13.445 -0.3291  0.3540 -0.4220
 3179TIP3   OH231027   0.146   1.856   5.269 -0.3096 -0.6412  0.0016
 3179TIP3    H131028   0.103   1.801   5.204  0.5726 -0.4311 -0.7751
 3179TIP3    H231029   0.074   1.900   5.314 -0.9390  1.5211 -2.8329
 3180TIP3   OH231030   2.810   1.173  14.310  0.3561 -0.0144  0.1778
 3180TIP3    H131031   2.777   1.110  14.374  0.3684  2.0592  2.3575
 3180TIP3    H231032   2.879   1.221  14.356  1.1149  0.8797 -1.7630
 3181TIP3   OH231033   3.788   2.019  14.545  0.0339  0.2499  0.0913
 3181TIP3    H131034   3.864   1.960  14.548 -1.4258 -1.8587 -1.3889
 3181TIP3    H231035   3.712   1.961  14.547 -1.5475  2.2006  0.1775
 3182TIP3   OH231036   1.348   6.197   3.593  0.2673  0.0336 -0.0231
 3182TIP3    H131037   1.290   6.152   3.532 -0.1198  0.6471 -0.1060
 3182TIP3    H231038   1.435   6.164   3.571  0.2499  0.8931 -1.5104
 3183TIP3   OH231039   6.800   1.312   0.588  0.0023  0.1641 -0.0784
 3183TIP3    H131040   6.854   1.334   0.664 -0.5645  0.9498  0.0984
 3183TIP3    H231041   6.840   1.232   0.553  0.8053  0.2970  0.5147
 3184TIP3   OH231042   2.410   0.928  12.382  0.2715  0.0895 -0.7916
 3184TIP3    H131043   2.406   0.893  12.293 -0.6055  0.6453 -0.9916
 3184TIP3    H231044   2.318   0.947  12.404  0.4374 -0.3782  0.3685
 3185TIP3   OH231045   5.545   2.591  12.948 -0.6071 -0.0356 -0.4963
 3185TIP3    H131046   5.488   2.515  12.941  0.4222 -0.7554 -1.2935
 3185TIP3    H231047   5.605   2.584  12.874  0.9539  0.3252  0.6715
 3186TIP3   OH231048   4.463   1.359  12.649 -0.2851  0.2402 -0.1162
 3186TIP3    H131049   4.556   1.346  12.628 -0.1141  1.8124 -0.4067
 3186TIP3    H231050   4.457   1.341  12.743  0.6261  1.5781  0.2300
 3187TIP3   OH231051   0.402   0.483   4.577  0.1141 -0.0275 -0.2874
 3187TIP3    H131052   0.455   0.440   4.644  0.5649  2.2011  0.9100
 3187TIP3    H231053   0.312   0.475   4.609  0.1194 -0.6299 -0.4165
 3188TIP3   OH231054   4.420   0.869  11.826 -0.0338 -0.5604 -0.0515
 3188TIP3    H131055   4.489   0.803  11.836 -0.1104 -0.7501 -0.6935
 3188TIP3    H231056   4.429   0.925  11.902  0.8474 -0.5727 -0.1323
 3189TIP3   OH231057   6.473   5.367  14.090 -0.4587 -0.2050 -0.3152
 3189TIP3    H131058   6.414   5.292  14.080  1.0086 -1.1687 -2.6629
 3189TIP3    H231059   6.557   5.335  14.057  0.0865  2.6551 -2.0569
 3190TIP3   OH231060   2.030   2.557   2.557  0.0420 -0.1887 -0.2904
 3190TIP3    H131061   2.001   2.516   2.475  1.7020 -0.9793 -0.5231
 3190TIP3    H231062   2.120   2.583   2.540 -0.0951  1.0908  0.7892
 3191TIP3   OH231063   0.928   3.572  16.777  0.2438  0.0734  0.0398
 3191TIP3    H131064   1.018   3.599  16.759  0.3135 -0.2465 -0.0967
 3191TIP3    H231065   0.882   3.654  16.797  0.7346  0.1709  0.8367
 3192TIP3   OH231066   5.145   5.455   1.380 -0.7459 -0.5294  0.3824
 3192TIP3    H131067   5.110   5.493   1.299  0.1115 -1.6478 -0.5526
 3192TIP3    H231068   5.074   5.402   1.415 -1.1980  0.1429  0.4995
 3193TIP3   OH231069   0.838   2.493   1.794  0.2871 -0.1910  0.3128
 3193TIP3    H131070   0.765   2.434   1.815  0.6186  0.3171  3.3814
 3193TIP3    H231071   0.800   2.558   1.734 -1.1558 -1.2328  0.0595
 3194TIP3   OH231072   2.590   0.192  14.350 -0.6775 -0.0472  0.5581
 3194TIP3    H131073   2.643   0.272  14.356  0.3307 -0.4574 -1.6287
 3194TIP3    H231074   2.636   0.139  14.285 -2.3996 -1.5751  0.5200
 3195TIP3   OH231075   3.311   2.489  12.536 -0.0818  0.0077 -0.1503
 3195TIP3    H131076   3.371   2.418  12.516  3.0946  2.3133  0.4052
 3195TIP3    H231077   3.248   2.452  12.597  2.9545 -1.7771  2.1443
 3196TIP3   OH231078   0.799   4.498  14.749  0.7733 -0.7826  0.4366
 3196TIP3    H131079   0.736   4.443  14.795 -1.6132 -0.3501 -2.0881
 3196TIP3    H231080   0.812   4.456  14.664  1.6798  0.6431 -0.1871
 3197TIP3   OH231081   0.557   1.819   1.369 -0.0348 -0.0856  0.6746
 3197TIP3    H131082   0.471   1.860   1.365  0.6691  1.4158 -0.2374
 3197TIP3    H231083   0.609   1.879   1.422  1.3802  0.9996 -1.7556
 3198TIP3   OH231084   2.621   0.052   6.319  0.4489 -0.4885  0.4561
 3198TIP3    H131085   2.542   0.014   6.358  1.0086 -0.3822  1.7276
 3198TIP3    H231086   2.667   0.094   6.392 -0.7068  3.7722 -0.9356
 3199TIP3   OH231087   1.266   5.361  16.992 -0.1489 -0.2093  0.4660
 3199TIP3    H131088   1.324   5.285  17.000  1.8872  1.0775 -1.2258
 3199TIP3    H231089   1.300   5.424  17.055 -0.2964  0.2217  0.1138
 3200TIP3   OH231090   5.570   0.625  15.449  0.2375 -0.7674  0.6038
 3200TIP3    H131091   5.489   0.676  15.442 -0.4278 -1.5625  2.1906
 3200TIP3    H231092   5.612   0.658  15.528  0.7098 -1.3998  0.6190
 3201TIP3   OH231093   0.809   2.500   1.146 -0.2472 -0.0412  0.0447
 3201TIP3    H131094   0.806   2.419   1.095  0.1358 -0.9772  1.4382
 3201TIP3    H231095   0.859   2.476   1.224 -1.5030  1.1072  1.2390
 3202TIP3   OH231096   0.488   5.939  13.533  0.4239  0.1740 -0.3008
 3202TIP3    H131097   0.531   5.967  13.453 -1.0599  0.6209 -0.9757
 3202TIP3    H231098   0.554   5.951  13.602  1.3980  0.6846 -1.3035
 3203TIP3   OH231099   2.511   6.689  14.937  0.0557  0.0948 -0.1620
 3203TIP3    H131100   2.500   6.767  14.883 -3.5635  0.3187  0.6471
 3203TIP3    H231101   2.455   6.623  14.897 -1.2612 -0.3155  2.1640
 3204TIP3   OH231102   2.113   5.293   0.074  0.3617  0.3728 -0.2173
 3204TIP3    H131103   2.194   5.287   0.024  1.1282 -0.7538  1.1191
 3204TIP3    H231104   2.126   5.235   0.149 -1.8247 -0.1193 -0.1649
 3205TIP3   OH231105   1.505   4.130   3.449  0.3689  0.2926 -0.0941
 3205TIP3    H131106   1.571   4.182   3.494 -0.7936  0.8888  0.9992
 3205TIP3    H231107   1.554   4.072   3.392  1.7535  1.8298 -0.5242
 3206TIP3   OH231108   2.393   6.162   2.070 -0.0824  0.5864 -0.1475
 3206TIP3    H131109   2.318   6.109   2.099 -1.1489  2.4230  0.6632
 3206TIP3    H231110   2.405   6.138   1.978 -1.0779 -0.4261 -0.0391
 3207TIP3   OH231111   3.737   5.659   5.414 -0.2516 -0.1704 -0.3565
 3207TIP3    H131112   3.804   5.714   5.375  1.6736 -1.7767  0.5196
 3207TIP3    H231113   3.756   5.661   5.508 -0.0911 -2.2927 -0.3051
 3208TIP3   OH231114   2.290   5.898   4.796 -0.0890  0.0183  0.1405
 3208TIP3    H131115   2.250   5.851   4.722 -0.1382 -1.6930  1.1766
 3208TIP3    H231116   2.344   5.831   4.839 -0.3894  0.8538  1.8703
 3209TIP3   OH231117   6.718   2.122  11.025  0.0770 -0.1316  0.0730
 3209TIP3    H131118   6.808   2.102  11.001 -0.1075 -0.4089 -0.4106
 3209TIP3    H231119   6.715   2.110  11.120  0.3940 -0.7393  0.0105
 3210TIP3   OH231120   3.925   0.031  14.752 -0.8429  0.1228 -0.8862
 3210TIP3    H131121   3.970   0.104  14.710  1.5191 -0.4323  0.4408
 3210TIP3    H231122   3.935  -0.042  14.691  1.1435 -0.2669 -0.1835
 3211TIP3   OH231123   5.877   5.338   4.960 -0.9714  0.3838 -0.1771
 3211TIP3    H131124   5.929   5.361   4.883 -0.7127  1.0165  0.1776
 3211TIP3    H231125   5.942   5.322   5.029 -1.2047 -0.0522 -0.0545
 3212TIP3   OH231126   6.588   2.757   1.409 -0.8108 -0.2255 -0.5844
 3212TIP3    H131127   6.503   2.801   1.420 -0.4183  0.7848 -1.3157
 3212TIP3    H231128   6.650   2.829   1.396 -0.0545 -0.9863 -1.3431
 3213TIP3   OH231129   2.103   1.102   0.080 -0.1765 -0.3800  0.5089
 3213TIP3    H131130   2.187   1.066   0.052 -0.7419 -1.2093 -0.1585
 3213TIP3    H231131   2.124   1.191   0.108  1.3837 -1.4119  2.9622
 3214TIP3   OH231132   6.819   0.456   0.161 -0.1373 -0.6044 -0.0284
 3214TIP3    H131133   6.891   0.436   0.102  0.4597 -0.9757  0.8228
 3214TIP3    H231134   6.740   0.444   0.107  0.4338  0.3485 -1.1203
 3215TIP3   OH231135   0.102   0.544   5.923  0.1303  0.0881  0.7255
 3215TIP3    H131136   0.159   0.582   5.991  1.4963  2.3085 -1.4800
 3215TIP3    H231137   0.013   0.562   5.954  0.6947  0.5585  2.1676
 3216TIP3   OH231138   3.605   1.377   5.685  0.4158 -0.2420  0.2144
 3216TIP3    H131139   3.524   1.429   5.688 -0.7238 -1.8120  4.3012
 3216TIP3    H231140   3.674   1.439   5.708 -0.3213  0.3076  1.0108
 3217TIP3   OH231141   3.791   3.944   5.978  0.1298 -0.2040  0.3358
 3217TIP3    H131142   3.866   4.001   5.995 -0.3242  0.2916  0.6871
 3217TIP3    H231143   3.820   3.858   6.008  0.7242 -0.1103  0.0469
 3218TIP3   OH231144   0.443   6.200   2.442  0.1262 -0.3362 -0.2445
 3218TIP3    H131145   0.427   6.217   2.534 -1.6603  0.8885 -0.7236
 3218TIP3    H231146   0.469   6.285   2.406 -0.7479 -0.4306 -1.1489
 3219TIP3   OH231147   1.524   2.315  10.366  0.3662 -0.2247  0.0493
 3219TIP3    H131148   1.496   2.395  10.412  1.0444  0.4896 -0.7438
 3219TIP3    H231149   1.602   2.286  10.413 -0.1497 -0.6952  0.6251
 3220TIP3   OH231150   2.024   3.434   2.641 -0.6675 -0.1285 -0.1551
 3220TIP3    H131151   2.036   3.506   2.704  0.2742  0.4071 -0.9249
 3220TIP3    H231152   1.971   3.472   2.571 -0.3502 -0.2436 -0.4597
 3221TIP3   OH231153   5.373   0.451   2.146  0.4621 -0.5905 -0.4897
 3221TIP3    H131154   5.395   0.366   2.109  3.2172 -0.0355 -0.3003
 3221TIP3    H231155   5.423   0.455   2.228 -0.7896  0.6378  0.2666
 3222TIP3   OH231156   4.627   5.951   3.213 -0.8796 -0.5538 -0.4775
 3222TIP3    H131157   4.577   5.999   3.147  0.0841  0.1708 -0.6982
 3222TIP3    H231158   4.648   5.867   3.170 -1.1166 -0.4907 -0.7178
 3223TIP3   OH231159   2.791   0.585  12.506 -0.6069 -0.1337  0.3757
 3223TIP3    H131160   2.856   0.562  12.572  0.0803 -0.4218 -0.3848
 3223TIP3    H231161   2.723   0.632  12.554 -0.7309 -1.4193  1.4997
 3224TIP3   OH231162   5.367   2.684  11.429  0.1390 -0.1370  0.0402
 3224TIP3    H131163   5.400   2.773  11.442  0.6156 -0.0513 -1.4939
 3224TIP3    H231164   5.445   2.629  11.428  0.0632 -0.2643 -1.0988
 3225TIP3   OH231165   2.662   3.214  11.592 -0.5101 -0.0144  0.2071
 3225TIP3    H131166   2.633   3.249  11.676 -2.4533 -1.2023  0.0981
 3225TIP3    H231167   2.659   3.119  11.603  0.3144 -0.1939 -0.8655
 3226TIP3   OH231168   1.542   2.464   4.887  0.5082 -0.3672  0.2164
 3226TIP3    H131169   1.583   2.452   4.802  0.2508 -0.8922  0.1655
 3226TIP3    H231170   1.608   2.510   4.939  0.9208 -0.6432 -0.0602
 3227TIP3   OH231171   4.656   0.451  12.387  0.3220 -0.4017  0.5008
 3227TIP3    H131172   4.729   0.410  12.433  0.7232 -1.1240 -0.7247
 3227TIP3    H231173   4.670   0.428  12.295  0.0331  1.7180 -0.1114
 3228TIP3   OH231174   2.933   3.601  15.858 -0.1531 -0.9981 -0.3058
 3228TIP3    H131175   2.925   3.694  15.878 -0.9897 -0.5224 -2.4997
 3228TIP3    H231176   3.018   3.593  15.815 -0.7798 -0.9005 -1.6099
 3229TIP3   OH231177   1.824   5.026   0.985  0.7096  0.6867 -0.7382
 3229TIP3    H131178   1.789   4.956   0.931 -0.5465  0.9775 -0.3387
 3229TIP3    H231179   1.862   4.981   1.061  1.6138  0.3402 -1.3856
 3230TIP3   OH231180   3.976   1.474   6.034  0.2820  0.2332 -0.0757
 3230TIP3    H131181   4.048   1.458   6.096  2.0274 -1.5466 -2.3537
 3230TIP3    H231182   3.971   1.569   6.026  1.1787  0.4369  1.4694
 3231TIP3   OH231183   2.838   0.318   5.036  0.3292  0.0557  0.8665
 3231TIP3    H131184   2.806   0.366   5.113 -0.7571  0.0761  0.4283
 3231TIP3    H231185   2.766   0.259   5.014  0.9093 -0.4318  0.2748
 3232TIP3   OH231186   2.463   6.159  15.276 -0.3677 -0.5256  0.2952
 3232TIP3    H131187   2.559   6.166  15.273 -0.3668 -0.8243 -0.6218
 3232TIP3    H231188   2.434   6.193  15.192 -1.1236  0.2137  0.8377
 3233TIP3   OH231189   0.917   1.057  11.968  0.5508  0.2489 -0.1704
 3233TIP3    H131190   0.985   1.019  12.024 -0.6728 -2.4773 -0.3761
 3233TIP3    H231191   0.955   1.139  11.936  3.1647 -0.4820  0.8142
 3234TIP3   OH231192   6.300   5.737   4.551 -0.0459 -0.5595  0.4348
 3234TIP3    H131193   6.306   5.660   4.494 -3.1372  0.1040 -0.9920
 3234TIP3    H231194   6.334   5.809   4.499  0.1327 -0.4612  0.6812
 3235TIP3   OH231195   1.193   0.588  13.062  1.0134  0.3067 -0.5241
 3235TIP3    H131196   1.271   0.598  13.008  0.5285 -0.7787 -1.4698
 3235TIP3    H231197   1.204   0.503  13.105 -0.0312 -0.2629 -1.3425
 3236TIP3   OH231198   3.846   0.836  15.016 -0.2992 -0.0644  0.0235
 3236TIP3    H131199   3.888   0.843  14.930  2.1682  0.4152  1.1985
 3236TIP3    H231200   3.808   0.748  15.017  1.3951 -0.8477 -0.8096
 3237TIP3   OH231201   0.055   4.707   0.518 -0.0475 -0.0570  0.5609
 3237TIP3    H131202  -0.014   4.719   0.583  0.4858 -0.3726  1.2024
 3237TIP3    H231203   0.022   4.637   0.461 -0.1933 -0.3202  0.9596
 3238TIP3   OH231204   1.949   0.375  14.460  0.0367 -0.4298  0.1443
 3238TIP3    H131205   1.948   0.348  14.368 -0.2316 -1.4527  0.4360
 3238TIP3    H231206   2.041   0.386  14.481  0.0505  1.3876 -0.6732
 3239TIP3   OH231207   4.081   4.051   1.868 -0.3490  0.5519  0.5505
 3239TIP3    H131208   4.045   4.092   1.789  0.7157  0.5137  0.0323
 3239TIP3    H231209   4.152   3.996   1.836 -0.1228  0.2767  1.5084
 3240TIP3   OH231210   2.373   0.437  16.085 -0.0601 -0.0829  0.4863
 3240TIP3    H131211   2.319   0.501  16.039  1.6036  0.4268 -0.8778
 3240TIP3    H231212   2.330   0.425  16.170 -2.2606  0.2749 -0.5090
 3241TIP3   OH231213   3.626   2.434  14.075 -0.1100  0.0807 -0.4512
 3241TIP3    H131214   3.564   2.504  14.054  0.8048  1.4973  1.2508
 3241TIP3    H231215   3.596   2.399  14.158  1.1464  0.5588  0.2298
 3242TIP3   OH231216   5.319   6.054  15.011 -0.5028 -0.7861  0.0453
 3242TIP3    H131217   5.224   6.041  15.015 -0.2996 -2.1053  2.5426
 3242TIP3    H231218   5.355   5.988  15.070  1.9252  0.2416 -0.1536
 3243TIP3   OH231219   5.335   5.028   3.549 -0.1263  0.2199 -0.8665
 3243TIP3    H131220   5.356   5.034   3.642 -0.4133 -0.5261 -0.7455
 3243TIP3    H231221   5.399   4.965   3.514  0.3622  0.9413 -1.3021
 3244TIP3   OH231222   3.387   1.924   5.278  0.2109 -0.6471 -0.2594
 3244TIP3    H131223   3.321   1.854   5.278  0.9761 -1.3791 -0.2827
 3244TIP3    H231224   3.458   1.890   5.332  0.7062  0.0116 -0.4839
 3245TIP3   OH231225   4.110   4.710   2.406  0.0948  0.6450  0.1607
 3245TIP3    H131226   4.045   4.679   2.468  0.7414  0.0826  0.5736
 3245TIP3    H231227   4.145   4.790   2.445  0.4070  0.3632  0.4721
 3246TIP3   OH231228   1.491   3.402   5.290 -0.1406 -0.0633  0.5627
 3246TIP3    H131229   1.433   3.326   5.298 -0.0300 -0.3040 -0.7339
 3246TIP3    H231230   1.579   3.366   5.305 -0.1757  0.0136  0.9759
 3247TIP3   OH231231   5.143   6.425   2.237 -0.1778 -0.1413  0.4695
 3247TIP3    H131232   5.204   6.387   2.174  1.2841  1.3888  0.8847
 3247TIP3    H231233   5.062   6.436   2.188  1.6438  3.5937 -2.2200
 3248TIP3   OH231234   1.971   2.954   5.252  0.3512  0.2426  0.3379
 3248TIP3    H131235   1.877   2.974   5.251  0.1124 -0.6860  1.6384
 3248TIP3    H231236   1.976   2.864   5.222  0.9147  0.4926 -0.3567
 3249TIP3   OH231237   2.221   6.265  11.912 -0.2076  0.0457  0.1015
 3249TIP3    H131238   2.135   6.263  11.869 -0.1947  0.7350  0.0261
 3249TIP3    H231239   2.252   6.175  11.908 -2.1526 -0.8388  2.6792
 3250TIP3   OH231240   1.883   3.267   0.647  0.0533 -0.0741 -0.1542
 3250TIP3    H131241   1.859   3.353   0.680 -2.2378 -0.1219 -1.4939
 3250TIP3    H231242   1.857   3.206   0.716  0.3453  0.1908  0.1930
 3251TIP3   OH231243   2.026   0.991  11.228  0.0500 -0.1385  0.0205
 3251TIP3    H131244   1.934   0.993  11.254 -0.1768 -1.9150 -0.5448
 3251TIP3    H231245   2.070   1.048  11.291 -1.1336 -0.8678  1.5651
 3252TIP3   OH231246   4.381   1.832  13.872  0.2527 -0.9817 -0.0621
 3252TIP3    H131247   4.359   1.864  13.784 -0.8101 -2.2059 -0.2678
 3252TIP3    H231248   4.389   1.912  13.925 -0.6504 -0.2942 -0.9246
 3253TIP3   OH231249   6.546   6.820  12.207 -0.7243  0.0391  0.0375
 3253TIP3    H131250   6.525   6.817  12.113  2.3599  3.0965 -0.9741
 3253TIP3    H231251   6.589   6.736  12.224 -2.1159 -0.9412 -0.9951
 3254TIP3   OH231252   2.221   3.146  10.415  0.0480  0.3970 -0.4410
 3254TIP3    H131253   2.290   3.206  10.442 -0.8230  0.9740  0.6233
 3254TIP3    H231254   2.179   3.190  10.340  0.4744  0.3078 -0.7335
 3255TIP3   OH231255   3.406   2.843  13.381 -0.2009  0.2174  0.5927
 3255TIP3    H131256   3.366   2.794  13.309 -0.2049 -0.8351  1.3005
 3255TIP3    H231257   3.338   2.846  13.449  0.3671 -0.2223  1.1894
 3256TIP3   OH231258   6.040   2.978  13.421 -0.5717  0.3334 -0.0323
 3256TIP3    H131259   6.004   2.963  13.334 -1.0536 -0.9082  0.3588
 3256TIP3    H231260   6.000   3.061  13.449 -0.5583  0.6456 -0.9059
 3257TIP3   OH231261   4.348   5.767  13.223 -0.3392  0.3215  0.7239
 3257TIP3    H131262   4.362   5.810  13.139 -0.2368 -0.1324  0.5023
 3257TIP3    H231263   4.397   5.685  13.216 -1.4477 -0.3646  0.7077
 3258TIP3   OH231264   5.732   2.503  12.765 -0.1272 -0.4868 -0.5066
 3258TIP3    H131265   5.709   2.415  12.795 -0.8358 -0.0917  0.1630
 3258TIP3    H231266   5.813   2.491  12.716  0.8437 -1.2580  1.1880
 3259TIP3   OH231267   5.566   2.889  16.013 -0.2821 -0.1254 -0.3246
 3259TIP3    H131268   5.489   2.870  16.067  0.1013  1.1691  0.7686
 3259TIP3    H231269   5.636   2.904  16.077  0.5142  0.1701 -1.2436
 3260TIP3   OH231270   2.689   1.699  14.065  0.3549 -0.0651 -0.7357
 3260TIP3    H131271   2.731   1.707  14.151  1.8467 -0.1539 -1.4132
 3260TIP3    H231272   2.730   1.622  14.027 -0.4963 -0.1827 -1.4252
 3261TIP3   OH231273   3.238   4.997   1.114 -0.0294  0.1974  0.7870
 3261TIP3    H131274   3.175   4.940   1.158 -1.6086  0.9271 -0.4058
 3261TIP3    H231275   3.248   5.072   1.172  0.0192 -0.0873  1.1471
 3262TIP3   OH231276   0.684   1.657  14.037 -0.1226  0.4637  0.3786
 3262TIP3    H131277   0.675   1.749  14.015  0.4888  0.8202  1.5215
 3262TIP3    H231278   0.629   1.611  13.973  1.1213  1.4388 -1.4860
 3263TIP3   OH231279   0.816   0.193  13.532 -0.0407 -0.4375  0.1120
 3263TIP3    H131280   0.804   0.192  13.437 -0.0172 -2.7282  0.0701
 3263TIP3    H231281   0.746   0.249  13.565  1.9097  3.2192 -1.3850
 3264TIP3   OH231282   3.931   5.997  16.139 -0.5259  0.1380  0.0529
 3264TIP3    H131283   3.943   6.066  16.204 -0.4278  1.7666 -1.6017
 3264TIP3    H231284   3.837   5.982  16.135 -0.7416  1.5930 -0.9145
 3265TIP3   OH231285   0.749   2.912  15.688 -0.3856  0.4985  0.4836
 3265TIP3    H131286   0.749   3.000  15.726 -1.2823  0.7633 -0.1036
 3265TIP3    H231287   0.842   2.886  15.687  0.1330  2.1719 -0.9897
 3266TIP3   OH231288   2.395   5.191  16.896  0.3223  0.2926 -0.3220
 3266TIP3    H131289   2.460   5.158  16.959  0.7742 -0.6968 -1.2609
 3266TIP3    H231290   2.446   5.212  16.818 -0.2366  1.4558 -0.3837
 3267TIP3   OH231291   2.745   6.147   0.604 -0.1358  0.3999  0.1234
 3267TIP3    H131292   2.714   6.234   0.581  0.1434  0.6463  0.6526
 3267TIP3    H231293   2.840   6.150   0.590 -0.2089 -0.0455 -0.5417
 3268TIP3   OH231294   1.734   1.629  14.964  0.3943  0.2223  0.2320
 3268TIP3    H131295   1.759   1.616  14.872  3.7562 -0.2554  1.0573
 3268TIP3    H231296   1.700   1.718  14.967 -0.3616  0.0403 -1.5565
 3269TIP3   OH231297   1.282   3.673   1.053 -0.5888 -0.1077 -0.2509
 3269TIP3    H131298   1.267   3.629   1.137 -0.3947  1.9351  0.9069
 3269TIP3    H231299   1.204   3.651   1.001 -0.7820 -1.2957  0.4882
 3270TIP3   OH231300   6.277   5.903   1.976 -0.4685  0.3164 -0.0588
 3270TIP3    H131301   6.353   5.914   2.032 -0.1968  1.5020 -0.6278
 3270TIP3    H231302   6.243   5.817   1.998  0.2497  0.3244  1.1581
 3271TIP3   OH231303   0.085   1.404  15.251  0.9726 -0.4763  0.2236
 3271TIP3    H131304  -0.004   1.431  15.270  1.2237 -0.7711  1.9937
 3271TIP3    H231305   0.085   1.385  15.158 -0.6398  0.1438  0.0680
 3272TIP3   OH231306   2.681   5.163   2.893  0.0336 -0.2008  0.7764
 3272TIP3    H131307   2.640   5.184   2.809 -1.1800  2.0081  1.8142
 3272TIP3    H231308   2.630   5.089   2.927 -1.7614  1.1029  1.0518
 3273TIP3   OH231309   2.932   4.833   2.291 -0.6398  0.6076 -0.4309
 3273TIP3    H131310   3.008   4.872   2.248 -0.6460  0.9532 -0.1309
 3273TIP3    H231311   2.957   4.742   2.306 -0.0024  0.8953  0.3128
 3274TIP3   OH231312   6.245   2.180   6.088 -0.4713 -0.1267  0.9778
 3274TIP3    H131313   6.327   2.132   6.100 -0.2548 -0.5314 -1.4638
 3274TIP3    H231314   6.177   2.113   6.095 -0.4171 -0.2054  0.7511
 3275TIP3   OH231315   3.398   3.305  12.686 -0.1784  0.4161  0.1362
 3275TIP3    H131316   3.356   3.294  12.601 -0.2652  0.8872  0.1141
 3275TIP3    H231317   3.379   3.224  12.733  1.3775 -0.6254 -0.9305
 3276TIP3   OH231318   3.765   2.157  16.250 -0.6787  0.4774 -0.1595
 3276TIP3    H131319   3.804   2.202  16.325 -0.0691 -1.3643  0.6833
 3276TIP3    H231320   3.675   2.188  16.247  0.0250  2.6554 -0.3881
 3277TIP3   OH231321   6.450   3.827   4.052 -0.1996 -0.1619  0.0020
 3277TIP3    H131322   6.399   3.864   4.124  0.2570  0.3507  0.0683
 3277TIP3    H231323   6.411   3.741   4.036  0.7634 -1.0331  2.0182
 3278TIP3   OH231324   6.165   1.760   4.755  0.6274 -0.1723 -0.1131
 3278TIP3    H131325   6.173   1.697   4.683  0.0821  0.0681 -0.3914
 3278TIP3    H231326   6.079   1.741   4.793  0.7738 -0.0776  0.2699
 3279TIP3   OH231327   0.439   0.171   0.048  0.1394 -0.7653 -0.3187
 3279TIP3    H131328   0.483   0.209  -0.028 -1.4016  0.3768 -0.7015
 3279TIP3    H231329   0.497   0.191   0.122  0.7166 -0.1265 -0.9291
 3280TIP3   OH231330   5.151   5.263  10.507  0.4616 -0.0340 -0.4928
 3280TIP3    H131331   5.106   5.240  10.588 -1.5664  3.0555 -0.5527
 3280TIP3    H231332   5.232   5.306  10.536 -0.2301  1.0123 -0.0589
 3281TIP3   OH231333   6.445   3.533   3.080 -0.2454  0.0563 -0.3765
 3281TIP3    H131334   6.451   3.459   3.019 -1.4743  0.3380 -0.8733
 3281TIP3    H231335   6.516   3.518   3.142  1.4114  0.0363 -2.1563
 3282TIP3   OH231336   5.780   2.097  12.257  0.0422  0.2309 -0.1685
 3282TIP3    H131337   5.717   2.059  12.196 -0.3871 -1.3176  1.1507
 3282TIP3    H231338   5.833   2.156  12.204 -1.4413  0.2966 -1.6457
 3283TIP3   OH231339   1.039   4.122   4.403  0.3145  0.1690 -0.2550
 3283TIP3    H131340   1.064   4.111   4.495 -1.4410 -0.6305  0.1571
 3283TIP3    H231341   0.985   4.201   4.403  1.2530  0.8245 -0.8151
 3284TIP3   OH231342   3.893   6.698   4.076  0.0524  0.1689  0.6027
 3284TIP3    H131343   3.808   6.724   4.112  0.7733  0.5697  2.0808
 3284TIP3    H231344   3.918   6.620   4.127  0.6863  0.2035  0.3566
 3285TIP3   OH231345   4.636   4.634  15.927  0.3716  0.9637 -0.0655
 3285TIP3    H131346   4.668   4.702  15.987  2.2081  0.7434 -0.7177
 3285TIP3    H231347   4.702   4.631  15.858 -0.2588 -0.7018 -0.6349
 3286TIP3   OH231348   5.155   1.841   6.245  0.6468 -0.2995 -0.2542
 3286TIP3    H131349   5.246   1.845   6.274  0.5406 -1.2580  0.2839
 3286TIP3    H231350   5.107   1.897   6.306  0.7631 -0.4411 -0.0335
 3287TIP3   OH231351   2.769   2.840   2.712  0.2983 -0.0031 -0.2559
 3287TIP3    H131352   2.734   2.818   2.799  0.4818  0.4681 -0.0608
 3287TIP3    H231353   2.699   2.814   2.652  1.0576 -2.4829 -0.1777
 3288TIP3   OH231354   1.015   1.317   1.353 -0.5973 -0.3986  0.3725
 3288TIP3    H131355   1.030   1.229   1.319 -1.6173  0.0952 -1.5036
 3288TIP3    H231356   1.099   1.343   1.390  0.2755 -1.4440 -0.7882
 3289TIP3   OH231357   0.355   2.182   5.446  0.2882 -0.2274 -0.2323
 3289TIP3    H131358   0.380   2.264   5.490 -0.4032 -0.7976  1.2668
 3289TIP3    H231359   0.439   2.138   5.431  1.0402  1.9681 -3.7762
 3290TIP3   OH231360   6.169   4.705   6.021  0.4404  1.0446  0.1532
 3290TIP3    H131361   6.078   4.681   6.008  0.3040  1.7342 -0.1986
 3290TIP3    H231362   6.219   4.636   5.977  0.0259  2.1769 -2.2791
 3291TIP3   OH231363   5.737   5.249   2.442  0.3984 -0.7596 -0.3754
 3291TIP3    H131364   5.757   5.224   2.533 -1.2104 -2.1328 -0.3560
 3291TIP3    H231365   5.671   5.186   2.414  1.3164 -0.7592 -2.7313
 3292TIP3   OH231366   0.451   4.487   5.393 -0.2041  1.0167 -0.1482
 3292TIP3    H131367   0.512   4.523   5.328  1.2212 -0.1032  0.5257
 3292TIP3    H231368   0.500   4.418   5.437 -0.4553  2.8527  3.3559
 3293TIP3   OH231369   6.007   2.217   0.552  0.3496 -0.1539  0.0357
 3293TIP3    H131370   6.098   2.229   0.581  0.3167  1.8496 -0.5350
 3293TIP3    H231371   5.955   2.267   0.615 -0.0017  1.5492 -1.5245
 3294TIP3   OH231372   5.671   4.981   0.053 -0.5411 -0.0134  0.3422
 3294TIP3    H131373   5.690   4.950   0.142 -1.3613 -1.2893  0.1013
 3294TIP3    H231374   5.741   5.043   0.034  1.2434 -1.7458  0.8607
 3295TIP3   OH231375   0.465   3.913  13.691 -0.3766  0.2149  0.3613
 3295TIP3    H131376   0.469   3.994  13.742  3.2184  0.7559 -0.4879
 3295TIP3    H231377   0.483   3.844  13.755 -2.4664  0.1108  0.9054
 3296TIP3   OH231378   0.448   6.244   1.259 -0.3116 -0.0086  0.5977
 3296TIP3    H131379   0.376   6.277   1.206  0.3608 -0.1345 -0.4270
 3296TIP3    H231380   0.488   6.176   1.205 -0.1248 -0.7335  1.6274
 3297TIP3   OH231381   5.452   1.204   0.633  0.7893 -0.3096 -0.3503
 3297TIP3    H131382   5.404   1.274   0.589 -0.3546 -1.1897 -0.5595
 3297TIP3    H231383   5.467   1.139   0.566  1.4812 -0.4484 -0.0643
 3298TIP3   OH231384   0.167   2.876  11.833  0.7425 -0.5448  0.3326
 3298TIP3    H131385   0.199   2.791  11.861 -1.9002 -0.9561  2.4879
 3298TIP3    H231386   0.094   2.896  11.892  2.1466  3.9462  0.9870
 3299TIP3   OH231387   0.133   6.474   1.924  0.3392  0.3870  0.3650
 3299TIP3    H131388   0.084   6.430   1.992 -0.1745 -0.6215 -0.6274
 3299TIP3    H231389   0.091   6.447   1.842  1.2090  1.2107 -0.3858
 3300TIP3   OH231390   3.254   5.705  11.597 -0.9791 -0.0255  0.2960
 3300TIP3    H131391   3.264   5.611  11.615 -0.6202 -0.3849 -1.6153
 3300TIP3    H231392   3.160   5.720  11.607 -1.1285 -0.7228  0.0161
 3301TIP3   OH231393   3.244   3.835   1.020 -0.1292 -0.0069  0.4425
 3301TIP3    H131394   3.209   3.751   0.990 -0.9554  0.2920  0.5479
 3301TIP3    H231395   3.264   3.821   1.112 -2.2336  0.4926  1.0202
 3302TIP3   OH231396   4.077   0.405   3.638  0.1702  0.2435  0.2325
 3302TIP3    H131397   4.156   0.422   3.586  0.6750 -1.7231  0.2489
 3302TIP3    H231398   4.045   0.491   3.664  1.8772  1.1176 -0.4439
 3303TIP3   OH231399   1.315   0.338   0.698 -0.2415 -0.2617 -0.1705
 3303TIP3    H131400   1.281   0.390   0.625 -0.5013  0.0181  0.1492
 3303TIP3    H231401   1.390   0.291   0.661 -0.7437 -0.5990 -0.7849
 3304TIP3   OH231402   6.444   1.176   2.856 -0.1717  0.0006 -0.0720
 3304TIP3    H131403   6.441   1.165   2.951 -0.0777 -0.2401 -0.0985
 3304TIP3    H231404   6.403   1.261   2.841  0.7975  0.5389  0.2678
 3305TIP3   OH231405   1.811   2.671  13.244 -0.3306 -0.1487 -0.0887
 3305TIP3    H131406   1.864   2.698  13.319 -1.0341  2.1848 -0.3622
 3305TIP3    H231407   1.862   2.697  13.167 -0.3716 -1.0147 -0.4298
 3306TIP3   OH231408   1.026   4.971  16.800  0.3643 -0.3072 -0.6289
 3306TIP3    H131409   1.042   5.065  16.796 -0.1937 -0.1256  0.7749
 3306TIP3    H231410   1.111   4.931  16.787  1.1344  0.4836  1.5531
 3307TIP3   OH231411   1.294   0.161   4.411  0.1650 -0.0270  0.5352
 3307TIP3    H131412   1.335   0.114   4.484 -0.9490 -0.2234  1.0599
 3307TIP3    H231413   1.295   0.253   4.439 -0.5107 -0.1350  0.9347
 3308TIP3   OH231414   2.397   0.500  12.315 -0.3287 -0.5828  0.1264
 3308TIP3    H131415   2.481   0.540  12.295 -0.6418  0.4045  0.7145
 3308TIP3    H231416   2.386   0.433  12.247  0.8550 -0.6345 -0.0389
 3309TIP3   OH231417   4.724   6.684   6.152  0.4417  0.0830  0.1439
 3309TIP3    H131418   4.713   6.745   6.079 -1.2631 -0.1025  0.2031
 3309TIP3    H231419   4.760   6.605   6.111 -1.6855 -0.4754 -0.7853
 3310TIP3   OH231420   3.571   3.525  13.214 -0.3017 -0.1095  0.1386
 3310TIP3    H131421   3.483   3.556  13.236  0.6417  1.0504  2.6953
 3310TIP3    H231422   3.576   3.437  13.252  0.5605  1.0055  2.8328
 3311TIP3   OH231423   2.932   5.305  11.140  0.2641 -0.0982  0.0867
 3311TIP3    H131424   2.966   5.363  11.072  0.1495  0.5057  0.5271
 3311TIP3    H231425   3.011   5.265  11.178  0.4476  0.6942  0.5767
 3312TIP3   OH231426   4.857   2.220   0.624 -0.3114 -0.5408 -0.1489
 3312TIP3    H131427   4.810   2.141   0.651  0.7105 -0.6107  1.5953
 3312TIP3    H231428   4.935   2.221   0.679  0.9352  0.4156 -1.8346
 3313TIP3   OH231429   0.253   0.074   5.764 -0.4804  0.0742  0.0122
 3313TIP3    H131430   0.209  -0.002   5.800  0.2481 -0.2019  0.3526
 3313TIP3    H231431   0.190   0.146   5.773 -1.3262 -0.5695 -0.7095
 3314TIP3   OH231432   2.232   0.702  15.190 -0.1606  0.1379 -0.2452
 3314TIP3    H131433   2.216   0.745  15.274 -1.5234  0.6897 -0.7569
 3314TIP3    H231434   2.186   0.756  15.126  0.1614 -0.7315 -1.2474
 3315TIP3   OH231435   0.066   1.624   1.851  0.4076 -0.1130  0.1407
 3315TIP3    H131436   0.003   1.679   1.898 -0.0896  0.6724 -1.3614
 3315TIP3    H231437   0.092   1.677   1.776  0.6298 -1.5747 -0.8448
 3316TIP3   OH231438   0.797   5.792  14.634 -0.4238 -0.5333  0.0763
 3316TIP3    H131439   0.794   5.880  14.669 -1.2592 -0.5877  0.1511
 3316TIP3    H231440   0.878   5.754  14.670 -2.1369 -1.2572  3.5632
 3317TIP3   OH231441   5.312   6.707   2.525 -0.0152  0.2386  0.6937
 3317TIP3    H131442   5.313   6.775   2.458 -1.1566 -0.0514  0.3527
 3317TIP3    H231443   5.348   6.629   2.482 -0.9277 -0.0011  0.3287
 3318TIP3   OH231444   4.993   1.568   4.400  0.0308 -0.0853  0.1107
 3318TIP3    H131445   4.960   1.598   4.316  0.6202 -0.2115 -0.1678
 3318TIP3    H231446   5.085   1.593   4.401  0.0410 -0.1178  0.7014
 3319TIP3   OH231447   0.789   5.263  16.219 -0.2001  0.0627 -0.8269
 3319TIP3    H131448   0.815   5.211  16.143 -0.8909 -2.3674  0.4905
 3319TIP3    H231449   0.871   5.301  16.251  0.7671 -2.0160 -0.6357
 3320TIP3   OH231450   6.467   4.720   5.308  0.5588  0.3717  0.1992
 3320TIP3    H131451   6.409   4.643   5.312  1.6008 -0.4140  0.7212
 3320TIP3    H231452   6.480   4.745   5.400  2.6292 -0.7189  0.2554
 3321TIP3   OH231453   6.079   0.288  14.958  0.5785  0.5384  0.0495
 3321TIP3    H131454   6.007   0.299  14.896  1.6834  0.6419 -1.2687
 3321TIP3    H231455   6.057   0.347  15.030 -0.5885  0.6563 -0.3809
 3322TIP3   OH231456   1.698   2.769   2.168 -0.9256 -0.3014 -0.2531
 3322TIP3    H131457   1.713   2.861   2.189  0.0207 -0.4246 -0.3539
 3322TIP3    H231458   1.618   2.769   2.115  0.5854  0.7984 -2.6722
 3323TIP3   OH231459   3.110   5.920   2.401  0.6806 -0.8046  0.7014
 3323TIP3    H131460   3.074   5.911   2.489 -0.0199  0.3274  0.5524
 3323TIP3    H231461   3.060   5.991   2.362  1.1413 -1.1381 -0.5378
 3324TIP3   OH231462   3.521   5.279  13.010 -0.2925 -0.2701 -0.0164
 3324TIP3    H131463   3.572   5.212  12.964 -0.8275  0.9085 -2.4857
 3324TIP3    H231464   3.480   5.330  12.940 -1.5719  1.3549  1.8239
 3325TIP3   OH231465   1.735   4.405  12.774  0.5203 -0.2329 -0.1860
 3325TIP3    H131466   1.777   4.450  12.848  1.5452 -1.0808 -0.2214
 3325TIP3    H231467   1.741   4.467  12.702  1.2327 -0.1183 -0.0393
 3326TIP3   OH231468   2.619   6.166   5.240 -0.2579 -0.0466  0.4653
 3326TIP3    H131469   2.586   6.241   5.191  1.6902 -0.6745 -1.9891
 3326TIP3    H231470   2.595   6.090   5.188 -0.7989 -1.0745  2.1108
 3327TIP3   OH231471   2.303   3.396  12.992 -0.5645 -0.1957 -0.1063
 3327TIP3    H131472   2.354   3.397  12.911 -0.4542  3.3823 -0.1200
 3327TIP3    H231473   2.212   3.391  12.963 -0.4608 -1.6375 -0.2719
 3328TIP3   OH231474   4.779   6.842   2.883  0.4505  0.2895  0.0677
 3328TIP3    H131475   4.743   6.772   2.937 -1.5785  0.7330 -0.6078
 3328TIP3    H231476   4.874   6.832   2.890  0.2444 -2.4327  0.1135
 3329TIP3   OH231477   5.916   6.003  16.834 -0.6707  0.4892 -0.5722
 3329TIP3    H131478   5.925   6.097  16.851  0.0598  0.3915 -0.3976
 3329TIP3    H231479   5.922   5.995  16.739  1.1479  0.4464 -0.4952
 3330TIP3   OH231480   2.729   5.511   3.353  0.4155  0.1588 -0.5863
 3330TIP3    H131481   2.647   5.559   3.340  0.0460 -0.2744  0.1215
 3330TIP3    H231482   2.779   5.567   3.412 -0.0600 -0.3681  0.3265
 3331TIP3   OH231483   3.908   3.495   2.425 -0.3846  0.5659  0.7273
 3331TIP3    H131484   3.862   3.548   2.360 -0.8060  0.0158  0.5679
 3331TIP3    H231485   3.864   3.515   2.508 -0.6340  0.3700  0.6451
 3332TIP3   OH231486   4.222   5.468   3.562 -0.2078  0.5709 -0.3934
 3332TIP3    H131487   4.236   5.538   3.627 -0.4148  1.8197 -1.6587
 3332TIP3    H231488   4.128   5.454   3.562 -0.3494  1.4514 -1.2957
 3333TIP3   OH231489   6.651   0.450   4.954 -0.4169  0.2642  0.3164
 3333TIP3    H131490   6.690   0.505   5.022 -0.0403 -1.1715  1.3369
 3333TIP3    H231491   6.705   0.371   4.954 -2.1586 -0.9858  0.4090
 3334TIP3   OH231492   3.411   6.089  13.055 -0.0489  0.6687 -0.1539
 3334TIP3    H131493   3.480   6.049  13.002  1.2649  1.3615  0.9985
 3334TIP3    H231494   3.332   6.038  13.033  1.1430 -1.2177 -0.2442
 3335TIP3   OH231495   3.256   4.944  11.067 -0.9791  0.1144 -0.3255
 3335TIP3    H131496   3.205   4.998  11.006 -2.7588 -0.6701  0.3844
 3335TIP3    H231497   3.201   4.867  11.082 -0.2628 -0.0674  1.6933
 3336TIP3   OH231498   0.846   3.924  13.738 -0.1037  0.3934 -0.4241
 3336TIP3    H131499   0.930   3.938  13.782 -0.2000 -1.4283  0.4560
 3336TIP3    H231500   0.868   3.925  13.645  0.9882 -0.3365 -0.2055
 3337TIP3   OH231501   4.403   3.893  14.036 -0.1917  0.0969  0.4512
 3337TIP3    H131502   4.430   3.985  14.034 -0.8039  0.2757 -0.5455
 3337TIP3    H231503   4.441   3.856  13.956  0.0891 -0.5333  0.8740
 3338TIP3   OH231504   0.577   3.308  15.663  0.8276  0.4558  0.1383
 3338TIP3    H131505   0.567   3.279  15.573  1.3822  0.4091  0.0856
 3338TIP3    H231506   0.662   3.273  15.691  0.2727 -0.2730  0.9678
 3339TIP3   OH231507   0.701   0.516  15.191  0.1452  0.1493  0.0260
 3339TIP3    H131508   0.642   0.464  15.136  0.9087  0.3883 -1.0672
 3339TIP3    H231509   0.740   0.452  15.250  0.5918 -0.4355 -0.8694
 3340TIP3   OH231510   5.029   6.697  14.017  0.1560 -0.1414  0.7164
 3340TIP3    H131511   5.035   6.793  14.020  1.4333 -0.2111  3.1578
 3340TIP3    H231512   4.956   6.676  14.075  1.7386 -0.6500  2.6738
 3341TIP3   OH231513   1.687   4.866   0.830 -0.2171  0.5529  0.1340
 3341TIP3    H131514   1.688   4.841   0.738 -3.1518  0.9516 -0.1110
 3341TIP3    H231515   1.637   4.797   0.873  0.2331  0.9005  1.2692
 3342TIP3   OH231516   1.111   2.061   4.668 -0.2550  0.3546 -0.3821
 3342TIP3    H131517   1.154   2.145   4.683  0.8483 -0.1552 -0.6015
 3342TIP3    H231518   1.182   1.997   4.669 -1.2721 -0.8512  1.7635
 3343TIP3   OH231519   4.925   4.295   1.429  0.0393  0.1179 -0.5658
 3343TIP3    H131520   4.960   4.357   1.493  0.5433 -1.5008  0.7678
 3343TIP3    H231521   5.002   4.255   1.389 -0.2807 -0.3072 -0.7629
 3344TIP3   OH231522   1.555   0.191   0.696 -0.1761 -0.7935 -0.3976
 3344TIP3    H131523   1.621   0.233   0.751 -2.3486  2.0342  0.2699
 3344TIP3    H231524   1.524   0.117   0.748  2.2501 -2.1175 -0.6790
 3345TIP3   OH231525   2.244   4.428   5.446 -0.1598  0.7620 -0.1561
 3345TIP3    H131526   2.163   4.401   5.403  0.3412 -0.6013 -0.2924
 3345TIP3    H231527   2.217   4.458   5.532 -0.8789  0.9355 -0.4416
 3346TIP3   OH231528   2.282   2.131   5.957 -0.1537 -0.6373 -0.9821
 3346TIP3    H131529   2.283   2.220   5.922  1.4410 -0.5120 -0.7129
 3346TIP3    H231530   2.216   2.133   6.026  0.8808  0.7716  0.0223
 3347TIP3   OH231531   6.684   2.906  12.481 -0.6415  0.7686 -0.3598
 3347TIP3    H131532   6.768   2.925  12.439 -0.1576 -0.0260  0.2336
 3347TIP3    H231533   6.706   2.846  12.552 -1.4057  2.2103  1.1652
 3348TIP3   OH231534   3.576   4.620  12.573  0.0616 -0.1121 -0.5454
 3348TIP3    H131535   3.653   4.572  12.546 -0.3323 -0.4420 -1.1044
 3348TIP3    H231536   3.505   4.556  12.569 -0.1689  0.0588  0.4260
 3349TIP3   OH231537   1.382   4.167  12.534 -0.2181  0.3660 -0.7256
 3349TIP3    H131538   1.400   4.098  12.471 -1.2889 -2.3684  1.7373
 3349TIP3    H231539   1.459   4.169  12.591 -0.9855 -0.2735  0.3853
 3350TIP3   OH231540   2.745   1.823  11.699 -0.0896 -0.7601 -0.3529
 3350TIP3    H131541   2.658   1.834  11.661  0.3731  1.2615 -0.9426
 3350TIP3    H231542   2.804   1.821  11.625  0.6613  1.5655  0.0891
 3351TIP3   OH231543   0.512   2.777  16.164  0.2680 -0.6167 -0.1224
 3351TIP3    H131544   0.428   2.733  16.167  0.2569 -0.5816  0.1078
 3351TIP3    H231545   0.508   2.831  16.085  0.8316 -2.1142 -1.2089
 3352TIP3   OH231546   3.192   3.145   5.186  0.7184  0.2104 -0.1027
 3352TIP3    H131547   3.142   3.218   5.222  0.6452  1.1481 -2.0124
 3352TIP3    H231548   3.172   3.072   5.244 -2.7583  0.5699 -0.6407
 3353TIP3   OH231549   4.103   1.775   4.043 -0.7707  0.4664  0.4506
 3353TIP3    H131550   4.126   1.824   4.122  0.7781  0.4822  0.0203
 3353TIP3    H231551   4.071   1.691   4.076  0.1638  0.3458  1.1098
 3354TIP3   OH231552   0.437   4.911  13.327  0.0614 -0.5020  0.0652
 3354TIP3    H131553   0.385   4.831  13.331  0.4665 -0.7509  0.4567
 3354TIP3    H231554   0.374   4.982  13.340 -0.2226 -0.7884  0.2623
 3355TIP3   OH231555   3.692   6.155   1.093  0.0296 -0.2295 -0.1167
 3355TIP3    H131556   3.637   6.133   1.168 -2.4666  2.0359 -1.1017
 3355TIP3    H231557   3.684   6.079   1.035 -0.0568 -0.9405  0.7991
 3356TIP3   OH231558   4.962   1.346   6.465 -0.1658 -0.1897 -0.5853
 3356TIP3    H131559   4.932   1.306   6.383 -0.3478 -0.9578 -0.1536
 3356TIP3    H231560   5.048   1.307   6.481 -0.1528 -0.0788 -0.3806
 3357TIP3   OH231561   3.032   3.747  16.264  0.3554  0.6663 -0.1630
 3357TIP3    H131562   2.938   3.739  16.280  0.1938  2.0442 -0.2968
 3357TIP3    H231563   3.042   3.830  16.218  1.7250  1.0058  0.6754
 3358TIP3   OH231564   2.984   6.768  14.466 -0.2685  0.1641 -0.2711
 3358TIP3    H131565   3.034   6.785  14.545 -2.8133  0.3252  1.4159
 3358TIP3    H231566   2.970   6.854  14.427 -0.0534  0.2124 -0.2466
 3359TIP3   OH231567   0.448   5.938   4.085  0.4945 -0.2526  0.7049
 3359TIP3    H131568   0.531   5.891   4.092  0.0836 -0.9871  0.6744
 3359TIP3    H231569   0.383   5.871   4.066  0.0336  0.4307 -0.2540
 3360TIP3   OH231570   2.953   3.416   4.894 -0.0773 -0.0369  0.3954
 3360TIP3    H131571   2.883   3.378   4.840  0.4380 -0.7199  0.1871
 3360TIP3    H231572   3.034   3.377   4.859  0.5075  1.4356  0.0218
 3361TIP3   OH231573   4.212   0.560   2.243  0.0924 -0.4453 -0.4024
 3361TIP3    H131574   4.176   0.479   2.206 -2.1171  0.3781 -0.1741
 3361TIP3    H231575   4.252   0.605   2.169  1.5812 -1.8155 -0.4905
 3362TIP3   OH231576   1.770   1.296  13.048 -0.4555 -0.6512  0.0507
 3362TIP3    H131577   1.745   1.211  13.083 -0.3694 -0.6831  0.0321
 3362TIP3    H231578   1.817   1.277  12.967 -2.4500 -0.5316 -1.2214
 3363TIP3   OH231579   5.474   6.004   5.024  1.1393  0.0565  0.2635
 3363TIP3    H131580   5.499   6.078   5.079 -1.7402  0.3375  1.3850
 3363TIP3    H231581   5.467   6.040   4.936 -0.5175  1.2616  0.8458
 3364TIP3   OH231582   1.496   0.795  12.262 -0.2080 -0.2283  0.7728
 3364TIP3    H131583   1.528   0.882  12.239 -1.0314 -0.1199 -0.0295
 3364TIP3    H231584   1.401   0.805  12.265 -0.2956 -1.0588  0.8803
 3365TIP3   OH231585   5.709   4.752  15.331 -0.3650 -0.3868 -0.6158
 3365TIP3    H131586   5.794   4.792  15.317  0.1982 -2.1529 -3.1186
 3365TIP3    H231587   5.698   4.750  15.426  1.4041  1.7316 -0.2887
 3366TIP3   OH231588   1.731   0.860  14.078  0.2116  0.7804 -0.5928
 3366TIP3    H131589   1.809   0.865  14.134 -0.4323 -2.0680  0.7456
 3366TIP3    H231590   1.667   0.811  14.131 -1.8314  1.3883 -2.3785
 3367TIP3   OH231591   2.429   2.968  15.742 -0.4778 -0.8976  0.2111
 3367TIP3    H131592   2.400   3.008  15.660 -0.6322  0.9674  1.1259
 3367TIP3    H231593   2.361   2.992  15.805 -0.5727 -2.6483  0.8180
 3368TIP3   OH231594   5.819   4.531   1.299  0.0519  0.3681 -0.1169
 3368TIP3    H131595   5.751   4.593   1.275  0.2148  0.8903  0.7340
 3368TIP3    H231596   5.892   4.586   1.328  0.9256 -0.1722 -1.2378
 3369TIP3   OH231597   2.452   3.135   4.150  0.1238 -0.0037  0.2959
 3369TIP3    H131598   2.385   3.131   4.082  0.0815  0.7826  0.2815
 3369TIP3    H231599   2.534   3.145   4.103  0.0938  0.5457  0.3556
 3370TIP3   OH231600   3.454   3.734  14.660 -0.2533 -0.2618 -0.4752
 3370TIP3    H131601   3.482   3.823  14.682 -0.8502  0.1664 -1.3889
 3370TIP3    H231602   3.360   3.732  14.681 -0.1095 -0.8846  0.1532
 3371TIP3   OH231603   5.119   1.969  16.893 -0.3730 -0.6680 -0.4599
 3371TIP3    H131604   5.072   1.958  16.976 -0.9768  0.9362 -0.5497
 3371TIP3    H231605   5.202   1.922  16.906 -0.2075  0.0212  1.2680
 3372TIP3   OH231606   2.665   0.632   2.514  0.1055 -0.0018 -0.1045
 3372TIP3    H131607   2.739   0.599   2.462 -1.1661 -1.5951 -0.9758
 3372TIP3    H231608   2.672   0.727   2.508  0.8534 -0.1370 -1.9845
 3373TIP3   OH231609   1.549   5.972   1.539  0.1004  0.6301 -0.7925
 3373TIP3    H131610   1.581   5.895   1.492  0.3712 -0.8920  1.7249
 3373TIP3    H231611   1.457   5.952   1.558  0.3775  0.5292  0.5504
 3374TIP3   OH231612   3.719   1.723  12.490  0.4604 -0.3155  0.0116
 3374TIP3    H131613   3.787   1.790  12.496  0.3433 -0.1508 -0.4850
 3374TIP3    H231614   3.757   1.647  12.534  1.0199 -0.2679 -0.3744
 3375TIP3   OH231615   5.473   1.384  13.325 -0.2965 -0.4317  0.2820
 3375TIP3    H131616   5.559   1.373  13.366  0.2983  0.6537 -0.6097
 3375TIP3    H231617   5.477   1.328  13.247 -1.6088 -2.8928  1.8632
 3376TIP3   OH231618   3.964   1.062   5.868  0.0451  0.5446 -0.0179
 3376TIP3    H131619   3.939   1.133   5.926 -0.1316 -1.1066  2.0521
 3376TIP3    H231620   3.949   1.096   5.780 -2.9914  2.0366  0.9309
 3377TIP3   OH231621   2.848   3.142  12.735  0.0539 -0.6811 -0.1884
 3377TIP3    H131622   2.760   3.109  12.754  0.7085 -2.0381  0.5704
 3377TIP3    H231623   2.832   3.225  12.689 -1.6192 -1.1962 -0.6214
 3378TIP3   OH231624   0.520   2.495  11.333 -0.2803  0.0211 -0.2086
 3378TIP3    H131625   0.520   2.416  11.279 -2.5884  0.7001 -1.3288
 3378TIP3    H231626   0.567   2.560  11.281 -1.6440  0.3984 -1.0024
 3379TIP3   OH231627   1.909   4.739   4.049 -0.0094 -0.1543  0.3162
 3379TIP3    H131628   1.930   4.818   4.099  0.6280 -0.6036  0.7774
 3379TIP3    H231629   1.826   4.759   4.005  1.2386  1.5977 -1.3863
 3380TIP3   OH231630   4.758   5.883  15.745 -0.3631 -0.5543 -0.0014
 3380TIP3    H131631   4.834   5.853  15.696 -1.3653  0.4038 -2.2772
 3380TIP3    H231632   4.792   5.951  15.803  0.4096  0.6548 -1.7797
 3381TIP3   OH231633   3.016   0.247  11.163 -0.3904 -0.0419 -0.3990
 3381TIP3    H131634   3.087   0.226  11.104 -1.1783  0.9581 -1.7526
 3381TIP3    H231635   2.998   0.340  11.148 -0.0739  0.4846  2.0314
 3382TIP3   OH231636   6.286   1.164  16.159  0.6732 -0.0248  0.8455
 3382TIP3    H131637   6.280   1.260  16.158 -0.6568 -0.0884  1.0647
 3382TIP3    H231638   6.341   1.145  16.235 -0.4700  0.5232  1.8452
 3383TIP3   OH231639   6.350   4.772  11.787  0.1886  0.3139 -0.3536
 3383TIP3    H131640   6.432   4.820  11.781  0.1918  0.3397 -0.1191
 3383TIP3    H231641   6.325   4.755  11.696  1.2693 -1.0805 -0.4423
 3384TIP3   OH231642   2.714   5.527  14.477  0.3251  0.1471  0.2760
 3384TIP3    H131643   2.738   5.507  14.567 -0.9514  1.3862  0.9354
 3384TIP3    H231644   2.797   5.527  14.429  1.1076  0.1929  1.5945
 3385TIP3   OH231645   6.411   2.544  13.829  0.7449 -0.3412 -0.1513
 3385TIP3    H131646   6.441   2.617  13.775 -0.8597 -0.2560 -0.9867
 3385TIP3    H231647   6.368   2.586  13.904 -2.9332 -0.2182 -2.1121
 3386TIP3   OH231648   1.541   5.266  12.508  0.0741 -0.5668 -0.5907
 3386TIP3    H131649   1.633   5.288  12.491  0.2117 -0.6743 -0.0020
 3386TIP3    H231650   1.539   5.244  12.601 -0.2668 -1.9613 -0.9091
 3387TIP3   OH231651   4.222   3.924   2.216 -0.2505 -0.3258  0.6273
 3387TIP3    H131652   4.220   4.006   2.166 -1.6240  0.0986  1.3260
 3387TIP3    H231653   4.161   3.938   2.288 -1.4966 -2.3896  0.0724
 3388TIP3   OH231654   5.550   5.662  14.929  0.0000 -0.2335  0.2976
 3388TIP3    H131655   5.493   5.590  14.904 -1.0357  0.8554 -0.6270
 3388TIP3    H231656   5.503   5.741  14.900  1.7210  0.7339 -0.0257
 3389TIP3   OH231657   3.755   6.259   2.577 -0.2136 -0.8429 -0.4713
 3389TIP3    H131658   3.785   6.237   2.489 -0.7164  0.5456 -1.0072
 3389TIP3    H231659   3.812   6.207   2.635  2.5531  0.8545 -1.4635
 3390TIP3   OH231660   6.093   2.475  15.134  0.1408  0.2469 -0.3299
 3390TIP3    H131661   6.064   2.555  15.176  0.3926 -0.8685  2.1413
 3390TIP3    H231662   6.013   2.436  15.098 -0.3965  0.4158  0.6391
 3391TIP3   OH231663   3.644   1.648  16.989  0.1467  0.0957  0.6343
 3391TIP3    H131664   3.622   1.555  17.001 -0.1169  0.3477  2.3255
 3391TIP3    H231665   3.687   1.673  17.071  1.4865  1.1319 -0.3404
 3392TIP3   OH231666   6.408   2.345  12.653  0.5982  0.1228  0.2387
 3392TIP3    H131667   6.375   2.428  12.689  1.3425  0.5363 -0.0155
 3392TIP3    H231668   6.500   2.343  12.679  0.3854 -1.0236  0.9526
 3393TIP3   OH231669   2.256   6.200  16.092 -0.8133  0.2811 -0.4280
 3393TIP3    H131670   2.285   6.202  16.001  0.7721  1.3605  0.0344
 3393TIP3    H231671   2.314   6.136  16.134 -1.6049 -0.2905 -0.1968
 3394TIP3   OH231672   6.318   1.693   0.772  0.1291 -0.7118  0.1816
 3394TIP3    H131673   6.277   1.608   0.787  0.8264 -1.4318 -1.6953
 3394TIP3    H231674   6.328   1.698   0.677  1.3484  0.8887  0.3586
 3395TIP3   OH231675   5.617   0.657  16.845 -0.0516  0.0535  0.1839
 3395TIP3    H131676   5.699   0.696  16.877 -0.3424  1.1557 -0.3407
 3395TIP3    H231677   5.566   0.732  16.813 -0.7992 -0.7390 -0.5435
 3396TIP3   OH231678   5.161   4.833  14.309 -0.1037  0.1672 -0.1522
 3396TIP3    H131679   5.220   4.904  14.334 -1.0575  1.6126 -1.7693
 3396TIP3    H231680   5.113   4.813  14.389  1.0097  0.5214  0.6272
 3397TIP3   OH231681   6.725   6.583   0.635 -0.7226 -0.1597  0.0596
 3397TIP3    H131682   6.745   6.524   0.563 -0.1034  0.8442 -0.6164
 3397TIP3    H231683   6.810   6.607   0.672 -1.0423 -0.8497  1.2967
 3398TIP3   OH231684   5.048   5.301  13.287  0.2789  0.0778  0.2835
 3398TIP3    H131685   5.075   5.210  13.282 -1.4996 -0.4317 -1.4543
 3398TIP3    H231686   4.996   5.306  13.368 -0.6311 -0.7900 -0.2221
 3399TIP3   OH231687   2.167   3.350  16.222 -0.2764 -0.3157 -0.0063
 3399TIP3    H131688   2.187   3.266  16.263  2.2841 -0.0027 -0.4551
 3399TIP3    H231689   2.116   3.397  16.288 -3.3899 -2.7996 -0.4388
 3400TIP3   OH231690   6.091   1.828   3.043  0.2092  0.0231  0.3687
 3400TIP3    H131691   6.125   1.891   2.979 -1.0553  0.1850 -0.1833
 3400TIP3    H231692   6.006   1.802   3.007  0.5881 -1.8418  0.6953
 3401TIP3   OH231693   1.930   6.737  12.981  0.0016  0.7694  0.9916
 3401TIP3    H131694   1.912   6.713  13.072 -1.2331 -0.2696  0.5111
 3401TIP3    H231695   1.850   6.780  12.951 -0.2787 -0.4262 -0.0754
 3402TIP3   OH231696   2.350   2.605   1.453 -0.2862  0.6674 -0.4052
 3402TIP3    H131697   2.344   2.546   1.528  1.6465  0.3652 -0.4493
 3402TIP3    H231698   2.287   2.675   1.472 -1.0087 -0.2571  0.6962
 3403TIP3   OH231699   1.267   0.835  12.903 -0.4639  0.3694 -0.4438
 3403TIP3    H131700   1.323   0.870  12.972 -1.0130 -0.4230  0.4298
 3403TIP3    H231701   1.312   0.755  12.874 -0.5583  0.3566 -0.5551
 3404TIP3   OH231702   1.627   3.756  12.155  0.4359 -0.1219  0.2948
 3404TIP3    H131703   1.555   3.694  12.168  0.4528  0.1036  1.5415
 3404TIP3    H231704   1.704   3.700  12.143  0.2663 -0.3552  0.2858
 3405TIP3   OH231705   2.492   5.523  16.682 -0.3075  0.0810 -0.0507
 3405TIP3    H131706   2.513   5.573  16.762 -0.0475  0.5176 -0.3848
 3405TIP3    H231707   2.563   5.545  16.622 -1.5915  1.4377 -1.1472
 3406TIP3   OH231708   2.336   3.204  14.653  0.0669 -0.3068 -0.2120
 3406TIP3    H131709   2.365   3.143  14.585 -0.1104 -1.4115  0.6705
 3406TIP3    H231710   2.280   3.266  14.607  0.4784 -0.6318 -1.1867
 3407TIP3   OH231711   5.594   5.345  15.585 -0.1148  0.3506 -0.7034
 3407TIP3    H131712   5.502   5.357  15.559 -0.0500  2.0815 -0.2710
 3407TIP3    H231713   5.589   5.310  15.673 -0.4105  1.9742 -0.0393
 3408TIP3   OH231714   3.596   6.835   5.757  0.5088 -0.4861  0.9322
 3408TIP3    H131715   3.559   6.831   5.668  1.4605  1.2411  0.4100
 3408TIP3    H231716   3.526   6.803   5.813 -0.4529 -0.7528 -0.3643
 3409TIP3   OH231717   1.520   5.005  14.465  0.0271  0.2699  0.5648
 3409TIP3    H131718   1.466   5.067  14.515 -0.9398  0.3873 -0.5732
 3409TIP3    H231719   1.540   4.935  14.527 -3.5239 -1.0581  0.4800
 3410TIP3   OH231720   6.173   1.010   3.365  0.3127 -0.0407  0.2425
 3410TIP3    H131721   6.210   1.078   3.422  1.8760 -0.2766 -0.4521
 3410TIP3    H231722   6.247   0.979   3.314 -1.0031  0.0046 -1.7856
 3411TIP3   OH231723   6.055   0.232  12.117  0.3713 -0.5154  0.1197
 3411TIP3    H131724   5.976   0.286  12.128  0.4185  0.0566 -1.9096
 3411TIP3    H231725   6.022   0.148  12.083  0.5874 -0.3581 -0.4996
 3412TIP3   OH231726   1.436   4.503   3.211 -0.0773 -0.2709 -0.1809
 3412TIP3    H131727   1.392   4.574   3.165 -0.3763 -0.5385 -0.3150
 3412TIP3    H231728   1.525   4.502   3.175  0.9113  1.9370  1.8959
 3413TIP3   OH231729   4.402   6.357  15.874 -0.6160 -0.4208  0.3577
 3413TIP3    H131730   4.387   6.417  15.800 -0.9632 -0.8381  0.0884
 3413TIP3    H231731   4.343   6.284  15.858  0.3442 -1.2058  0.2729
 3414TIP3   OH231732   2.170   2.131  14.060 -0.4526  0.1173  0.0483
 3414TIP3    H131733   2.163   2.224  14.039  0.5346 -0.1257 -1.5685
 3414TIP3    H231734   2.136   2.087  13.983  3.1398 -0.8497 -1.1521
 3415TIP3   OH231735   0.788   5.467   4.057 -0.1553  0.0069  0.1618
 3415TIP3    H131736   0.869   5.439   4.098 -0.5116  0.5669  1.2891
 3415TIP3    H231737   0.742   5.385   4.037 -0.1083 -0.2801  1.1778
 3416TIP3   OH231738   4.931   4.484   5.893  0.2995 -0.0240 -0.0918
 3416TIP3    H131739   5.017   4.523   5.908  0.3164  1.0753 -2.4867
 3416TIP3    H231740   4.874   4.527   5.956  1.0246  1.2768 -0.2782
 3417TIP3   OH231741   0.933   1.366   4.656  0.0128 -0.1531  0.3373
 3417TIP3    H131742   0.883   1.418   4.593 -0.0073 -1.2716 -0.6154
 3417TIP3    H231743   1.018   1.353   4.613  0.0945 -0.7027  0.6558
 3418TIP3   OH231744   1.369   0.549  11.272 -0.1673  0.2827  0.5134
 3418TIP3    H131745   1.363   0.527  11.179 -1.2883  1.0278  0.3911
 3418TIP3    H231746   1.317   0.629  11.281  0.9252  0.8919  1.5673
 3419TIP3   OH231747   5.153   6.619  15.965 -0.4664 -0.1769  1.2419
 3419TIP3    H131748   5.240   6.587  15.986 -1.0484 -1.3042  2.0135
 3419TIP3    H231749   5.096   6.542  15.972 -1.0277 -0.3730 -2.8459
 3420TIP3   OH231750   3.298   1.232   5.603 -0.2887 -0.4191 -0.7770
 3420TIP3    H131751   3.364   1.205   5.539  1.5952  0.5464  0.6378
 3420TIP3    H231752   3.316   1.325   5.617  1.0354 -1.0384  2.8503
 3421TIP3   OH231753   0.400   0.530   3.900 -0.1871  0.4874 -0.4263
 3421TIP3    H131754   0.428   0.575   3.979 -0.5763 -1.3423  0.8332
 3421TIP3    H231755   0.443   0.576   3.828  0.6029  1.8696  0.8903
 3422TIP3   OH231756   1.815   3.175  13.579 -0.3367  0.6227 -0.5577
 3422TIP3    H131757   1.743   3.135  13.530  1.4932 -1.4707 -1.7104
 3422TIP3    H231758   1.872   3.212  13.512  0.1098  1.4777  0.2769
 3423TIP3   OH231759   0.417   6.615   4.648  0.4978 -0.4120 -0.0398
 3423TIP3    H131760   0.363   6.536   4.649 -1.3454  0.7593  1.7136
 3423TIP3    H231761   0.441   6.628   4.739  2.3603  0.0613 -0.5645
 3424TIP3   OH231762   4.611   0.749   0.548  0.1256  0.1097 -0.0248
 3424TIP3    H131763   4.532   0.705   0.516  0.1700  0.3832 -0.5372
 3424TIP3    H231764   4.617   0.726   0.640  0.4798 -1.4563 -0.4134
 3425TIP3   OH231765   2.318   6.025  16.761 -0.3921  0.6113 -0.6854
 3425TIP3    H131766   2.414   6.021  16.762 -0.3472  1.3944  0.4579
 3425TIP3    H231767   2.297   6.100  16.817 -1.6773  0.4169 -0.8833
 3426TIP3   OH231768   4.537   2.671   3.233  0.0004 -0.3478 -0.2434
 3426TIP3    H131769   4.582   2.707   3.309 -1.3620 -0.0871  0.4703
 3426TIP3    H231770   4.603   2.671   3.164  0.9842  0.3461  0.6625
 3427TIP3   OH231771   5.826   4.223  10.792 -0.0920  0.2477  0.1020
 3427TIP3    H131772   5.831   4.137  10.836  1.1865 -0.7791 -1.9282
 3427TIP3    H231773   5.735   4.230  10.765 -0.0950 -0.7363 -0.1843
 3428TIP3   OH231774   0.033   4.526  11.361  0.1571 -0.3540 -0.1517
 3428TIP3    H131775   0.119   4.489  11.382 -0.1391 -0.6561  0.5401
 3428TIP3    H231776  -0.024   4.496  11.431 -0.1993  1.0402  0.1849
 3429TIP3   OH231777   3.616   4.377  14.823  0.3392  0.5561  0.6799
 3429TIP3    H131778   3.583   4.322  14.893 -2.4040 -0.0263 -0.9480
 3429TIP3    H231779   3.666   4.318  14.766  0.6517  0.5782  0.9257
 3430TIP3   OH231780   0.995   6.117  13.640  0.1458 -0.5160 -0.1032
 3430TIP3    H131781   1.039   6.084  13.562 -1.0922  0.0200 -1.0682
 3430TIP3    H231782   0.950   6.040  13.676 -0.2650 -0.5170 -0.6135
 3431TIP3   OH231783   1.298   1.409  16.669  0.4407  0.4062  0.2899
 3431TIP3    H131784   1.213   1.366  16.672  0.9010 -0.6154 -0.5833
 3431TIP3    H231785   1.345   1.364  16.599  0.7414  2.7699 -1.1153
 3432TIP3   OH231786   4.810   2.043   2.077  0.4776 -0.6125 -0.1950
 3432TIP3    H131787   4.892   2.013   2.037  0.6629 -1.4814  0.8026
 3432TIP3    H231788   4.807   2.137   2.057  2.4170 -0.2544  0.8825
 3433TIP3   OH231789   2.278   3.037  16.814  0.1872  0.1545 -0.5248
 3433TIP3    H131790   2.215   3.012  16.881  0.3606  0.4749 -0.2383
 3433TIP3    H231791   2.356   3.063  16.863  0.1725  0.7955 -0.8332
 3434TIP3   OH231792   6.453   2.349  11.208 -0.8369  0.1574  0.1160
 3434TIP3    H131793   6.482   2.393  11.128 -0.6516 -0.4655 -0.1736
 3434TIP3    H231794   6.486   2.403  11.279 -0.9907  0.7139 -0.2316
 3435TIP3   OH231795   2.749   3.763   5.051 -0.3622 -0.1664 -0.1793
 3435TIP3    H131796   2.712   3.830   4.994  0.9936 -1.0269 -2.1938
 3435TIP3    H231797   2.674   3.707   5.073 -0.8624 -0.0679 -1.5178
 3436TIP3   OH231798   3.388   4.307  10.515  0.4330  0.2451  0.0756
 3436TIP3    H131799   3.453   4.372  10.538 -1.7136  2.0175  1.5649
 3436TIP3    H231800   3.314   4.358  10.482 -0.2891 -1.6674 -1.4468
 3437TIP3   OH231801   6.517   4.479  11.805  0.0038  0.3841 -0.3083
 3437TIP3    H131802   6.567   4.406  11.840 -0.5060  0.9642  1.7413
 3437TIP3    H231803   6.574   4.555  11.816  0.1510  0.4816 -1.5490
 3438TIP3   OH231804   1.608   6.101   0.735  0.3475  0.3152 -0.1444
 3438TIP3    H131805   1.642   6.027   0.685 -0.3441 -0.6563  0.7708
 3438TIP3    H231806   1.609   6.071   0.826  0.6780  1.6867  0.3214
 3439TIP3   OH231807   3.941   6.797   4.622 -0.1132 -0.1250 -0.5008
 3439TIP3    H131808   3.914   6.861   4.556 -0.8348  0.0208 -0.0863
 3439TIP3    H231809   4.015   6.751   4.583 -2.1318 -1.8751 -2.5490
 3440TIP3   OH231810   6.168   1.941   1.458  0.5624  0.0438 -0.2423
 3440TIP3    H131811   6.154   1.848   1.439 -2.6426 -0.0401  1.7454
 3440TIP3    H231812   6.255   1.944   1.496  0.9964 -2.0505 -0.9018
 3441TIP3   OH231813   2.620   5.500  16.139  0.3994 -0.1024  0.3813
 3441TIP3    H131814   2.715   5.512  16.128  0.1204  0.4122 -1.9961
 3441TIP3    H231815   2.581   5.568  16.085 -1.3429 -0.5218  1.0604
 3442TIP3   OH231816   2.517   3.903   0.873  0.0705  0.2632 -0.0541
 3442TIP3    H131817   2.514   3.808   0.887 -0.6344 -0.0427 -1.9541
 3442TIP3    H231818   2.534   3.940   0.960 -1.1962 -1.5199  1.0204
 3443TIP3   OH231819   4.232   6.654  12.869  0.4393 -0.0468 -0.1874
 3443TIP3    H131820   4.191   6.733  12.833  0.9913 -0.9061 -2.8696
 3443TIP3    H231821   4.158   6.597  12.891  0.0833  0.0368 -1.1185
 3444TIP3   OH231822   6.344   2.150   3.254 -0.1555 -0.0672 -0.0159
 3444TIP3    H131823   6.411   2.218   3.262 -1.6053  1.3759  0.3828
 3444TIP3    H231824   6.286   2.181   3.185  0.1774 -1.8574 -1.1660
 3445TIP3   OH231825   1.406   0.891   6.366  0.2456 -0.4483  0.1802
 3445TIP3    H131826   1.334   0.915   6.307  0.0521  0.8670  0.8988
 3445TIP3    H231827   1.365   0.833   6.431  0.3352 -1.4369 -0.6177
 3446TIP3   OH231828   6.294   4.963  14.739  0.1291 -0.1046 -0.6378
 3446TIP3    H131829   6.300   4.905  14.815  0.4457  0.7652  0.0131
 3446TIP3    H231830   6.381   4.957  14.699  0.2304  0.0821 -0.4479
 3447TIP3   OH231831   4.028   4.236  16.592  0.3235 -0.1299  0.4942
 3447TIP3    H131832   4.075   4.276  16.519  2.0968  0.4329  1.8420
 3447TIP3    H231833   4.091   4.240  16.665 -1.1369 -1.2181  1.8793
 3448TIP3   OH231834   4.142   5.657  13.400 -0.1503 -0.5569 -0.5460
 3448TIP3    H131835   4.225   5.687  13.361 -0.4213 -1.5667 -1.9841
 3448TIP3    H231836   4.091   5.625  13.326 -0.9090 -2.1066  0.5887
 3449TIP3   OH231837   4.003   0.179   3.438  0.5855  0.5339 -0.3460
 3449TIP3    H131838   4.011   0.181   3.343  1.8204 -0.9110 -0.2927
 3449TIP3    H231839   4.055   0.253   3.468  0.1582  1.0199 -0.7732
 3450TIP3   OH231840   6.264   3.586  16.420 -0.2309 -0.3425 -0.6994
 3450TIP3    H131841   6.345   3.618  16.460 -0.2746  0.8569 -1.5287
 3450TIP3    H231842   6.288   3.501  16.382 -0.1708 -1.4889  1.7444
 3451TIP3   OH231843   4.939   6.617   1.899  0.0964 -0.2758  0.2475
 3451TIP3    H131844   4.986   6.540   1.931  3.3759  1.6247  0.3239
 3451TIP3    H231845   5.005   6.670   1.856 -2.0826  2.4717  0.0170
 3452TIP3   OH231846   0.662   6.402   5.945 -0.9747  0.6292 -0.3044
 3452TIP3    H131847   0.605   6.475   5.920 -0.7247  1.0488  0.3275
 3452TIP3    H231848   0.716   6.437   6.016  0.3226  0.3585 -1.1170
 3453TIP3   OH231849   0.479   3.557  15.807 -0.4913 -0.0200 -0.5512
 3453TIP3    H131850   0.568   3.589  15.796  0.3314 -2.2074 -0.9371
 3453TIP3    H231851   0.481   3.470  15.766 -1.8706 -1.5531  2.3660
 3454TIP3   OH231852   6.193   2.803  10.176  0.5056 -0.3007  0.1524
 3454TIP3    H131853   6.157   2.725  10.134  1.3618 -0.3081 -0.6088
 3454TIP3    H231854   6.288   2.790  10.173  0.6422  0.5322  0.4880
 3455TIP3   OH231855   4.720   3.657   3.420 -0.9769  0.2191 -0.1794
 3455TIP3    H131856   4.767   3.685   3.342 -0.4506  1.7437  0.6408
 3455TIP3    H231857   4.733   3.728   3.483 -1.3915 -0.9608  1.3003
 3456TIP3   OH231858   4.630   1.841   1.990  0.0442 -0.7330  0.5006
 3456TIP3    H131859   4.630   1.879   1.902 -0.0744  2.4381  1.7417
 3456TIP3    H231860   4.707   1.879   2.032  1.0254 -3.4481  1.3537
 3457TIP3   OH231861   2.629   0.629  14.909  0.8339 -0.3040 -0.0554
 3457TIP3    H131862   2.584   0.695  14.963  0.8939  1.6958 -2.2941
 3457TIP3    H231863   2.559   0.574  14.875  0.4304  0.5624 -0.6554
 3458TIP3   OH231864   0.784   6.043   4.001 -0.5674 -0.2295  0.6745
 3458TIP3    H131865   0.768   5.961   4.047  0.8467 -0.6333  0.4936
 3458TIP3    H231866   0.770   6.111   4.066 -1.4685 -0.6185  0.9007
 3459TIP3   OH231867   3.783   1.650   5.165  0.1101  0.0833 -0.3126
 3459TIP3    H131868   3.816   1.644   5.075  3.6864 -2.4633  0.9480
 3459TIP3    H231869   3.709   1.590   5.168 -1.7794  2.1374 -2.0301
 3460TIP3   OH231870   3.887   1.124  16.710 -0.2648  0.2050 -0.3265
 3460TIP3    H131871   3.963   1.180  16.728 -0.2291 -0.2995  1.2150
 3460TIP3    H231872   3.877   1.072  16.789 -2.2907  0.3251 -0.4738
 3461TIP3   OH231873   4.055   5.352  17.116  0.4308 -0.2089  0.0364
 3461TIP3    H131874   3.999   5.320  17.187  2.0032 -1.0806  0.9540
 3461TIP3    H231875   3.995   5.387  17.051 -1.0806  0.9702  1.9613
 3462TIP3   OH231876   0.076   1.337  13.522  0.3536  0.2041  0.0621
 3462TIP3    H131877  -0.008   1.324  13.568 -0.3736  0.9174 -1.0162
 3462TIP3    H231878   0.110   1.249  13.509 -0.6055 -0.1443 -0.1502
 3463TIP3   OH231879   5.859   0.674   3.243 -0.3094  0.6242 -0.0211
 3463TIP3    H131880   5.820   0.587   3.234 -0.5685  0.8922 -1.9649
 3463TIP3    H231881   5.787   0.729   3.273 -0.5000  0.4160 -0.0894
 3464TIP3   OH231882   6.241   1.704  11.710 -0.8908 -0.2817  0.1173
 3464TIP3    H131883   6.308   1.737  11.770 -1.5094 -1.3834  1.4913
 3464TIP3    H231884   6.280   1.711  11.623  1.5461 -2.0586  0.9471
 3465TIP3   OH231885   5.842   1.042  13.742  0.0745  0.3607 -0.5100
 3465TIP3    H131886   5.937   1.030  13.744 -0.1573 -1.9122 -0.1984
 3465TIP3    H231887   5.819   1.029  13.650  0.1000  1.4620 -0.6831
 3466TIP3   OH231888   6.425   0.627   4.101 -0.5316  0.0393  0.2956
 3466TIP3    H131889   6.464   0.678   4.171 -1.0813 -1.5298  1.8064
 3466TIP3    H231890   6.342   0.595   4.137 -0.1345 -2.0424 -0.4748
 3467TIP3   OH231891   1.908   0.307  11.835 -0.3332 -0.3054 -0.3534
 3467TIP3    H131892   1.882   0.399  11.840 -0.3732 -0.1824 -2.1522
 3467TIP3    H231893   1.866   0.274  11.756  0.8806 -1.4646 -0.5595
 3468TIP3   OH231894   5.200   0.902   2.012 -0.4236 -0.1051 -0.0491
 3468TIP3    H131895   5.226   0.988   1.980  0.2876  0.2388  1.3617
 3468TIP3    H231896   5.279   0.849   2.005 -0.1671  0.0613  1.3512
 3469TIP3   OH231897   4.966   1.662  16.845 -0.0516  0.1773 -0.0741
 3469TIP3    H131898   4.977   1.690  16.936  0.1598 -0.6885  0.1782
 3469TIP3    H231899   5.053   1.630  16.820 -0.6149 -1.6222  0.1406
 3470TIP3   OH231900   2.307   1.578  12.324  0.2433  0.9841 -0.3387
 3470TIP3    H131901   2.226   1.628  12.330  1.5686  3.2094 -0.1282
 3470TIP3    H231902   2.308   1.524  12.403 -0.1314  2.3736  0.6458
 3471TIP3   OH231903   6.860   4.930  12.236 -0.1018  0.0501 -0.4156
 3471TIP3    H131904   6.934   4.890  12.190 -0.2753  0.5565 -1.1597
 3471TIP3    H231905   6.813   4.857  12.275  0.6020 -0.3059 -0.2222
 3472TIP3   OH231906   0.427   1.254  13.477  0.2854 -0.1237 -0.3004
 3472TIP3    H131907   0.346   1.249  13.427 -1.7190 -2.0509  2.8551
 3472TIP3    H231908   0.463   1.166  13.474  1.5309  0.3677 -0.4438
 3473TIP3   OH231909   6.622   5.119  16.873 -0.2565 -0.2971 -0.0754
 3473TIP3    H131910   6.693   5.170  16.833  0.3604 -0.7192  0.4568
 3473TIP3    H231911   6.570   5.087  16.799  1.5058 -2.0163 -0.6613
 3474TIP3   OH231912   0.301   6.396   5.687 -0.0233 -0.4561  0.2124
 3474TIP3    H131913   0.240   6.436   5.625 -0.6220  2.2191  2.2964
 3474TIP3    H231914   0.386   6.403   5.644 -0.5211  0.5112 -0.6746
 3475TIP3   OH231915   3.447   2.369   0.559  0.0778  0.7785 -0.0369
 3475TIP3    H131916   3.449   2.333   0.648  0.5213 -0.8863 -0.6847
 3475TIP3    H231917   3.503   2.311   0.509 -0.9857  1.0846 -1.6335
 3476TIP3   OH231918   2.189   3.278  12.276  0.0643 -0.3128 -0.1879
 3476TIP3    H131919   2.257   3.216  12.251  0.0677  0.2511 -1.6837
 3476TIP3    H231920   2.111   3.250  12.228 -0.4095 -0.1607  0.4681
 3477TIP3   OH231921   0.765   0.152   4.042 -0.2286  0.3005 -0.3530
 3477TIP3    H131922   0.757   0.092   3.969  1.3931  0.7997 -0.9900
 3477TIP3    H231923   0.812   0.102   4.109  0.5548  0.6409 -0.6406
 3478TIP3   OH231924   3.620   1.630  16.561  0.0461  0.8016  0.0000
 3478TIP3    H131925   3.674   1.592  16.630 -0.5298 -0.0190  0.0244
 3478TIP3    H231926   3.653   1.590  16.480  0.6496  1.6794 -0.2069
 3479TIP3   OH231927   4.634   4.617  12.276 -0.1987 -0.5783 -0.5802
 3479TIP3    H131928   4.578   4.598  12.201 -0.0655 -0.7330 -0.6411
 3479TIP3    H231929   4.623   4.711  12.290 -1.8999 -0.9113  0.5600
 3480TIP3   OH231930   6.442   0.608  14.680 -0.3266  0.1718  0.4618
 3480TIP3    H131931   6.461   0.701  14.686  0.5254  0.0054  0.4645
 3480TIP3    H231932   6.346   0.603  14.681 -0.3765  0.9903  1.2744
 3481TIP3   OH231933   0.208   2.256  15.012 -0.3779 -0.2800  0.6440
 3481TIP3    H131934   0.119   2.268  14.979 -0.4943  0.5588  1.2204
 3481TIP3    H231935   0.226   2.335  15.063  0.5210 -0.6535  0.9402
 3482TIP3   OH231936   1.737   3.706   0.273 -0.8080  0.0426  0.0355
 3482TIP3    H131937   1.828   3.736   0.278 -0.6701  0.5186 -3.1923
 3482TIP3    H231938   1.685   3.784   0.294 -0.4267  0.6235 -1.0944
 3483TIP3   OH231939   1.557   6.830   0.948  0.1952 -0.2419 -0.5367
 3483TIP3    H131940   1.549   6.738   0.924 -2.0259 -0.2419 -0.0313
 3483TIP3    H231941   1.651   6.845   0.957  0.6524 -2.1966 -1.5793
 3484TIP3   OH231942   4.858   6.495  16.911 -0.5191 -0.3299 -0.6344
 3484TIP3    H131943   4.912   6.572  16.931 -0.1003 -0.7992  0.0491
 3484TIP3    H231944   4.796   6.490  16.983 -0.0283 -1.0988 -0.2556
 3485TIP3   OH231945   5.405   5.856   0.796 -0.2590  0.6955  0.1194
 3485TIP3    H131946   5.500   5.854   0.787 -0.4251 -0.5498 -2.0199
 3485TIP3    H231947   5.383   5.949   0.793  0.8361  0.9637 -0.1306
 3486TIP3   OH231948   5.114   3.032   0.551  0.4469 -0.1700 -0.0545
 3486TIP3    H131949   5.083   3.059   0.638  0.2749 -1.6799  0.3800
 3486TIP3    H231950   5.034   3.011   0.503  0.6210 -1.1311  0.0556
 3487TIP3   OH231951   5.723   1.335  13.519  0.1253  0.2076  0.0607
 3487TIP3    H131952   5.760   1.267  13.464 -1.0628 -0.7320  0.3841
 3487TIP3    H231953   5.772   1.330  13.601  0.4582  0.1739 -0.1392
 3488TIP3   OH231954   5.971   1.517   1.290 -0.1027 -0.2366  0.0281
 3488TIP3    H131955   5.902   1.580   1.268 -1.1290 -0.8429  1.3404
 3488TIP3    H231956   5.926   1.432   1.290  1.0065 -0.8408 -0.5922
 3489TIP3   OH231957   5.642   5.427   1.831 -0.2712 -0.6470 -0.1088
 3489TIP3    H131958   5.603   5.349   1.869 -2.0015  0.8316  1.2928
 3489TIP3    H231959   5.596   5.500   1.872  1.6358  1.1473 -0.9735
 3490TIP3   OH231960   5.880   3.479  16.244 -0.0136 -0.2435 -0.1727
 3490TIP3    H131961   5.913   3.563  16.274 -0.1005 -0.4363  0.4767
 3490TIP3    H231962   5.819   3.451  16.313  1.1479 -1.5483  0.3781
 3491TIP3   OH231963   5.179   6.689  14.648 -0.1230 -0.7408 -0.3025
 3491TIP3    H131964   5.091   6.656  14.664 -0.3103 -1.0006 -1.7305
 3491TIP3    H231965   5.170   6.746  14.572  0.2425  2.4934  1.8720
 3492TIP3   OH231966   4.383   6.313   3.302  0.0859  0.6717 -0.0293
 3492TIP3    H131967   4.421   6.281   3.220 -0.2478 -1.7605  0.6778
 3492TIP3    H231968   4.288   6.303   3.289 -0.1760  2.9598 -0.3253
 3493TIP3   OH231969   0.874   4.761  16.463 -0.2859 -0.0156 -0.1669
 3493TIP3    H131970   0.926   4.822  16.410  1.1551 -2.1601 -1.3649
 3493TIP3    H231971   0.792   4.752  16.415 -1.3003  2.2940  0.9815
 3494TIP3   OH231972   5.095   4.343   5.528  0.4011 -1.0413 -0.5196
 3494TIP3    H131973   5.147   4.362   5.606  1.0864 -3.7599 -0.1819
 3494TIP3    H231974   5.005   4.348   5.558  0.5849 -0.1219 -0.0847
 3495TIP3   OH231975   5.399   1.212  16.603 -0.2389 -0.3511  0.2458
 3495TIP3    H131976   5.461   1.209  16.530  0.7227  3.4473  0.6953
 3495TIP3    H231977   5.326   1.158  16.574  0.1979  0.7673 -3.4599
 3496TIP3   OH231978   5.956   5.209  13.764  0.1068  0.1370  0.2225
 3496TIP3    H131979   6.030   5.262  13.735  0.2039 -0.9076 -1.5920
 3496TIP3    H231980   5.879   5.253  13.727 -0.0020  0.1085  0.4121
 3497TIP3   OH231981   0.846   5.211  13.316  0.6560 -0.1227 -0.7000
 3497TIP3    H131982   0.916   5.263  13.355  0.3177  0.4771 -0.8854
 3497TIP3    H231983   0.871   5.120  13.334  1.5769  0.0764 -0.9308
 3498TIP3   OH231984   1.660   6.525  16.672  0.4232  0.3336 -0.1683
 3498TIP3    H131985   1.572   6.554  16.696  0.0786 -0.8395  0.0464
 3498TIP3    H231986   1.684   6.464  16.742  1.7632  1.2978  0.2415
 3499TIP3   OH231987   5.668   6.368  10.341 -0.5092 -0.1710 -0.4337
 3499TIP3    H131988   5.597   6.420  10.378 -0.5679  1.0460 -2.1402
 3499TIP3    H231989   5.739   6.432  10.326  0.1453 -0.9539 -0.7535
 3500TIP3   OH231990   3.346   2.643   5.614  0.8234 -0.1067  0.6599
 3500TIP3    H131991   3.385   2.648   5.701 -1.3979  1.8460  1.6400
 3500TIP3    H231992   3.268   2.699   5.619  0.2282 -0.4962 -2.3839
 3501TIP3   OH231993   0.188   6.396   3.642  0.4679 -0.1627 -0.3460
 3501TIP3    H131994   0.096   6.398   3.616  0.7152 -0.2570 -1.2734
 3501TIP3    H231995   0.217   6.308   3.620  0.5349 -0.4478  0.8468
 3502TIP3   OH231996   6.653   6.853   4.781  0.0847  0.3574 -0.9342
 3502TIP3    H131997   6.738   6.838   4.824 -0.7087 -0.6387  0.3651
 3502TIP3    H231998   6.673   6.911   4.708  1.9380 -0.0802 -0.8258
 3503TIP3   OH231999   1.310   0.093  12.619 -0.5588  0.3981 -0.2050
 3503TIP3    H132000   1.324   0.112  12.526  1.1903 -1.0902 -0.3266
 3503TIP3    H232001   1.376   0.146  12.664  0.0866 -0.5021 -0.0429
 3504TIP3   OH232002   6.272   6.842   0.724  0.4301  0.6840 -0.0063
 3504TIP3    H132003   6.305   6.834   0.635 -1.4333  2.0089 -0.8883
 3504TIP3    H232004   6.264   6.936   0.739  0.2873  0.4775  1.4138
 3505TIP3   OH232005   0.456   3.745  11.239  0.0744 -0.3986  0.4128
 3505TIP3    H132006   0.419   3.661  11.212  1.8267 -1.5333  1.3514
 3505TIP3    H232007   0.415   3.809  11.180 -2.0702 -1.7386  0.3292
 3506TIP3   OH232008   5.582   6.792   3.720 -0.0860 -0.1723  0.0982
 3506TIP3    H132009   5.511   6.797   3.784 -0.7371 -1.4660 -0.4862
 3506TIP3    H232010   5.661   6.814   3.771 -0.8766  1.2966  0.7478
 3507TIP3   OH232011   1.809   0.183   5.245 -0.0067  0.3222 -0.3454
 3507TIP3    H132012   1.830   0.262   5.295  0.3348 -1.6287  2.8532
 3507TIP3    H232013   1.885   0.126   5.254 -1.2816 -1.4651 -0.2016
 3508TIP3   OH232014   5.272   5.049  14.468 -0.4869  0.1438  0.4074
 3508TIP3    H132015   5.245   5.141  14.465 -1.5847 -0.1059  1.7367
 3508TIP3    H232016   5.351   5.049  14.523 -0.6084  0.2597  0.5818
 3509TIP3   OH232017   3.821   5.617  14.342  0.4902  0.2361  0.6398
 3509TIP3    H132018   3.886   5.549  14.356  2.1096  1.1083 -2.0779
 3509TIP3    H232019   3.842   5.684  14.407  2.1098  0.3479  0.0276
 3510TIP3   OH232020   4.255   5.596  14.901  0.3227 -0.0496  0.4757
 3510TIP3    H132021   4.208   5.639  14.830 -0.3642  1.7180  1.9318
 3510TIP3    H232022   4.342   5.636  14.899  0.7138 -0.8959 -0.1092
 3511TIP3   OH232023   3.299   1.127   0.757  0.3501  0.3064  0.1060
 3511TIP3    H132024   3.326   1.141   0.848 -0.3780 -1.4168  0.6284
 3511TIP3    H232025   3.317   1.211   0.714  2.6811  0.5323  1.3189
 3512TIP3   OH232026   4.179   4.480  11.204  1.1585  0.4773 -0.0904
 3512TIP3    H132027   4.169   4.451  11.113 -0.4218 -1.0250  0.5175
 3512TIP3    H232028   4.102   4.446  11.249  1.9144  1.1768  1.8458
 3513TIP3   OH232029   0.352   0.345  15.222 -0.2361 -0.0595 -0.2582
 3513TIP3    H132030   0.290   0.376  15.156  0.3789 -1.9394 -1.8022
 3513TIP3    H232031   0.300   0.290  15.280 -0.2915 -0.5108 -0.7308
 3514TIP3   OH232032   2.655   4.209   3.343 -0.3150  0.0241  0.6592
 3514TIP3    H132033   2.651   4.145   3.272 -1.3444  0.2965  0.4546
 3514TIP3    H232034   2.745   4.205   3.374 -0.4106 -1.6991  0.8197
 3515TIP3   OH232035   2.355   1.995  14.218  0.5831 -0.6809 -0.3604
 3515TIP3    H132036   2.268   2.030  14.199  0.8759  0.4245  0.2862
 3515TIP3    H232037   2.393   1.979  14.131  0.4427  0.6117 -0.6787
 3516TIP3   OH232038   3.227   0.358  16.836 -0.4298  0.0469 -0.1843
 3516TIP3    H132039   3.186   0.273  16.852  2.0327 -1.1293  0.4407
 3516TIP3    H232040   3.158   0.412  16.798 -2.1654 -2.1276 -0.2962
 3517TIP3   OH232041   1.540   1.182  14.537 -0.0853  0.0908 -0.5925
 3517TIP3    H132042   1.557   1.090  14.518  0.1269 -0.0329  0.1428
 3517TIP3    H232043   1.537   1.224  14.452 -1.6516 -0.8415 -1.0253
 3518TIP3   OH232044   4.506   1.119   4.446 -0.1982  0.0887 -0.8801
 3518TIP3    H132045   4.599   1.103   4.431  0.4145  0.9629  1.4955
 3518TIP3    H232046   4.496   1.111   4.541 -2.3607  1.0297 -0.9768
 3519TIP3   OH232047   4.718   0.683   1.265 -0.7889  0.1119  0.0302
 3519TIP3    H132048   4.789   0.672   1.329 -0.2893  2.0312 -0.1452
 3519TIP3    H232049   4.713   0.598   1.221 -1.5174 -1.4829  2.9313
 3520TIP3   OH232050   5.206   2.622   5.790 -0.0377  0.0390 -0.2524
 3520TIP3    H132051   5.191   2.700   5.736  2.4536  1.5237  1.0359
 3520TIP3    H232052   5.277   2.647   5.849 -1.9337 -1.7928  3.1165
 3521TIP3   OH232053   1.611   0.493   5.543  0.0661  0.5922 -0.5988
 3521TIP3    H132054   1.566   0.408   5.543  1.5868 -0.2563 -1.0926
 3521TIP3    H232055   1.576   0.539   5.619 -2.2387  0.3422 -1.4251
 3522TIP3   OH232056   1.723   1.431   0.978  0.3966 -0.6263  0.3649
 3522TIP3    H132057   1.729   1.336   0.969  0.2048 -0.4261 -2.9793
 3522TIP3    H232058   1.630   1.449   0.983  0.4175 -0.5816  0.6088
 3523TIP3   OH232059   5.818   5.670  15.943  0.2096  0.1079 -0.3336
 3523TIP3    H132060   5.832   5.761  15.968  0.3477  0.3272 -1.1949
 3523TIP3    H232061   5.722   5.661  15.937  0.1090 -0.2488  1.3266
 3524TIP3   OH232062   5.998   3.929  17.101 -0.7464  0.2733 -0.1557
 3524TIP3    H132063   6.070   3.941  17.163  0.3579  0.4794 -1.4505
 3524TIP3    H232064   5.920   3.922  17.157  0.1926  0.5608  1.2463
 3525TIP3   OH232065   1.470   5.109   5.947 -0.1989 -0.6630  0.8583
 3525TIP3    H132066   1.423   5.147   6.022  1.9790  0.5954  1.7047
 3525TIP3    H232067   1.455   5.015   5.954  0.0684 -0.5984  3.0078
 3526TIP3   OH232068   5.015   1.257   1.704 -0.2952  0.5677  0.7587
 3526TIP3    H132069   4.929   1.218   1.720 -0.1379 -0.2710 -0.2973
 3526TIP3    H232070   5.058   1.257   1.789 -1.7524  2.0876  1.5508
 3527TIP3   OH232071   2.885   5.698   1.858  0.1731  0.0013 -0.4096
 3527TIP3    H132072   2.971   5.707   1.898  0.7479 -0.1736 -1.5775
 3527TIP3    H232073   2.829   5.759   1.907  0.9689  0.1721  0.3032
 3528TIP3   OH232074   2.490   1.183  12.421 -0.8589  0.8376 -0.0831
 3528TIP3    H132075   2.457   1.096  12.446  0.5601  0.7487  1.6471
 3528TIP3    H232076   2.438   1.244  12.473  0.0081  0.8455  0.7832
 3529TIP3   OH232077   4.279   6.831  14.028 -0.7453  0.0552  0.1328
 3529TIP3    H132078   4.362   6.878  14.040 -0.3370 -0.7354  0.5214
 3529TIP3    H232079   4.296   6.771  13.956 -0.6151 -0.8830  0.9253
 3530TIP3   OH232080   4.645   1.232  11.438 -0.1324  0.0453 -0.3490
 3530TIP3    H132081   4.571   1.205  11.384 -0.1454  2.2813 -1.5404
 3530TIP3    H232082   4.607   1.292  11.502  0.0645 -1.7680  1.6222
 3531TIP3   OH232083   2.235   5.821   3.463 -0.0884 -1.1545 -0.4500
 3531TIP3    H132084   2.307   5.877   3.432 -0.5559 -0.1748  0.1600
 3531TIP3    H232085   2.268   5.732   3.454  1.1898 -0.7263 -0.2415
 3532TIP3   OH232086   5.872   0.141   2.701  0.2554  0.3566  0.0208
 3532TIP3    H132087   5.909   0.067   2.750 -0.2838  1.3353  2.0361
 3532TIP3    H232088   5.855   0.208   2.768  1.2057  2.5453 -1.7645
 3533TIP3   OH232089   6.789   2.777  15.700  0.2317  0.0759  0.4710
 3533TIP3    H132090   6.835   2.757  15.618 -0.0167 -1.1493  0.6108
 3533TIP3    H232091   6.702   2.738  15.689  0.2852 -0.3475  1.4104
 3534TIP3   OH232092   3.620   6.668  13.971 -0.1784 -0.2673 -0.1126
 3534TIP3    H132093   3.698   6.656  13.916 -0.2541  0.1669 -0.3194
 3534TIP3    H232094   3.557   6.606  13.935 -0.7298  1.0198 -1.4796
 3535TIP3   OH232095   3.636   2.357   4.809  0.0543  0.1941 -0.1923
 3535TIP3    H132096   3.552   2.404   4.811 -0.1808 -0.2324  0.6301
 3535TIP3    H232097   3.688   2.404   4.745  0.1454  2.1572  1.2273
 3536TIP3   OH232098   2.892   3.506   5.424 -0.2765 -0.1779  0.4867
 3536TIP3    H132099   2.887   3.446   5.498  0.9764 -1.8698 -0.7189
 3536TIP3    H232100   2.873   3.452   5.347 -0.1476  1.2049 -0.5703
 3537TIP3   OH232101   4.268   2.014  11.704  0.3136 -0.0468  0.7207
 3537TIP3    H132102   4.289   2.106  11.687 -0.6718  0.1766  0.6519
 3537TIP3    H232103   4.277   1.971  11.618 -0.3991  0.2331  0.4939
 3538TIP3   OH232104   3.430   5.829  15.118  0.0353 -0.4188  0.3261
 3538TIP3    H132105   3.468   5.830  15.030  0.2341 -1.5964  0.3786
 3538TIP3    H232106   3.345   5.872  15.108  0.7055  0.8782 -0.1005
 3539TIP3   OH232107   2.553   0.411  17.073  0.0516  0.1727 -0.2069
 3539TIP3    H132108   2.610   0.335  17.061 -1.0754 -0.8466  0.6159
 3539TIP3    H232109   2.465   0.377  17.055 -0.4280  1.3985 -0.2368
 3540TIP3   OH232110   3.833   1.764   5.993  0.0249 -0.3611  0.3579
 3540TIP3    H132111   3.770   1.725   6.054 -1.7363 -0.1403 -1.2307
 3540TIP3    H232112   3.827   1.858   6.011 -0.7695 -0.2630 -0.3753
 3541TIP3   OH232113   4.916   1.085  16.378  0.0106 -0.3305 -0.4455
 3541TIP3    H132114   5.005   1.096  16.346  0.6155  0.4237  1.3271
 3541TIP3    H232115   4.906   0.991  16.391  0.6474 -0.3968 -0.4186
 3542TIP3   OH232116   3.542   5.571   3.350 -0.4797  0.3272 -0.3173
 3542TIP3    H132117   3.485   5.496   3.334 -0.2777 -0.4128  2.0237
 3542TIP3    H232118   3.630   5.534   3.355 -0.2372  0.8987 -0.2645
 3543TIP3   OH232119   0.874   4.752  12.795 -0.4194  0.2597 -0.0726
 3543TIP3    H132120   0.853   4.780  12.706 -1.6591 -1.5211 -0.3922
 3543TIP3    H232121   0.875   4.833  12.846 -2.5884  1.0489 -1.1586
 3544TIP3   OH232122   4.754   1.907   4.170 -0.2607 -0.5623  0.0566
 3544TIP3    H132123   4.831   1.954   4.138 -1.3846  1.5178  0.2590
 3544TIP3    H232124   4.694   1.905   4.095 -0.0311 -2.2804 -0.1418
 3545TIP3   OH232125   5.636   0.939   6.198 -0.1301 -0.7550  0.4150
 3545TIP3    H132126   5.621   0.961   6.106  0.9806 -0.1181  0.3656
 3545TIP3    H232127   5.678   0.853   6.195  0.4590 -0.4695  0.2784
 3546TIP3   OH232128   3.377   2.436   5.432 -0.3118 -0.1868  0.0481
 3546TIP3    H132129   3.388   2.511   5.490 -1.1742  0.6292 -0.8193
 3546TIP3    H232130   3.463   2.393   5.433  0.3172  1.0130  0.2927
 3547TIP3   OH232131   3.174   1.055  11.628 -0.3367  0.0032 -0.5414
 3547TIP3    H132132   3.163   1.148  11.648 -2.4447 -0.5943  1.6758
 3547TIP3    H232133   3.256   1.031  11.672 -0.1399  0.6673 -0.5297
 3548TIP3   OH232134   2.519   3.644   5.097  0.0487 -0.4660  0.7299
 3548TIP3    H132135   2.440   3.697   5.109 -0.5004 -0.8498 -0.9443
 3548TIP3    H232136   2.498   3.559   5.136 -0.1115 -0.3546  0.8862
 3549TIP3   OH232137   0.297   1.606  16.677 -1.0352 -0.0168 -0.0874
 3549TIP3    H132138   0.250   1.522  16.676 -0.4625 -0.3372 -0.7395
 3549TIP3    H232139   0.364   1.594  16.744 -0.6298 -0.2739 -0.5274
 3550TIP3   OH232140   1.613   0.400   4.767  0.0005 -0.0704  0.1732
 3550TIP3    H132141   1.685   0.359   4.815  0.2032  0.7987  0.6306
 3550TIP3    H232142   1.543   0.409   4.831 -0.4171 -0.6463 -0.1951
 3551TIP3   OH232143   3.509   5.247   3.227 -0.7107  0.2999 -0.3214
 3551TIP3    H132144   3.421   5.214   3.209 -0.4323  0.8008 -3.0455
 3551TIP3    H232145   3.565   5.199   3.166  0.9496 -0.0313  1.3829
 3552TIP3   OH232146   5.712   6.519  14.937  0.5692 -0.2368 -0.2609
 3552TIP3    H132147   5.788   6.468  14.964  1.2191  0.1735 -1.2668
 3552TIP3    H232148   5.637   6.472  14.973  1.1528 -1.8130 -1.0523
 3553TIP3   OH232149   2.636   3.365  15.827 -0.6352  0.1646 -0.2894
 3553TIP3    H132150   2.646   3.283  15.875 -0.7311  0.4725  0.2731
 3553TIP3    H232151   2.621   3.431  15.896  0.0057  0.7383 -0.6891
 3554TIP3   OH232152   1.573   2.715  15.422 -0.3861  0.2495 -0.0017
 3554TIP3    H132153   1.539   2.659  15.492 -4.6236  0.9467 -1.2136
 3554TIP3    H232154   1.633   2.659  15.374  0.2011 -1.2422  2.3119
 3555TIP3   OH232155   1.645   3.982  15.566  0.3805 -0.1435 -0.2546
 3555TIP3    H132156   1.730   3.970  15.610  1.0616  1.7672 -0.9672
 3555TIP3    H232157   1.581   3.958  15.632  1.3687  2.5449  1.8625
 3556TIP3   OH232158   3.724   3.392   0.543 -0.7981 -0.4379  0.2520
 3556TIP3    H132159   3.655   3.413   0.606 -2.1830 -0.5433 -1.1679
 3556TIP3    H232160   3.678   3.371   0.462  0.9264  2.0806 -1.5775
 3557TIP3   OH232161   0.651   2.346   4.046 -0.3351 -0.2310 -0.0789
 3557TIP3    H132162   0.716   2.367   3.980 -0.7888 -2.6258 -1.4057
 3557TIP3    H232163   0.693   2.368   4.129  0.9592  1.1062 -1.0434
 3558TIP3   OH232164   5.242   4.120  16.038 -0.2935 -0.0945 -0.3534
 3558TIP3    H132165   5.157   4.092  16.006 -0.8037 -0.7776  1.4479
 3558TIP3    H232166   5.291   4.144  15.959 -2.1151  0.2876 -1.4317
 3559TIP3   OH232167   2.217   5.514   5.752  0.0230  0.1639 -0.5347
 3559TIP3    H132168   2.290   5.452   5.748 -1.2625 -1.4307 -0.6766
 3559TIP3    H232169   2.195   5.530   5.660 -0.1457  0.2103 -0.4863
 3560TIP3   OH232170   2.744   6.833   5.501 -0.3398 -0.4310  0.2168
 3560TIP3    H132171   2.839   6.829   5.506 -0.3714 -3.4060  0.1183
 3560TIP3    H232172   2.726   6.895   5.430  1.4522  0.5499  0.5488
 3561TIP3   OH232173   0.564   5.570   2.708  0.0468  0.5918 -0.4087
 3561TIP3    H132174   0.575   5.626   2.785  3.5795 -0.7907  0.2952
 3561TIP3    H232175   0.597   5.623   2.635 -0.7872  0.9548 -0.5309
 3562TIP3   OH232176   0.446   4.858   4.902 -0.0580 -0.1177  0.9371
 3562TIP3    H132177   0.497   4.938   4.894  1.6672 -1.2619 -0.2025
 3562TIP3    H232178   0.462   4.828   4.992  0.8251 -0.1441  0.7803
 3563TIP3   OH232179   2.090   2.777   2.945 -0.2058  0.0172 -0.2046
 3563TIP3    H132180   2.082   2.688   2.980  0.1477 -0.5216 -1.4327
 3563TIP3    H232181   2.001   2.810   2.942 -0.1681  0.5305  2.2445
 3564TIP3   OH232182   1.045   1.395  13.841  0.3379 -0.5465  0.7342
 3564TIP3    H132183   1.082   1.449  13.771 -1.8961 -1.4510 -1.2389
 3564TIP3    H232184   1.092   1.424  13.920  0.6503  2.8277 -0.5382
 3565TIP3   OH232185   0.291   2.166  15.282  0.4090 -0.1530  0.4686
 3565TIP3    H132186   0.274   2.196  15.192 -0.7939  0.5167  0.9068
 3565TIP3    H232187   0.295   2.070  15.274  1.5662 -0.0534 -0.4941
 3566TIP3   OH232188   5.196   2.105   3.431  0.2285  0.2552 -0.3990
 3566TIP3    H132189   5.208   2.183   3.485 -0.9029  0.0386  0.2090
 3566TIP3    H232190   5.279   2.059   3.435 -0.1994 -0.4363  2.3036
 3567TIP3   OH232191   1.728   6.462   1.152 -0.0634  0.5418 -0.1560
 3567TIP3    H132192   1.756   6.419   1.071 -0.4660  1.6698 -0.9272
 3567TIP3    H232193   1.750   6.400   1.221  2.0666  0.3270 -0.9398
 3568TIP3   OH232194   1.815   1.322   4.979  0.2119 -0.0268 -0.3674
 3568TIP3    H132195   1.849   1.278   4.901 -0.5880 -0.1236 -0.6665
 3568TIP3    H232196   1.883   1.308   5.046  1.3072  0.7846 -1.2717
 3569TIP3   OH232197   5.364   6.858  12.724  0.0603 -0.4193 -0.1866
 3569TIP3    H132198   5.347   6.771  12.687 -1.9746 -0.1935  0.1246
 3569TIP3    H232199   5.313   6.860  12.805  0.1370  1.0332 -0.1430
 3570TIP3   OH232200   2.990   0.702   5.114  0.1704  0.2035  0.4722
 3570TIP3    H132201   3.026   0.651   5.041 -0.7215  0.3411 -0.0812
 3570TIP3    H232202   2.989   0.792   5.083 -4.1219 -0.1482 -1.1250
 3571TIP3   OH232203   4.787   6.452   5.385  0.2492 -0.0843 -0.9016
 3571TIP3    H132204   4.790   6.356   5.388 -0.4459 -0.1624 -2.0650
 3571TIP3    H232205   4.879   6.478   5.385  0.4407 -0.7204 -0.0292
 3572TIP3   OH232206   6.507   2.136   0.492 -0.2531 -0.5764 -0.3835
 3572TIP3    H132207   6.427   2.181   0.516  0.0143  0.4386 -1.3300
 3572TIP3    H232208   6.561   2.138   0.571  1.7399  5.1096 -1.4578
 3573TIP3   OH232209   2.920   6.667   5.942 -0.0918 -0.0874  0.4464
 3573TIP3    H132210   2.861   6.706   5.878  0.4989  0.9402  0.5051
 3573TIP3    H232211   2.902   6.573   5.938 -0.1232 -0.0290 -1.1472
 3574TIP3   OH232212   5.208   6.602   1.372  0.1384  0.4254 -0.0498
 3574TIP3    H132213   5.130   6.602   1.317  1.6546  0.4154 -2.3242
 3574TIP3    H232214   5.180   6.559   1.453 -1.6231 -1.8636 -1.7287
 3575TIP3   OH232215   2.324   1.151   3.182  0.2539  0.1905  0.2854
 3575TIP3    H132216   2.350   1.228   3.131 -2.3344  1.4373  0.6575
 3575TIP3    H232217   2.307   1.083   3.116 -3.1002  1.7935 -0.7388
 3576TIP3   OH232218   4.088   6.472  11.199 -0.4810  0.7271 -0.2285
 3576TIP3    H132219   3.997   6.442  11.199 -0.0226 -0.8474 -1.3998
 3576TIP3    H232220   4.084   6.560  11.161 -1.5678  0.9429  0.3285
 3577TIP3   OH232221   6.414   2.644   1.846  0.2340 -0.1601  0.1966
 3577TIP3    H132222   6.402   2.673   1.755 -1.5251 -0.6704  0.2286
 3577TIP3    H232223   6.375   2.714   1.898  0.7941 -0.1040  0.5422
 3578TIP3   OH232224   5.504   6.215   3.252  0.2448 -0.2078  0.5919
 3578TIP3    H132225   5.520   6.305   3.281 -0.7456 -0.0729  0.7750
 3578TIP3    H232226   5.536   6.212   3.162 -1.3783  0.8937 -0.0820
 3579TIP3   OH232227   3.797   5.595   1.667  0.1397 -0.4813 -0.2807
 3579TIP3    H132228   3.846   5.675   1.684  1.3574 -1.3435  0.5582
 3579TIP3    H232229   3.825   5.535   1.737  0.5844 -2.1999 -1.8425
 3580TIP3   OH232230   3.051   2.462  15.657  0.5727  0.3784  0.6776
 3580TIP3    H132231   2.961   2.493  15.661  0.6212  0.6555 -0.1037
 3580TIP3    H232232   3.094   2.522  15.595  1.3282  0.3467  1.1603
 3581TIP3   OH232233   4.529   2.385  15.487  0.1498 -0.0236  0.0664
 3581TIP3    H132234   4.489   2.300  15.503 -0.7075  0.5223  0.8983
 3581TIP3    H232235   4.462   2.436  15.442  0.4125  0.4335  0.1793
 3582TIP3   OH232236   5.076   2.639   0.324 -0.1343  0.0092 -0.5206
 3582TIP3    H132237   5.093   2.577   0.254 -0.7599 -0.1738 -0.5238
 3582TIP3    H232238   5.150   2.630   0.384 -1.5833 -2.9616  1.0615
 3583TIP3   OH232239   1.443   0.166  16.181 -0.3354 -0.1586  0.2271
 3583TIP3    H132240   1.510   0.189  16.245 -3.2659  1.9515  2.9320
 3583TIP3    H232241   1.436   0.244  16.125  0.6776 -1.1147 -1.2850
 3584TIP3   OH232242   3.782   6.626   1.505 -0.0375 -0.1697 -0.1320
 3584TIP3    H132243   3.830   6.708   1.500  0.7598 -0.6793 -1.2901
 3584TIP3    H232244   3.720   6.638   1.577  1.0627  0.9042  0.6652
 3585TIP3   OH232245   1.218   4.004   3.439 -0.3336 -0.4451 -0.2392
 3585TIP3    H132246   1.309   4.025   3.459 -0.9911  2.1639  0.3764
 3585TIP3    H232247   1.184   3.966   3.520 -0.3909  0.8575  0.3745
 3586TIP3   OH232248   3.534   3.079   5.875  0.4185 -0.6541  0.3142
 3586TIP3    H132249   3.594   3.054   5.945  0.6328 -1.6623 -0.1997
 3586TIP3    H232250   3.561   3.167   5.851  0.8082 -0.5743  1.0150
 3587TIP3   OH232251   5.283   0.411   2.833 -0.5256  0.7121  0.0563
 3587TIP3    H132252   5.307   0.347   2.900  1.2069  1.7527  0.4800
 3587TIP3    H232253   5.187   0.414   2.838 -0.6094 -1.1712  0.6194
 3588TIP3   OH232254   3.063   1.868  16.369  0.1638 -0.4956 -0.2172
 3588TIP3    H132255   3.090   1.820  16.291 -1.0359 -2.7781  0.6736
 3588TIP3    H232256   3.039   1.800  16.432 -0.1632  1.2864  1.6901
 3589TIP3   OH232257   4.176   5.782  14.459 -0.0147  0.2129 -0.5441
 3589TIP3    H132258   4.091   5.825  14.465  0.4587  1.1079 -0.0188
 3589TIP3    H232259   4.217   5.820  14.382 -0.1784 -0.3970 -0.9387
 3590TIP3   OH232260   4.301   5.306  11.841 -0.2354 -0.0239  0.2692
 3590TIP3    H132261   4.237   5.375  11.858  0.5195  0.3461  1.8813
 3590TIP3    H232262   4.287   5.242  11.911  0.4299 -0.4812  0.0027
 3591TIP3   OH232263   0.688   3.002   2.921  0.0208  0.2731  0.1956
 3591TIP3    H132264   0.678   3.058   2.844  0.7655 -0.4305 -0.4291
 3591TIP3    H232265   0.756   2.939   2.897  1.1780  0.8199  1.8846
 3592TIP3   OH232266   0.708   1.503  11.612 -0.2034 -0.1630  0.4311
 3592TIP3    H132267   0.792   1.481  11.572  0.2840 -0.3830  1.5349
 3592TIP3    H232268   0.732   1.558  11.687 -1.0282 -0.4567  0.9169
 3593TIP3   OH232269   2.931   5.586  15.782 -0.0695 -0.2366  0.2594
 3593TIP3    H132270   3.020   5.549  15.784  0.3128  0.6733  1.6112
 3593TIP3    H232271   2.919   5.613  15.691  0.9089 -0.6610 -0.0207
 3594TIP3   OH232272   3.863   0.287  16.230 -0.4735 -0.4402 -0.8935
 3594TIP3    H132273   3.822   0.239  16.301  2.1086 -2.2233 -0.4675
 3594TIP3    H232274   3.881   0.374  16.266 -0.4780 -0.8673  0.1668
 3595TIP3   OH232275   2.933   5.025   2.858 -0.1619  0.3478 -0.1775
 3595TIP3    H132276   2.841   5.049   2.854 -0.2271  0.1600  0.1952
 3595TIP3    H232277   2.939   4.964   2.931 -0.0162 -0.8452 -1.1540
 3596TIP3   OH232278   2.675   4.657  13.101  0.3214 -0.8292 -0.0778
 3596TIP3    H132279   2.749   4.669  13.042 -0.7932 -0.8881 -1.5354
 3596TIP3    H232280   2.677   4.735  13.157  1.0765 -0.5058 -0.5327
 3597TIP3   OH232281   4.374   2.348   4.734 -0.4248  0.7052 -0.7048
 3597TIP3    H132282   4.366   2.435   4.694 -0.4717  0.5609 -1.0103
 3597TIP3    H232283   4.315   2.352   4.810  0.0869  1.1650 -0.3186
 3598TIP3   OH232284   2.069   3.297   0.900 -0.2863  0.6013 -0.1742
 3598TIP3    H132285   2.016   3.263   0.972  0.1202  2.9956  1.3470
 3598TIP3    H232286   2.029   3.382   0.878  1.3218  1.2387 -0.8049
 3599TIP3   OH232287   0.434   1.713  11.179  0.2273  0.3595 -0.4289
 3599TIP3    H132288   0.470   1.675  11.260  0.2867 -0.0969 -0.6634
 3599TIP3    H232289   0.339   1.710  11.192  0.2592  1.3401  0.0910
 3600TIP3   OH232290   6.194   0.880  13.890 -0.2190  0.4731 -0.2381
 3600TIP3    H132291   6.236   0.895  13.806  1.2002  0.6441  0.4761
 3600TIP3    H232292   6.122   0.944  13.893  0.9297  1.8263 -0.5116
 3601TIP3   OH232293   1.359   5.019  12.845 -0.4780  0.6141  0.1894
 3601TIP3    H132294   1.353   5.114  12.839  1.6668  0.7439 -0.8104
 3601TIP3    H232295   1.330   4.987  12.760 -1.2815  0.3399  0.5534
 3602TIP3   OH232296   1.835   0.259  16.745  0.8421  0.4411  0.4197
 3602TIP3    H132297   1.748   0.287  16.717  1.5960  1.7785 -0.7018
 3602TIP3    H232298   1.861   0.194  16.678  1.3310  1.2293 -0.1716
 3603TIP3   OH232299   6.530   3.110  12.530  0.5951  0.1632  0.5044
 3603TIP3    H132300   6.593   3.040  12.513  1.1126  0.8674 -0.5829
 3603TIP3    H232301   6.456   3.091  12.472  0.1679 -0.1682  1.1366
 3604TIP3   OH232302   2.787   3.486  15.223 -0.3107  0.4616 -0.4826
 3604TIP3    H132303   2.789   3.509  15.130  0.3066  0.1841 -0.5382
 3604TIP3    H232304   2.864   3.432  15.237 -1.5894 -1.4353 -0.3174
 3605TIP3   OH232305   1.626   2.165   6.486  0.1406 -0.1904  0.0517
 3605TIP3    H132306   1.540   2.130   6.509 -0.0294  0.6460  0.7432
 3605TIP3    H232307   1.679   2.153   6.565 -0.0390  1.4434  0.4444
 3606TIP3   OH232308   5.786   4.679  14.717 -0.0816  0.4292 -0.1137
 3606TIP3    H132309   5.851   4.706  14.782 -0.3933  3.5030 -0.9128
 3606TIP3    H232310   5.794   4.744  14.647 -2.4728 -0.4315 -1.2975
 3607TIP3   OH232311   1.279   3.485  15.146  0.5786 -0.1540 -0.2043
 3607TIP3    H132312   1.338   3.412  15.165  0.8250  0.0296 -0.2624
 3607TIP3    H232313   1.237   3.461  15.063  0.3273 -0.4342 -0.0026
 3608TIP3   OH232314   1.661   5.545   1.662  0.3683 -0.1660  0.3765
 3608TIP3    H132315   1.649   5.456   1.696 -0.1979 -0.2776 -0.1055
 3608TIP3    H232316   1.662   5.600   1.740  1.1845 -0.6412  0.7097
 3609TIP3   OH232317   5.516   0.120   5.690 -0.2242  0.0768  0.1507
 3609TIP3    H132318   5.578   0.051   5.669 -0.9969 -0.7485  0.4750
 3609TIP3    H232319   5.450   0.116   5.620 -2.2148 -1.9584  1.9782
 3610TIP3   OH232320   3.638   3.253  13.270  0.5311  0.8648 -0.3322
 3610TIP3    H132321   3.657   3.264  13.177  2.1820 -0.2493 -0.1761
 3610TIP3    H232322   3.543   3.240  13.274  0.3616  1.4758 -1.7810
 3611TIP3   OH232323   5.573   3.862   0.603 -0.8533  0.9022 -0.7277
 3611TIP3    H132324   5.616   3.825   0.526 -1.0622 -0.9410 -0.0150
 3611TIP3    H232325   5.504   3.799   0.625 -0.0406  0.7023  1.6426
 3612TIP3   OH232326   0.310   3.054   5.869 -0.0350 -0.2009  0.2730
 3612TIP3    H132327   0.338   3.127   5.815  1.4133 -0.1018  1.0985
 3612TIP3    H232328   0.373   2.984   5.850 -0.4120 -0.6717  0.7049
 3613TIP3   OH232329   5.629   1.637  12.346 -0.3095  0.8554  0.1432
 3613TIP3    H132330   5.685   1.564  12.318 -1.9294 -0.8593  1.1751
 3613TIP3    H232331   5.665   1.664  12.430 -1.0846 -0.3929  0.9135
 3614TIP3   OH232332   0.742   1.783  16.276 -0.0619  0.1043  0.4049
 3614TIP3    H132333   0.766   1.831  16.197  1.4698  2.6914  2.2665
 3614TIP3    H232334   0.663   1.828  16.308 -0.0796 -0.2538  0.8712
 3615TIP3   OH232335   4.768   1.068   3.920 -0.5509  0.2223 -0.2949
 3615TIP3    H132336   4.863   1.078   3.925 -0.5184 -0.5546  1.7462
 3615TIP3    H232337   4.734   1.141   3.971 -0.8966 -0.7787  0.9970
 3616TIP3   OH232338   1.639   0.809  12.825 -0.2866  0.1542  0.1619
 3616TIP3    H132339   1.659   0.808  12.732 -1.3105 -0.9642 -0.0765
 3616TIP3    H232340   1.622   0.717  12.847  0.3480  0.3391  1.5480
 3617TIP3   OH232341   5.985   1.313   5.143 -1.1062 -0.1326  0.4106
 3617TIP3    H132342   6.000   1.238   5.201  0.5931 -0.3599 -0.2445
 3617TIP3    H232343   5.982   1.388   5.202 -1.5026 -0.5776  0.9647
 3618TIP3   OH232344   1.672   3.148   0.450 -0.2480  0.4052 -0.1567
 3618TIP3    H132345   1.747   3.098   0.483 -0.0102 -0.0121 -1.3013
 3618TIP3    H232346   1.709   3.207   0.385 -0.8129  0.7236 -0.1953
 3619TIP3   OH232347   2.641   0.138  15.017  0.7696 -0.1084  0.0365
 3619TIP3    H132348   2.698   0.080  15.067  0.1731 -0.3483  0.4384
 3619TIP3    H232349   2.680   0.225  15.027  1.8439 -0.4589 -0.8171
 3620TIP3   OH232350   0.375   4.750  15.316  0.1647  0.2178 -0.0715
 3620TIP3    H132351   0.453   4.699  15.293 -0.3194  0.2542 -1.9319
 3620TIP3    H232352   0.409   4.838  15.333  0.7607 -0.2332  1.1782
 3621TIP3   OH232353   0.438   4.478  16.713  0.2061 -0.5131  0.3750
 3621TIP3    H132354   0.520   4.446  16.676 -0.5813 -0.7633 -1.2711
 3621TIP3    H232355   0.374   4.411  16.691 -0.8824  0.7394 -0.4258
 3622TIP3   OH232356   6.776   0.019  15.202 -0.1232 -0.6331 -0.0715
 3622TIP3    H132357   6.823   0.003  15.284 -0.9987  1.9690  1.0564
 3622TIP3    H232358   6.686   0.035  15.229 -0.0210  2.4975 -1.2223
 3623TIP3   OH232359   0.412   3.017  11.402  0.0294 -0.1853 -0.2079
 3623TIP3    H132360   0.348   2.951  11.375  0.0275  0.9187 -3.3045
 3623TIP3    H232361   0.383   3.098  11.359  1.3457  1.3160  1.5487
 3624TIP3   OH232362   6.286   6.578   5.633  0.6834  0.3248  0.2278
 3624TIP3    H132363   6.368   6.624   5.647  1.2107 -0.5909  0.2160
 3624TIP3    H232364   6.298   6.492   5.675 -1.1573  1.0544  2.4780
 3625TIP3   OH232365   0.957   1.714   4.727 -0.4308 -1.0357 -0.3344
 3625TIP3    H132366   0.895   1.787   4.728  1.3450  0.5501  0.3484
 3625TIP3    H232367   0.980   1.704   4.635  0.1818  0.0996 -0.3324
 3626TIP3   OH232368   4.587   4.363  12.383  0.1273  0.3385  0.5132
 3626TIP3    H132369   4.492   4.353  12.379  0.2568 -0.6667 -1.9524
 3626TIP3    H232370   4.602   4.454  12.359 -0.1991  0.3582  0.3767
 3627TIP3   OH232371   5.390   1.632   1.591  0.2123  0.4640  0.1439
 3627TIP3    H132372   5.432   1.671   1.668  0.6359 -0.0167  0.1605
 3627TIP3    H232373   5.356   1.707   1.542  3.1649  1.1479 -1.1117
 3628TIP3   OH232374   4.695   4.135  10.139  0.0238  0.2738  0.6512
 3628TIP3    H132375   4.641   4.058  10.157 -0.2549  0.4704  0.6719
 3628TIP3    H232376   4.746   4.147  10.219  0.3366 -0.1057  0.5096
 3629TIP3   OH232377   4.343   4.466  14.193  0.5694  0.1325 -0.2257
 3629TIP3    H132378   4.285   4.526  14.148 -0.8659 -2.4911 -2.1875
 3629TIP3    H232379   4.307   4.460  14.282 -0.8443  0.2213 -0.7714
 3630TIP3   OH232380   4.527   1.741   1.528  0.0358  0.1993 -0.8346
 3630TIP3    H132381   4.472   1.811   1.491  0.9442  0.7174 -1.2386
 3630TIP3    H232382   4.574   1.705   1.453  1.5924  0.9830 -0.2743
 3631TIP3   OH232383   6.481   1.303   0.068  0.4491  0.1131  0.3559
 3631TIP3    H132384   6.504   1.232   0.127  0.1906  0.1898  0.5504
 3631TIP3    H232385   6.423   1.359   0.119 -0.3696 -0.2023 -0.2017
 3632TIP3   OH232386   2.044   0.025  16.316  0.1404 -0.4871  0.3908
 3632TIP3    H132387   2.013  -0.001  16.403  0.6396 -1.1871  0.3701
 3632TIP3    H232388   1.967   0.014  16.259 -0.4052  0.7049  0.8627
 3633TIP3   OH232389   5.471   6.314  15.725 -0.0259 -0.1421  0.2032
 3633TIP3    H132390   5.553   6.310  15.675 -0.4498 -1.2134 -0.4507
 3633TIP3    H232391   5.441   6.223  15.728 -2.0374  0.4289 -1.0082
 3634TIP3   OH232392   5.630   1.161  16.849 -0.1344 -0.1654 -0.1123
 3634TIP3    H132393   5.723   1.181  16.839 -0.0963 -0.4772 -0.3799
 3634TIP3    H232394   5.585   1.236  16.809 -0.0338  0.9006  1.6175
 3635TIP3   OH232395   3.498   4.792  14.055  0.0785  0.8144  0.6118
 3635TIP3    H132396   3.456   4.872  14.087 -2.2756 -0.6942  1.6172
 3635TIP3    H232397   3.431   4.750  14.001  1.5646 -0.0822 -0.6152
 3636TIP3   OH232398   5.813   4.325   3.358 -0.0917  0.0523 -0.6857
 3636TIP3    H132399   5.843   4.414   3.337 -0.8043  0.0579 -1.7628
 3636TIP3    H232400   5.806   4.324   3.453 -1.2067  1.5427 -0.7119
 3637TIP3   OH232401   2.110   5.330   1.629 -0.3238  0.4000  0.8054
 3637TIP3    H132402   2.138   5.333   1.538  0.2298  0.1409  0.9674
 3637TIP3    H232403   2.047   5.402   1.637  0.9294  1.5456  0.6449
 3638TIP3   OH232404   5.499   6.016   1.694 -0.5565 -0.3819  0.1619
 3638TIP3    H132405   5.441   5.943   1.714 -0.4327 -0.6905 -0.5648
 3638TIP3    H232406   5.555   5.984   1.623  0.3172  0.0098  0.6662
 3639TIP3   OH232407   5.615   6.786   4.197  0.0858 -0.0508 -0.0986
 3639TIP3    H132408   5.527   6.815   4.222 -0.0694  0.2246 -0.9543
 3639TIP3    H232409   5.600   6.715   4.134  0.4444  1.2830 -1.7635
 3640TIP3   OH232410   4.086   3.281   2.480 -0.2880  0.3367  0.0978
 3640TIP3    H132411   4.098   3.261   2.573  0.6126  0.1767 -0.0422
 3640TIP3    H232412   4.043   3.366   2.479  1.7742  1.4297  0.6470
 3641TIP3   OH232413   1.455   6.778   4.495  0.2244  0.1488  0.4998
 3641TIP3    H132414   1.450   6.736   4.410  0.0492 -0.8479  0.9894
 3641TIP3    H232415   1.409   6.718   4.554  1.7263  0.0278  1.6032
 3642TIP3   OH232416   3.363   3.154   2.393 -0.1542 -0.1192  0.1634
 3642TIP3    H132417   3.314   3.079   2.359 -3.1169  1.5548  0.3811
 3642TIP3    H232418   3.349   3.151   2.487 -1.6379  1.4341  0.0609
 3643TIP3   OH232419   3.859   5.172  16.623 -0.8946  0.2589  0.2250
 3643TIP3    H132420   3.915   5.160  16.700  0.2557 -1.4488 -0.8128
 3643TIP3    H232421   3.845   5.266  16.618  1.0270  0.6352  1.1396
 3644TIP3   OH232422   5.800   6.166  15.287  0.0559  0.3791  0.1582
 3644TIP3    H132423   5.707   6.189  15.285 -0.0487  0.1627  1.5147
 3644TIP3    H232424   5.838   6.213  15.213 -0.7006  2.4005  0.9758
 3645TIP3   OH232425   5.195   4.790   1.452  0.2258  0.6240 -0.2008
 3645TIP3    H132426   5.107   4.819   1.477  0.6109  0.3632  1.5916
 3645TIP3    H232427   5.253   4.858   1.485  0.8635 -0.3997  0.8783
 3646TIP3   OH232428   2.830   5.285   1.927 -0.1061  0.5828 -0.3001
 3646TIP3    H132429   2.798   5.301   1.838 -2.6731 -0.0561  0.4356
 3646TIP3    H232430   2.752   5.262   1.977  1.4522 -0.3781  1.8409
 3647TIP3   OH232431   3.432   5.545   1.130 -0.0676 -0.1878  0.3000
 3647TIP3    H132432   3.455   5.539   1.038  0.5805  1.6743  0.2959
 3647TIP3    H232433   3.508   5.510   1.176  1.3010  2.3495  0.1709
 3648TIP3   OH232434   4.095   6.237   0.877  0.0279 -0.1515  0.0095
 3648TIP3    H132435   4.151   6.308   0.846  1.2803 -1.7049 -1.3842
 3648TIP3    H232436   4.094   6.248   0.972  1.2534  0.9511 -0.0771
 3649TIP3   OH232437   2.422   3.169   0.812 -0.2046  0.5459  0.1900
 3649TIP3    H132438   2.456   3.127   0.733  0.1941  0.6806  0.2863
 3649TIP3    H232439   2.403   3.097   0.871 -0.1403  0.4663  0.1136
 3650TIP3   OH232440   2.197   6.790   1.719  0.2697  0.3160  0.3298
 3650TIP3    H132441   2.131   6.758   1.658 -0.1984  0.8605  0.5434
 3650TIP3    H232442   2.265   6.723   1.718 -0.4338 -0.4148  0.3588
 3651TIP3   OH232443   4.313   2.954   1.074 -0.7868 -0.7424 -0.2176
 3651TIP3    H132444   4.246   3.018   1.049 -1.0518 -0.0034  2.1409
 3651TIP3    H232445   4.309   2.887   1.006 -2.5217  0.2883 -1.2001
 3652TIP3   OH232446   0.362   2.623   4.513 -0.6804  0.4616  0.4536
 3652TIP3    H132447   0.318   2.554   4.563  0.9279 -0.7384  0.3153
 3652TIP3    H232448   0.306   2.637   4.437 -0.2298 -2.0356 -0.4546
 3653TIP3   OH232449   0.873   4.471   0.121  0.3204  0.2450  0.2430
 3653TIP3    H132450   0.960   4.450   0.156  2.2007  1.3798 -3.2440
 3653TIP3    H232451   0.870   4.566   0.120  0.1445  0.2613 -1.9323
 3654TIP3   OH232452   4.331   0.626   4.417 -0.0968  0.5899  0.3067
 3654TIP3    H132453   4.338   0.543   4.465 -0.5947  1.0898  1.2813
 3654TIP3    H232454   4.314   0.691   4.485 -4.5688  0.8768 -0.7753
 3655TIP3   OH232455   2.450   4.531  13.431 -0.1733 -1.1346 -0.3019
 3655TIP3    H132456   2.380   4.573  13.479  0.7195 -0.9303  0.8590
 3655TIP3    H232457   2.406   4.464  13.377 -1.1525 -1.7743  1.2289
 3656TIP3   OH232458   6.647   5.882   1.145 -0.2249  0.1031 -0.0054
 3656TIP3    H132459   6.686   5.933   1.216  3.1481  0.3019 -1.8192
 3656TIP3    H232460   6.593   5.817   1.190  1.9944  0.0014  2.7849
 3657TIP3   OH232461   4.435   3.020  13.038 -0.1732  0.4905  0.2070
 3657TIP3    H132462   4.484   2.939  13.023 -1.1706 -0.1009  0.0658
 3657TIP3    H232463   4.441   3.033  13.133 -2.0862 -1.1515  0.6329
 3658TIP3   OH232464   5.686   2.289   1.096 -0.2394  0.0570  0.2134
 3658TIP3    H132465   5.780   2.273   1.099  0.1532  2.0480 -0.4021
 3658TIP3    H232466   5.655   2.266   1.184  0.9885  0.3117  0.7319
 3659TIP3   OH232467   1.325   1.827  12.467 -0.3040  0.2224  0.4580
 3659TIP3    H132468   1.248   1.791  12.510 -0.5425 -0.7428 -0.7282
 3659TIP3    H232469   1.290   1.888  12.402 -0.2348 -1.6908 -1.4777
 3660TIP3   OH232470   3.508   4.206  16.724  0.5252 -0.7394  0.3101
 3660TIP3    H132471   3.523   4.272  16.657  1.1544 -0.3283  0.8353
 3660TIP3    H232472   3.596   4.178  16.750  0.2704 -1.5452  0.3294
 3661TIP3   OH232473   5.368   0.122   1.269  0.2147  0.1239 -0.1011
 3661TIP3    H132474   5.328   0.145   1.353 -0.2751 -0.1364 -0.2601
 3661TIP3    H232475   5.445   0.179   1.263 -0.5441  1.1679 -0.1373
 3662TIP3   OH232476   1.025   2.272  16.361 -0.1205  0.2788  0.0578
 3662TIP3    H132477   1.111   2.277  16.317 -0.6319  0.9247 -0.9055
 3662TIP3    H232478   0.983   2.355  16.341 -1.2104 -0.2652  0.0209
 3663TIP3   OH232479   0.670   1.023  11.689 -0.0716 -0.0872  0.3823
 3663TIP3    H132480   0.652   0.946  11.636 -0.1772 -0.9518  1.6196
 3663TIP3    H232481   0.734   1.073  11.639 -1.3375 -0.0391 -1.2841
 3664TIP3   OH232482   3.770   3.176  15.945 -0.4224  0.9903  0.3630
 3664TIP3    H132483   3.801   3.097  15.901  0.7216  1.4071  0.3790
 3664TIP3    H232484   3.779   3.157  16.038 -2.1558  0.3787  0.4427
 3665TIP3   OH232485   5.247   4.721  12.311 -0.6270 -0.4339  0.3168
 3665TIP3    H132486   5.225   4.765  12.393  0.3266 -0.2355  0.4827
 3665TIP3    H232487   5.165   4.720  12.261 -0.6888  1.6232  0.2672
 3666TIP3   OH232488   1.330   6.062   0.641  0.4126  1.0535 -0.0606
 3666TIP3    H132489   1.405   6.054   0.700  1.7652  0.4410 -1.7856
 3666TIP3    H232490   1.254   6.044   0.697  1.7152 -0.7414  1.2624
 3667TIP3   OH232491   1.781   1.208  15.775 -0.0910  0.0727  0.5562
 3667TIP3    H132492   1.756   1.156  15.698 -0.3829 -1.4568  1.6385
 3667TIP3    H232493   1.837   1.278  15.740 -0.2136 -0.5885 -1.0367
 3668TIP3   OH232494   3.342   3.858  12.544 -0.0510 -0.2883  0.2505
 3668TIP3    H132495   3.341   3.785  12.606 -0.7026 -2.0913 -1.7233
 3668TIP3    H232496   3.415   3.837  12.485 -0.9370  0.0310 -0.9989
 3669TIP3   OH232497   2.862   4.052   0.074  0.1528 -0.0211  0.2422
 3669TIP3    H132498   2.887   3.960   0.068 -1.1399 -0.2994 -1.7557
 3669TIP3    H232499   2.912   4.096   0.006 -1.2857  0.2162 -0.7091
 3670TIP3   OH232500   1.621   3.481  12.675  0.0060 -0.3586  0.1641
 3670TIP3    H132501   1.614   3.506  12.583 -2.0066 -1.0905  0.0704
 3670TIP3    H232502   1.545   3.523  12.717  0.6973 -0.3236  1.4278
 3671TIP3   OH232503   1.099   6.284  14.083  0.3571  0.3831  0.3898
 3671TIP3    H132504   1.093   6.220  14.154  1.9059 -0.5623 -0.2740
 3671TIP3    H232505   1.175   6.338  14.106  0.5230  0.4380 -0.2640
 3672TIP3   OH232506   3.852   0.380  16.790 -0.4973  0.3545  0.4334
 3672TIP3    H132507   3.900   0.302  16.762 -0.7458  0.6696 -0.9265
 3672TIP3    H232508   3.786   0.348  16.851  1.3561 -0.1074  2.3289
 3673TIP3   OH232509   6.053   4.422   1.542 -0.3718 -0.7092 -0.6911
 3673TIP3    H132510   5.964   4.413   1.577  0.4136 -0.7133  1.4366
 3673TIP3    H232511   6.079   4.512   1.563  0.8133 -1.2980  0.4937
 3674TIP3   OH232512   4.937   2.380   1.757  0.1427  0.1274  0.3613
 3674TIP3    H132513   4.984   2.398   1.676  1.3275  0.1031  1.0124
 3674TIP3    H232514   4.855   2.340   1.729  0.4127  0.3653 -0.8290
 3675TIP3   OH232515   4.997   0.685   1.789  0.1798 -0.3486  0.4250
 3675TIP3    H132516   4.974   0.658   1.701 -0.3066 -0.2270  0.5150
 3675TIP3    H232517   5.092   0.696   1.787  0.1826 -0.4737 -0.0457
 3676TIP3   OH232518   5.050   1.898  13.844  0.2436  0.3694  0.1175
 3676TIP3    H132519   4.983   1.830  13.842  0.1563  0.4649 -0.8383
 3676TIP3    H232520   5.024   1.960  13.776  0.7945  0.9044  0.3800
 3677TIP3   OH232521   5.864   1.511   0.708 -0.4912 -0.5926 -0.3524
 3677TIP3    H132522   5.861   1.419   0.685 -2.6225 -0.3181 -1.3915
 3677TIP3    H232523   5.862   1.557   0.624  2.3802  0.4621  0.0453
 3678TIP3   OH232524   5.065   3.188  15.508 -0.0449  0.4072  0.2134
 3678TIP3    H132525   5.064   3.239  15.589  1.9539  1.6506 -0.4774
 3678TIP3    H232526   5.125   3.116  15.526 -1.6638 -0.8698  0.6733
 3679TIP3   OH232527   0.743   3.380  13.466 -0.1195 -0.2866  0.4565
 3679TIP3    H132528   0.669   3.423  13.510 -0.9401 -0.4218 -0.7320
 3679TIP3    H232529   0.711   3.363  13.377  0.6847 -2.0804  0.4671
 3680TIP3   OH232530   6.103   1.538   2.408  0.1800 -0.0052 -0.2801
 3680TIP3    H132531   6.076   1.446   2.406  0.5288 -0.0967 -1.3488
 3680TIP3    H232532   6.041   1.583   2.350  1.1602  0.1024 -1.2712
 3681TIP3   OH232533   0.890   6.837  12.911 -0.1664 -0.4316  0.0193
 3681TIP3    H132534   0.964   6.823  12.971  0.2915 -0.3542 -0.5241
 3681TIP3    H232535   0.930   6.849  12.825 -0.5856  2.4521  0.1361
 3682TIP3   OH232536   5.958   5.303   4.459  0.1100  0.3878  0.3826
 3682TIP3    H132537   6.005   5.337   4.382  0.8353 -0.5401  0.3949
 3682TIP3    H232538   5.909   5.228   4.425  0.9579 -0.4445  0.9244
 3683TIP3   OH232539   0.285   2.406  12.666 -0.3487  0.1225  0.4607
 3683TIP3    H132540   0.255   2.468  12.600 -0.5111 -0.9940 -0.5542
 3683TIP3    H232541   0.296   2.324  12.619  2.1394 -0.0956  1.2644
 3684TIP3   OH232542   3.584   0.787   4.067  0.0938  0.0079  0.1053
 3684TIP3    H132543   3.597   0.871   4.112  1.1843 -0.2839  0.3675
 3684TIP3    H232544   3.672   0.757   4.046 -0.2849 -1.0621 -0.0284
 3685TIP3   OH232545   3.975   6.693   5.907  0.6215  0.2064  0.6226
 3685TIP3    H132546   3.925   6.685   5.825  0.2153 -2.6865  1.0249
 3685TIP3    H232547   4.066   6.682   5.881  0.6723  1.2512  0.3504
 3686TIP3   OH232548   5.755   5.929   1.226  0.1202  0.1314 -0.7510
 3686TIP3    H132549   5.786   5.886   1.147  1.6597  0.2050 -0.2252
 3686TIP3    H232550   5.780   5.871   1.297 -0.7123  0.3466 -0.2643
 3687TIP3   OH232551   2.097   4.259  12.910 -0.1521  0.3050 -0.3189
 3687TIP3    H132552   2.153   4.249  12.987 -0.6889  1.3300  0.2383
 3687TIP3    H232553   2.154   4.239  12.836  0.8207  0.8362  0.2576
 3688TIP3   OH232554   2.309   3.240  15.728  0.1945 -0.3060  0.3946
 3688TIP3    H132555   2.235   3.298  15.741 -0.3038 -0.8370 -0.0130
 3688TIP3    H232556   2.377   3.275  15.785 -0.2700  0.3561  0.5546
 3689TIP3   OH232557   2.151   5.518  11.783 -0.4501 -0.0656 -0.7533
 3689TIP3    H132558   2.160   5.608  11.813  0.1091  0.0369 -1.2158
 3689TIP3    H232559   2.057   5.507  11.769 -0.9591 -0.5329  2.2758
 3690TIP3   OH232560   2.988   4.273   1.212  0.1235 -0.4200  0.2358
 3690TIP3    H132561   3.015   4.207   1.148 -1.0564 -1.1016  0.4185
 3690TIP3    H232562   2.893   4.264   1.218  0.1696 -0.1042  1.7943
 3691TIP3   OH232563   4.570   3.895   4.127 -0.4261 -0.0486  0.1485
 3691TIP3    H132564   4.477   3.915   4.117  0.0410  2.7473  0.5945
 3691TIP3    H232565   4.601   3.956   4.193  1.9240 -0.2508 -0.6625
 3692TIP3   OH232566   1.904   5.992   0.130 -0.2440 -0.0678 -0.2795
 3692TIP3    H132567   1.861   5.921   0.177  0.9960  0.6352  2.0780
 3692TIP3    H232568   1.994   5.961   0.117 -0.2561  0.2356 -1.1812
 3693TIP3   OH232569   0.433   3.666  12.619  0.4967  0.3389 -1.3104
 3693TIP3    H132570   0.525   3.692  12.618  0.7581 -0.2272  1.3743
 3693TIP3    H232571   0.433   3.574  12.595  0.7521  0.0891 -0.3724
 3694TIP3   OH232572   5.021   0.847   4.956 -0.1364 -0.2564 -0.3164
 3694TIP3    H132573   5.008   0.925   4.902 -1.3937 -0.7228 -0.7289
 3694TIP3    H232574   4.955   0.785   4.924  1.0594 -1.6159 -0.2289
 3695TIP3   OH232575   4.818   5.762   2.437  0.1742  0.4238  0.3038
 3695TIP3    H132576   4.896   5.775   2.491 -0.3357 -1.1578  1.4972
 3695TIP3    H232577   4.766   5.697   2.485 -2.2641  1.9741 -0.0579
 3696TIP3   OH232578   1.394   0.716  15.982  0.0933 -0.5288  0.1574
 3696TIP3    H132579   1.429   0.655  16.046 -1.8688 -1.4032  0.4811
 3696TIP3    H232580   1.378   0.663  15.903  2.7990  0.5971 -1.2843
 3697TIP3   OH232581   1.248   4.394  11.931 -0.0679  0.2573  0.6128
 3697TIP3    H132582   1.331   4.348  11.922  0.8597  1.7969  0.8351
 3697TIP3    H232583   1.219   4.410  11.841 -0.0896 -0.2098  0.5340
 3698TIP3   OH232584   2.831   6.305   2.389 -0.6495 -0.6170 -0.1523
 3698TIP3    H132585   2.769   6.310   2.316  0.9931 -0.0409 -1.5725
 3698TIP3    H232586   2.813   6.382   2.442  0.5648  1.0633 -2.0428
 3699TIP3   OH232587   1.856   5.500  12.252 -0.1242 -0.5564 -0.6676
 3699TIP3    H132588   1.888   5.544  12.330 -0.9073  1.0866 -1.2165
 3699TIP3    H232589   1.760   5.501  12.261 -0.1691 -3.1152 -0.2288
 3700TIP3   OH232590   1.740   1.967   0.488  0.2812  0.8252  0.1066
 3700TIP3    H132591   1.698   1.996   0.407 -2.4979  0.3294  1.2626
 3700TIP3    H232592   1.728   1.872   0.488  0.1971  0.8258  1.1214
 3701TIP3   OH232593   2.421   5.572   3.428 -0.6722  0.1953 -0.0688
 3701TIP3    H132594   2.476   5.624   3.488  1.3513  1.0629 -2.5115
 3701TIP3    H232595   2.428   5.483   3.460  1.3829  0.4498  0.3087
 3702TIP3   OH232596   2.611   3.351   1.921  0.1472 -0.0790  0.4240
 3702TIP3    H132597   2.695   3.306   1.920  0.3188  0.2245 -1.3910
 3702TIP3    H232598   2.599   3.384   1.832 -0.7561  2.0288  1.2353
 3703TIP3   OH232599   5.035   3.983   2.741 -0.3778  0.4026  0.2729
 3703TIP3    H132600   5.031   3.888   2.740 -0.6183  0.4133 -0.4553
 3703TIP3    H232601   5.124   4.003   2.710  0.5033  0.3998  2.5806
 3704TIP3   OH232602   3.533   1.321   4.364 -0.5069  0.1089  0.1944
 3704TIP3    H132603   3.492   1.311   4.279 -1.2645  0.3797  0.5139
 3704TIP3    H232604   3.470   1.372   4.415 -0.9859 -1.7510  1.5477
 3705TIP3   OH232605   5.402   5.445   0.373  0.0224 -0.3034  0.8793
 3705TIP3    H132606   5.489   5.483   0.361 -0.9673  1.8230 -0.1152
 3705TIP3    H232607   5.381   5.406   0.288 -0.6158  0.6141  0.6048
 3706TIP3   OH232608   2.652   1.354   4.738 -0.3725  0.3029 -0.4117
 3706TIP3    H132609   2.728   1.351   4.680 -0.5401  0.0453 -0.6254
 3706TIP3    H232610   2.577   1.350   4.678 -0.5594  0.9207 -0.2252
 3707TIP3   OH232611   3.647   4.054   4.067  0.1416 -0.1703  0.0518
 3707TIP3    H132612   3.588   4.094   4.132  0.5612  2.1430 -0.9047
 3707TIP3    H232613   3.735   4.073   4.100  0.3984 -1.7728  0.3830
 3708TIP3   OH232614   3.378   6.143  13.917  0.2792 -0.2968 -0.1748
 3708TIP3    H132615   3.325   6.168  13.992  1.3142 -4.7183  2.4116
 3708TIP3    H232616   3.320   6.089  13.863  0.7972 -1.1147  0.0655
 3709TIP3   OH232617   4.120   6.551   4.743  0.5236  0.4927  0.0506
 3709TIP3    H132618   4.066   6.620   4.781  1.3647  1.1369  0.1224
 3709TIP3    H232619   4.158   6.591   4.665  2.1149  0.5898  0.8420
 3710TIP3   OH232620   2.892   6.022   5.287 -0.1562  0.0891 -0.6016
 3710TIP3    H132621   2.820   6.077   5.258 -0.3412  0.3588  0.3312
 3710TIP3    H232622   2.944   6.007   5.208 -1.0747  0.1223 -1.2228
 3711TIP3   OH232623   2.633   6.108   5.576  0.0227  0.1891  0.4452
 3711TIP3    H132624   2.608   6.085   5.487  1.3252  0.7327 -0.1026
 3711TIP3    H232625   2.648   6.025   5.620 -0.8793 -0.0879  0.2303
 3712TIP3   OH232626   4.057   0.886  12.645 -0.6992 -0.6762  0.4461
 3712TIP3    H132627   3.978   0.907  12.695 -1.3142 -2.1520  0.1541
 3712TIP3    H232628   4.027   0.881  12.554 -0.0083 -0.0564  0.1714
 3713TIP3   OH232629   6.176   1.135   0.407  0.1360 -0.1316 -0.9267
 3713TIP3    H132630   6.147   1.046   0.385 -0.4512 -0.6617  1.6607
 3713TIP3    H232631   6.191   1.132   0.502 -0.2311  2.6197 -0.7220
 3714TIP3   OH232632   1.449   1.107   5.828 -0.1680  0.5379  0.4923
 3714TIP3    H132633   1.519   1.068   5.775 -0.8300 -0.4088  0.2916
 3714TIP3    H232634   1.495   1.144   5.904  0.7081  1.2249 -0.3422
 3715TIP3   OH232635   5.346   2.945  16.160  0.2791 -0.2178 -0.0508
 3715TIP3    H132636   5.251   2.943  16.148  0.2139 -0.9349  0.5272
 3715TIP3    H232637   5.367   3.039  16.162 -0.2011 -0.0372 -1.7163
 3716TIP3   OH232638   3.801   1.519   5.804 -0.3952  0.1895 -0.5031
 3716TIP3    H132639   3.823   1.488   5.892 -0.7174  1.2345 -0.0331
 3716TIP3    H232640   3.884   1.520   5.757 -0.2964 -0.8397 -0.3653
 3717TIP3   OH232641   5.214   6.575  11.339  0.0643  0.2811  0.2722
 3717TIP3    H132642   5.236   6.495  11.291  0.5539  0.6245 -0.0738
 3717TIP3    H232643   5.167   6.629  11.276 -3.3479 -1.1028  1.4263
 3718TIP3   OH232644   2.663   2.718  15.119 -0.1388  0.2720 -0.1879
 3718TIP3    H132645   2.733   2.709  15.054 -0.1585 -1.5815  0.0129
 3718TIP3    H232646   2.688   2.796  15.169  0.6680  0.8648 -1.4333
 3719TIP3   OH232647   6.359   3.592   1.213 -0.3597 -0.2011 -0.2983
 3719TIP3    H132648   6.373   3.518   1.272  0.4311 -0.0394 -0.2746
 3719TIP3    H232649   6.287   3.641   1.253  0.0750 -0.1695  0.4624
 3720TIP3   OH232650   4.621   3.175  12.310 -0.0350  0.5112  0.3140
 3720TIP3    H132651   4.680   3.155  12.383  0.1138 -0.0183  0.0576
 3720TIP3    H232652   4.554   3.107  12.314  1.1423 -0.8378 -1.3010
 3721TIP3   OH232653   1.049   6.581   4.018  0.6198 -0.0234 -0.4936
 3721TIP3    H132654   1.104   6.651   3.984  0.7207 -0.0318 -0.3515
 3721TIP3    H232655   0.990   6.559   3.947  0.1085  0.6973 -0.2966
 3722TIP3   OH232656   2.045   1.152  13.290 -0.0971 -0.4500 -0.8473
 3722TIP3    H132657   1.997   1.071  13.305 -3.0001  0.6884 -3.1459
 3722TIP3    H232658   2.098   1.134  13.212 -0.1301 -0.3813 -0.8859
 3723TIP3   OH232659   1.233   0.402  12.102 -0.1897 -0.1377 -0.2151
 3723TIP3    H132660   1.219   0.330  12.041 -1.2286  0.4357 -0.6732
 3723TIP3    H232661   1.296   0.368  12.166  0.8555 -0.7821 -1.5463
 3724TIP3   OH232662   1.621   2.611   3.553  0.0159  0.4648  0.7911
 3724TIP3    H132663   1.695   2.555   3.529 -0.4571 -0.0356  0.4829
 3724TIP3    H232664   1.564   2.555   3.605 -1.1571  0.2317 -0.6968
 3725TIP3   OH232665   6.256   1.900   1.928 -0.4511  0.3541 -0.4788
 3725TIP3    H132666   6.334   1.955   1.938 -0.8394  0.7188  0.7002
 3725TIP3    H232667   6.270   1.853   1.846  2.8305 -2.5673  1.4894
 3726TIP3   OH232668   0.358   5.154   5.260  0.3291  0.3536 -0.2700
 3726TIP3    H132669   0.350   5.061   5.243  1.7487  0.0815  0.3780
 3726TIP3    H232670   0.428   5.184   5.201 -0.0657  1.0031 -0.4291
 3727TIP3   OH232671   2.121   4.102  16.197  0.1848 -0.4783  0.2275
 3727TIP3    H132672   2.112   4.070  16.286 -0.5189 -1.4776 -0.1824
 3727TIP3    H232673   2.143   4.024  16.146 -1.9982 -0.4512 -0.8786
 3728TIP3   OH232674   3.627   3.211   2.411  0.5646 -0.4683  0.3857
 3728TIP3    H132675   3.535   3.184   2.403  0.8806 -1.7602  0.7576
 3728TIP3    H232676   3.647   3.200   2.504  1.0062  0.1063  0.3599
 3729TIP3   OH232677   4.190   0.689   3.324  0.0427 -0.0197 -0.9430
 3729TIP3    H132678   4.230   0.684   3.411 -0.1838  0.4920 -0.8095
 3729TIP3    H232679   4.261   0.718   3.267 -0.2540  1.3955 -0.6171
 3730TIP3   OH232680   1.762   0.913  11.823  0.3757  0.2103  0.7012
 3730TIP3    H132681   1.738   0.828  11.860 -1.2477  0.0551 -0.5973
 3730TIP3    H232682   1.696   0.973  11.856  0.9814  0.7881  0.8806
 3731TIP3   OH232683   1.518   1.929  16.955  0.2092  0.1249 -0.5415
 3731TIP3    H132684   1.526   1.936  17.050 -0.1483  0.6824 -0.5504
 3731TIP3    H232685   1.559   1.845  16.933  2.5418  1.0806 -0.1448
 3732TIP3   OH232686   4.959   5.689   1.846 -0.2703 -0.4149 -0.2168
 3732TIP3    H132687   4.961   5.674   1.751  1.4865  0.2541 -0.3167
 3732TIP3    H232688   4.986   5.780   1.856  0.4882 -0.7549  0.9822
 3733TIP3   OH232689   5.482   5.969   5.381  0.1944  0.2134  0.3975
 3733TIP3    H132690   5.434   5.924   5.450 -1.1797 -0.4320 -0.9289
 3733TIP3    H232691   5.541   5.902   5.345  2.1096  0.9810  1.9684
 3734TIP3   OH232692   3.382   0.979   5.723 -0.3616 -0.0727  0.2462
 3734TIP3    H132693   3.305   0.928   5.697 -2.1754  0.6426  3.6356
 3734TIP3    H232694   3.360   1.069   5.701  0.1275 -0.0129 -0.0175
 3735TIP3   OH232695   0.112   0.165  13.598  0.3741  0.0525 -0.0199
 3735TIP3    H132696   0.049   0.233  13.623 -0.2565  0.6232 -2.7760
 3735TIP3    H232697   0.058   0.099  13.553  1.3725 -0.8674  0.1102
 3736TIP3   OH232698   2.671   0.134   2.599  0.6168  0.2325  0.3832
 3736TIP3    H132699   2.657   0.097   2.686  0.0420 -2.3562 -0.7110
 3736TIP3    H232700   2.763   0.160   2.598  1.1947 -1.6186  1.1365
 3737TIP3   OH232701   0.325   3.926  11.023 -0.0846  0.2157 -0.3393
 3737TIP3    H132702   0.311   4.019  11.044  2.2921  0.8307 -1.1505
 3737TIP3    H232703   0.415   3.922  10.993 -0.0594 -2.4427 -0.1043
 3738TIP3   OH232704   6.580   2.236   5.268 -0.1614 -0.2812 -0.7155
 3738TIP3    H132705   6.576   2.331   5.260 -0.5197 -0.2243  0.0472
 3738TIP3    H232706   6.489   2.209   5.284  0.0296 -0.6823 -0.2671
 3739TIP3   OH232707   3.169   2.854  15.670 -0.5360 -0.2745  0.2506
 3739TIP3    H132708   3.150   2.792  15.740 -0.0277  0.0865  0.7131
 3739TIP3    H232709   3.244   2.904  15.701 -0.8766  0.5150 -0.1593
 3740TIP3   OH232710   1.345   5.269   0.193  0.3664  0.4477  0.4537
 3740TIP3    H132711   1.292   5.325   0.250  0.5559  0.5059  0.5738
 3740TIP3    H232712   1.435   5.279   0.226  0.4285  0.2217  0.3563
 3741TIP3   OH232713   3.257   2.024   6.806 -0.3911 -0.0936  0.4839
 3741TIP3    H132714   3.252   1.934   6.774  1.7502 -0.8010  1.9069
 3741TIP3    H232715   3.192   2.029   6.876  0.8449 -1.1774  1.7387
 3742TIP3   OH232716   2.660   1.180   5.879  0.2338 -0.4620  0.2726
 3742TIP3    H132717   2.620   1.149   5.960  0.0569 -0.4550  0.1895
 3742TIP3    H232718   2.754   1.167   5.892  0.6014  2.8959  1.9297
 3743TIP3   OH232719   3.410   5.023  15.038 -0.1140  0.1747 -0.2882
 3743TIP3    H132720   3.441   5.109  15.065  0.2734 -0.5894  1.8807
 3743TIP3    H232721   3.316   5.025  15.057 -0.1336  0.1675 -0.3854
 3744TIP3   OH232722   6.696   3.224  11.713 -0.0988  0.4468  0.0528
 3744TIP3    H132723   6.622   3.232  11.652 -0.3753  3.1304  0.5816
 3744TIP3    H232724   6.767   3.270  11.669 -0.2021  2.1127  1.5098
 3745TIP3   OH232725   6.515   5.808  14.392  0.4189 -0.1419  0.1067
 3745TIP3    H132726   6.444   5.858  14.351 -1.8341 -3.3105 -0.2497
 3745TIP3    H232727   6.564   5.772  14.318 -0.6298 -1.8281  0.1685
 3746TIP3   OH232728   4.920   4.286  14.626  0.0066 -0.2039  0.2084
 3746TIP3    H132729   4.896   4.215  14.566 -1.9191  0.4236  0.1570
 3746TIP3    H232730   4.987   4.248  14.683 -0.3356 -1.7788 -0.3860
 3747TIP3   OH232731   1.800   2.589  12.903  0.2485 -0.1076 -0.1900
 3747TIP3    H132732   1.720   2.643  12.904  0.0890 -0.3307  1.2172
 3747TIP3    H232733   1.863   2.639  12.955  0.3473 -0.9042  0.4715
 3748TIP3   OH232734   4.521   6.218  10.703  0.0716  0.1733  0.3196
 3748TIP3    H132735   4.466   6.162  10.648 -0.0474  1.5129 -0.9714
 3748TIP3    H232736   4.566   6.157  10.762 -2.0905 -1.0377  0.8180
 3749TIP3   OH232737   0.345   1.963   0.840 -0.4430  0.5858  0.1765
 3749TIP3    H132738   0.405   1.992   0.909  0.1001  0.7190 -0.3452
 3749TIP3    H232739   0.380   2.002   0.760 -0.2700 -0.6981 -0.3868
 3750TIP3   OH232740   5.561   0.640  14.590  0.0566  0.0666 -0.1021
 3750TIP3    H132741   5.637   0.694  14.613 -0.6094  1.1614 -0.3486
 3750TIP3    H232742   5.597   0.564  14.546  1.1006 -0.1335  1.0563
 3751TIP3   OH232743   0.538   0.332   4.785 -0.0522  0.2653 -0.0715
 3751TIP3    H132744   0.481   0.256   4.773 -0.8821  0.8893 -0.1549
 3751TIP3    H232745   0.522   0.361   4.875  1.2613 -0.4349  0.4307
 3752TIP3   OH232746   6.408   4.954   2.716  0.6371 -0.0144  0.5902
 3752TIP3    H132747   6.416   5.024   2.652 -1.5923 -1.1529 -1.0950
 3752TIP3    H232748   6.423   4.996   2.800  1.0012  2.1183 -0.4779
 3753TIP3   OH232749   4.160   3.006  10.919  0.5846  0.1602  0.7363
 3753TIP3    H132750   4.198   2.932  10.965 -0.1497 -0.0500  1.0210
 3753TIP3    H232751   4.169   3.080  10.980  1.1107  0.2608  0.5427
 3754TIP3   OH232752   6.116   5.141  11.875 -0.1878  0.0323  0.1108
 3754TIP3    H132753   6.095   5.195  11.951  0.2245  0.3719 -0.0121
 3754TIP3    H232754   6.132   5.204  11.804 -1.4801 -0.2916 -0.5106
 3755TIP3   OH232755   5.752   5.007   5.389 -0.3422  0.2107 -0.3589
 3755TIP3    H132756   5.753   4.918   5.424  0.4011  0.4068  0.1258
 3755TIP3    H232757   5.844   5.032   5.385 -0.4436  0.3945 -1.9658
 3756TIP3   OH232758   5.566   2.476  13.769  0.1245 -0.0042 -0.0009
 3756TIP3    H132759   5.480   2.502  13.735 -0.2099 -1.1104 -0.0750
 3756TIP3    H232760   5.617   2.556  13.771 -0.2559  0.3188 -1.9113
 3757TIP3   OH232761   4.208   1.677   6.991  0.2689  0.0179  0.0870
 3757TIP3    H132762   4.173   1.739   6.926 -0.6020 -1.3354 -0.7793
 3757TIP3    H232763   4.292   1.648   6.953 -0.6892 -1.5134 -0.9870
 3758TIP3   OH232764   6.657   3.492   5.110  0.8017  0.0714 -0.6212
 3758TIP3    H132765   6.751   3.485   5.093  0.8972  0.9703 -0.5061
 3758TIP3    H232766   6.618   3.421   5.060  1.3969  0.6552 -1.9452
 3759TIP3   OH232767   0.262   1.412  12.135  0.0529  0.2933  0.0171
 3759TIP3    H132768   0.339   1.357  12.152  0.1195  1.0548  2.5170
 3759TIP3    H232769   0.192   1.371  12.187  0.1360  2.5302  2.0516
 3760TIP3   OH232770   3.856   4.360  12.463  0.4128 -0.0892 -0.2691
 3760TIP3    H132771   3.812   4.356  12.549 -0.1646 -1.6804 -0.5999
 3760TIP3    H232772   3.949   4.350  12.483  0.1986 -1.6640  0.1492
 3761TIP3   OH232773   5.408   4.900  11.964 -0.4415  0.7946 -0.5115
 3761TIP3    H132774   5.436   4.909  11.873 -1.4652  1.8051 -0.7392
 3761TIP3    H232775   5.316   4.926  11.964 -0.5518  0.4715  0.7588
 3762TIP3   OH232776   0.940   2.204  13.663 -0.0300  0.1905  0.3568
 3762TIP3    H132777   0.973   2.265  13.597  0.7964  0.1960  0.7662
 3762TIP3    H232778   0.909   2.129  13.612  1.6380 -0.2951 -0.0063
 3763TIP3   OH232779   3.770   3.766   2.660 -0.2725 -0.2402  0.2761
 3763TIP3    H132780   3.679   3.770   2.687  0.0513  0.3054  1.3432
 3763TIP3    H232781   3.802   3.684   2.697 -0.0691  0.0632  0.7816
 3764TIP3   OH232782   4.891   6.773   1.325  0.0382  0.2283  0.7712
 3764TIP3    H132783   4.812   6.761   1.378 -1.6010  0.9690 -1.3867
 3764TIP3    H232784   4.900   6.868   1.316  1.0711  0.1462  0.7813
 3765TIP3   OH232785   2.974   6.494   2.102 -0.3811  0.2127  0.1990
 3765TIP3    H132786   2.884   6.520   2.122 -0.3168  0.3158  0.3609
 3765TIP3    H232787   3.008   6.564   2.047 -0.9741 -0.6966 -1.3952
 3766TIP3   OH232788   0.333   5.906  10.951 -0.2559 -0.1821  0.2885
 3766TIP3    H132789   0.338   5.860  11.035 -0.8602 -0.9643 -0.0886
 3766TIP3    H232790   0.423   5.914  10.922  0.2570  2.4748  2.2434
 3767TIP3   OH232791   6.371   3.462  15.619  0.7583 -0.2546  0.1827
 3767TIP3    H132792   6.406   3.480  15.706 -1.0986 -1.2057  1.1950
 3767TIP3    H232793   6.430   3.397  15.582  0.4685 -1.3580  1.5801
 3768TIP3   OH232794   4.568   1.445  13.949 -0.8327 -0.4931 -0.2251
 3768TIP3    H132795   4.543   1.529  13.987 -1.0999  0.1120 -1.6853
 3768TIP3    H232796   4.493   1.388  13.965 -1.6142  0.2198 -1.2256
 3769TIP3   OH232797   5.922   4.229   1.878 -0.2653  0.4116  0.3103
 3769TIP3    H132798   5.989   4.167   1.850 -1.1589 -0.0996 -0.7757
 3769TIP3    H232799   5.883   4.261   1.797 -0.4995  1.6489  0.8843
 3770TIP3   OH232800   0.636   1.372  11.190 -0.4910  0.0734  0.4104
 3770TIP3    H132801   0.570   1.305  11.171  0.2773 -0.6584  0.2719
 3770TIP3    H232802   0.655   1.412  11.105  1.1367 -1.5112 -0.0229
 3771TIP3   OH232803   3.809   4.017   3.829 -0.5042  0.3237 -0.2181
 3771TIP3    H132804   3.719   4.038   3.853 -0.5621  0.0049 -0.1505
 3771TIP3    H232805   3.822   3.927   3.860 -0.2437  0.2787 -0.4520
 3772TIP3   OH232806   6.599   3.182  11.380 -0.0482 -0.1328  0.2184
 3772TIP3    H132807   6.547   3.130  11.442  0.7096 -0.3346  0.6969
 3772TIP3    H232808   6.535   3.213  11.316 -0.7922 -0.2258  0.8952
 3773TIP3   OH232809   1.963   1.446   5.498  0.3129  0.0458  0.3285
 3773TIP3    H132810   2.013   1.459   5.418  0.2919  1.0105  0.4595
 3773TIP3    H232811   1.908   1.370   5.480  2.1639 -1.3707  0.3678
 3774TIP3   OH232812   0.686   4.052   0.067  0.1921  0.0472  0.3027
 3774TIP3    H132813   0.675   4.086   0.156 -2.6707  0.1628 -0.0230
 3774TIP3    H232814   0.682   4.129   0.011 -2.1008 -0.3226 -0.1385
 3775TIP3   OH232815   4.598   6.231  13.516 -0.1062 -0.1741 -0.6334
 3775TIP3    H132816   4.609   6.224  13.611  1.2496 -0.7298 -0.7955
 3775TIP3    H232817   4.553   6.151  13.491 -0.8779  0.1875 -0.4090
 3776TIP3   OH232818   5.534   5.094  13.492  0.0395 -0.2188 -0.0800
 3776TIP3    H132819   5.515   5.089  13.398 -1.0375 -0.5854  0.1440
 3776TIP3    H232820   5.543   5.188  13.509  1.6716 -0.2114 -0.8021
 3777TIP3   OH232821   4.002   2.499   2.096 -0.5693  0.4949 -0.0719
 3777TIP3    H132822   3.934   2.561   2.124 -1.6562 -1.0416  0.8632
 3777TIP3    H232823   3.972   2.415   2.129  1.5310 -0.3341 -0.1380
 3778TIP3   OH232824   2.581   5.322  15.667 -0.6124 -0.0086  0.5466
 3778TIP3    H132825   2.513   5.261  15.639 -1.0866  0.9267 -0.4080
 3778TIP3    H232826   2.543   5.370  15.740 -1.0479  0.6232 -0.0888
 3779TIP3   OH232827   2.960   5.345   5.683  0.0783 -0.0854  0.0165
 3779TIP3    H132828   2.957   5.358   5.589  0.5267  1.7508  0.2025
 3779TIP3    H232829   3.050   5.316   5.701 -0.2882 -1.4074 -0.1928
 3780TIP3   OH232830   5.749   0.530   4.256  0.6849  0.2704 -0.1806
 3780TIP3    H132831   5.693   0.578   4.194 -1.0748  0.1805  1.2668
 3780TIP3    H232832   5.711   0.442   4.260  0.0827  0.5761  1.7851
 3781TIP3   OH232833   0.904   3.230   0.967  0.0357  0.4503  0.0934
 3781TIP3    H132834   0.891   3.209   1.060 -0.4597 -0.4684 -0.1725
 3781TIP3    H232835   0.829   3.283   0.943 -0.0166  0.3885  0.1221
 3782TIP3   OH232836   3.976   0.245  12.492 -0.3634  0.8094 -0.4400
 3782TIP3    H132837   3.958   0.197  12.573  0.6831  0.6631 -0.2874
 3782TIP3    H232838   3.890   0.275  12.463 -0.8391  0.2290  0.3280
 3783TIP3   OH232839   0.598   0.377  14.398 -0.7288 -0.2559  0.1936
 3783TIP3    H132840   0.506   0.368  14.374 -0.9853  1.2767  0.5095
 3783TIP3    H232841   0.601   0.453  14.457  0.5516 -1.0689  1.2529
 3784TIP3   OH232842   1.142   0.331   1.764  0.3102 -0.3775  0.4945
 3784TIP3    H132843   1.104   0.243   1.766  0.7553 -0.6373  3.6285
 3784TIP3    H232844   1.067   0.390   1.774  0.1910 -0.5318  0.5124
 3785TIP3   OH232845   5.279   3.382  12.557  0.6131 -0.1328  0.5389
 3785TIP3    H132846   5.186   3.368  12.539  0.5058  1.6283 -0.4190
 3785TIP3    H232847   5.323   3.311  12.510 -0.1377  0.1388 -0.6147
 3786TIP3   OH232848   3.385   0.065   1.925 -0.8784  0.4549  0.0348
 3786TIP3    H132849   3.475   0.039   1.945 -0.8373  2.1474  2.3805
 3786TIP3    H232850   3.362   0.013   1.848  2.7929  1.4293 -1.9447
 3787TIP3   OH232851   1.753   3.216  13.865  0.3330  0.0512 -0.3193
 3787TIP3    H132852   1.819   3.147  13.858  0.4372  0.2248 -1.0671
 3787TIP3    H232853   1.746   3.253  13.777  0.0121  0.7530 -0.0098
 3788TIP3   OH232854   3.185   5.924  15.716  0.1847  0.2148  0.6361
 3788TIP3    H132855   3.232   5.872  15.781 -0.9773 -0.0639  1.2854
 3788TIP3    H232856   3.121   5.863  15.678  1.0886  0.2710 -1.0607
 3789TIP3   OH232857   5.053   1.155  16.019  0.6783  0.4831  0.2897
 3789TIP3    H132858   5.047   1.060  16.014  0.0990  0.5282  0.0307
 3789TIP3    H232859   5.094   1.172  16.104  1.6612 -0.0182 -0.0665
 3790TIP3   OH232860   2.640   6.831  11.932  0.0773  0.0872 -0.5483
 3790TIP3    H132861   2.667   6.795  11.847 -0.9384 -0.5143 -0.6348
 3790TIP3    H232862   2.663   6.764  11.996 -0.0203  0.1343 -0.4630
 3791TIP3   OH232863   4.036   6.446  14.971  0.0514 -0.6859  0.1391
 3791TIP3    H132864   3.998   6.521  15.016 -0.9949 -1.3010  0.2979
 3791TIP3    H232865   4.117   6.428  15.019  0.3178  0.3223  0.0994
 3792TIP3   OH232866   6.110   1.021   1.014 -0.2681  0.5682 -0.0470
 3792TIP3    H132867   6.061   0.994   0.936  0.1342  0.2995 -0.2097
 3792TIP3    H232868   6.043   1.052   1.074 -0.7908 -0.9907  0.2378
 3793TIP3   OH232869   4.659   4.661  13.687  0.5218 -0.5464  0.2253
 3793TIP3    H132870   4.706   4.729  13.639 -0.6422 -0.3060 -0.5983
 3793TIP3    H232871   4.599   4.623  13.622 -0.0812 -1.1655  1.1300
 3794TIP3   OH232872   3.052   0.005  14.744  0.0788 -0.1000  0.0741
 3794TIP3    H132873   3.088   0.013  14.832 -2.3486 -0.4057  1.1873
 3794TIP3    H232874   2.983   0.072  14.740 -0.4852 -0.7161 -1.2347
 3795TIP3   OH232875   2.227   4.436  10.327 -0.1874  0.1377 -0.0745
 3795TIP3    H132876   2.247   4.361  10.384 -3.0388  0.7670  1.9957
 3795TIP3    H232877   2.300   4.440  10.266  2.3403 -1.5658  2.5744
 3796TIP3   OH232878   5.016   2.711  13.579  0.2622  0.1585 -0.0357
 3796TIP3    H132879   5.047   2.620  13.575 -1.2525 -0.4808  1.5046
 3796TIP3    H232880   5.087   2.762  13.541  1.6734 -1.5421  0.1742
 3797TIP3   OH232881   3.343   2.574   2.193 -0.3720  0.7728  0.3461
 3797TIP3    H132882   3.320   2.514   2.122 -1.0520  1.1913  0.2004
 3797TIP3    H232883   3.260   2.616   2.217  0.4627  3.8365 -1.5712
 3798TIP3   OH232884   6.137   1.301  15.902 -0.1882 -0.1631  0.4346
 3798TIP3    H132885   6.094   1.299  15.816 -0.5316  1.3140  0.5479
 3798TIP3    H232886   6.221   1.342  15.886 -0.0743 -0.2774  0.7319
 3799TIP3   OH232887   4.156   3.355  10.835  0.6373 -0.4868  0.4017
 3799TIP3    H132888   4.100   3.401  10.897  0.7705  1.0470 -0.5709
 3799TIP3    H232889   4.223   3.418  10.811  0.5400 -0.9983 -1.3666
 3800TIP3   OH232890   0.967   3.899   1.024 -0.7515  0.4777  0.0142
 3800TIP3    H132891   0.981   3.816   0.978 -0.0726  0.3783  0.3830
 3800TIP3    H232892   0.951   3.874   1.115 -2.1391  0.6706 -0.1606
 3801TIP3   OH232893   0.798   3.204  16.249 -0.1782  0.0159  0.6360
 3801TIP3    H132894   0.756   3.256  16.318 -2.7481  1.2688 -1.6487
 3801TIP3    H232895   0.764   3.115  16.262  0.1995  0.0081  1.5936
 3802TIP3   OH232896   3.482   4.114  13.977 -0.0294 -0.3582 -0.3357
 3802TIP3    H132897   3.443   4.188  14.024 -2.1233 -1.0522 -0.8421
 3802TIP3    H232898   3.465   4.038  14.032  1.2578 -0.6224 -0.2684
 3803TIP3   OH232899   0.332   1.908  14.738  0.3471 -0.2709  0.0554
 3803TIP3    H132900   0.387   1.909  14.816  0.0418  1.8861  0.3233
 3803TIP3    H232901   0.365   1.982  14.686 -1.1758 -0.0080 -0.5806
 3804TIP3   OH232902   4.085   1.374  11.399 -0.1441  0.1647  0.1431
 3804TIP3    H132903   4.171   1.360  11.360  0.2433 -1.2889  1.4041
 3804TIP3    H232904   4.042   1.436  11.341  1.5217  0.4530 -0.8557
 3805TIP3   OH232905   3.713   4.081   2.444  0.3671 -0.1324  0.5344
 3805TIP3    H132906   3.807   4.067   2.435  0.0989 -2.7669  0.9953
 3805TIP3    H232907   3.677   4.056   2.359  0.0196  0.1758  0.5892
 3806TIP3   OH232908   4.745   0.874   4.668  0.4537  0.9083  0.0975
 3806TIP3    H132909   4.671   0.932   4.649 -1.2726 -1.4623 -0.9933
 3806TIP3    H232910   4.779   0.850   4.581 -0.3277 -1.3401  0.3289
 3807TIP3   OH232911   5.752   4.404  14.734 -0.3522  0.2504 -0.2661
 3807TIP3    H132912   5.838   4.363  14.740 -0.5575 -0.1279  0.1532
 3807TIP3    H232913   5.769   4.498  14.735  0.1224  0.1860 -1.1913
 3808TIP3   OH232914   4.944   6.557  16.384 -0.3669  0.5287 -0.3081
 3808TIP3    H132915   4.911   6.510  16.460 -5.7619  1.3060 -1.7428
 3808TIP3    H232916   4.927   6.649  16.403  1.3599  1.0856 -1.2133
 3809TIP3   OH232917   3.363   4.774  15.609  0.2492 -0.1768  0.4344
 3809TIP3    H132918   3.286   4.783  15.553 -0.1748 -0.3321  0.9795
 3809TIP3    H232919   3.431   4.825  15.565  0.0994 -0.7712 -0.5198
 3810TIP3   OH232920   3.933   0.304   0.366  0.3352 -0.1182  0.3680
 3810TIP3    H132921   3.844   0.309   0.332  0.8063 -0.2403 -0.9417
 3810TIP3    H232922   3.978   0.242   0.308  1.7092  1.1935 -0.0373
 3811TIP3   OH232923   0.230   5.011   4.406 -0.7331  0.2247  0.1045
 3811TIP3    H132924   0.295   5.030   4.339 -1.2044  2.2875  0.1828
 3811TIP3    H232925   0.261   5.058   4.484 -2.9394  2.4479 -0.2361
 3812TIP3   OH232926   0.228   3.638   3.255  0.1086 -0.4416 -0.4241
 3812TIP3    H132927   0.296   3.685   3.205 -0.9845 -1.3782 -2.9634
 3812TIP3    H232928   0.278   3.582   3.315  1.6187 -0.8790 -1.9903
 3813TIP3   OH232929   0.011   2.060   4.190 -0.2825 -0.2615  0.1034
 3813TIP3    H132930   0.086   2.091   4.140  0.3294  0.5468  1.4685
 3813TIP3    H232931  -0.054   2.130   4.182 -0.4773 -0.4755 -0.1909
 3814TIP3   OH232932   4.010   4.458   2.072  0.0927  0.1088 -0.2728
 3814TIP3    H132933   3.928   4.435   2.116  0.5439  0.5395  0.8610
 3814TIP3    H232934   3.999   4.550   2.048  0.7012  0.5676  1.0733
 3815TIP3   OH232935   6.584   1.395  16.503 -0.0583  0.4687 -0.3412
 3815TIP3    H132936   6.577   1.329  16.434 -0.9073  0.9627 -0.7458
 3815TIP3    H232937   6.536   1.358  16.577 -0.1871  0.4516 -0.4321
 3816TIP3   OH232938   3.726   4.754   3.455 -0.5925  0.3257 -0.4245
 3816TIP3    H132939   3.821   4.767   3.453 -0.3496 -0.7588  1.6828
 3816TIP3    H232940   3.714   4.663   3.426 -1.1708  0.9474 -2.2766
 3817TIP3   OH232941   1.482   3.477  14.489 -0.0225 -0.0243 -0.2377
 3817TIP3    H132942   1.454   3.531  14.416  0.4031 -0.6598 -0.8860
 3817TIP3    H232943   1.515   3.396  14.448  0.3898 -0.3124  0.6365
 3818TIP3   OH232944   4.021   5.447  16.825 -0.0283  0.4691 -0.5889
 3818TIP3    H132945   4.061   5.361  16.807 -0.4039 -0.2658  1.7504
 3818TIP3    H232946   3.927   5.431  16.820 -0.0985  0.7389 -0.1517
 3819TIP3   OH232947   3.946   5.543   3.374 -0.1662 -0.1850 -0.6967
 3819TIP3    H132948   3.968   5.636   3.362 -0.0784 -0.1833 -0.5321
 3819TIP3    H232949   3.966   5.503   3.290 -0.9919  0.0920 -1.0364
 3820TIP3   OH232950   1.956   2.447   4.413 -0.5673 -0.1504  0.1735
 3820TIP3    H132951   1.897   2.419   4.344 -1.8729  2.6603  0.0017
 3820TIP3    H232952   1.900   2.462   4.489  0.0171  1.6362  0.2985
 3821TIP3   OH232953   3.511   0.525  12.121 -0.0895  0.5646 -0.2542
 3821TIP3    H132954   3.459   0.562  12.050  2.0505  2.5555 -0.9370
 3821TIP3    H232955   3.448   0.507  12.191 -1.5440  4.5451 -0.3118
 3822TIP3   OH232956   6.586   3.086  16.809  0.3640  0.4816  0.2027
 3822TIP3    H132957   6.597   3.038  16.891 -0.7879  2.1641  1.4214
 3822TIP3    H232958   6.502   3.130  16.818 -0.1300  0.1331 -2.2288
 3823TIP3   OH232959   0.416   6.566   2.026  0.4664 -0.0157 -0.0538
 3823TIP3    H132960   0.355   6.493   2.017 -0.5852  0.7260  0.7687
 3823TIP3    H232961   0.477   6.538   2.095  0.5772 -0.4484 -0.3277
 3824TIP3   OH232962   0.489   6.613   1.544 -0.3584  0.0587  0.6410
 3824TIP3    H132963   0.408   6.661   1.524  0.0103 -0.4124 -2.3453
 3824TIP3    H232964   0.459   6.537   1.593 -1.8042 -0.2248 -0.5924
 3825TIP3   OH232965   1.918   1.696  15.732 -0.4315  0.0063 -0.2750
 3825TIP3    H132966   1.973   1.765  15.695 -0.1152  0.3164  0.7487
 3825TIP3    H232967   1.909   1.632  15.661  1.0162  0.0799 -0.5558
 3826TIP3   OH232968   1.055   2.224   5.179  0.0591 -0.2823  0.3446
 3826TIP3    H132969   1.019   2.312   5.175 -0.3039 -0.4649 -0.6517
 3826TIP3    H232970   1.013   2.184   5.255 -1.8940 -0.5009 -0.7881
 3827TIP3   OH232971   0.064   1.640  12.595  0.0166 -0.1367  0.0636
 3827TIP3    H132972   0.151   1.633  12.634  0.6800  0.6487 -1.2128
 3827TIP3    H232973   0.041   1.732  12.602 -0.6605 -0.3147  0.2671
 3828TIP3   OH232974   5.751   4.441   2.007  0.0721  0.1971 -0.6302
 3828TIP3    H132975   5.799   4.362   2.029 -0.5351  0.3167  1.2853
 3828TIP3    H232976   5.815   4.512   2.016  0.1886  0.0940 -0.6503
 3829TIP3   OH232977   3.427   2.364   1.614  0.3781 -0.1038  0.4068
 3829TIP3    H132978   3.438   2.279   1.572 -1.3704 -0.9745  1.5968
 3829TIP3    H232979   3.509   2.410   1.596  0.8923 -1.5478 -1.3203
 3830TIP3   OH232980   1.991   3.162   2.704  0.1002 -0.2306 -0.2782
 3830TIP3    H132981   2.058   3.121   2.759  0.1972 -0.2188 -0.3868
 3830TIP3    H232982   2.026   3.250   2.686  0.4201 -0.4973 -0.9811
 3831TIP3   OH232983   0.402   4.100  10.546 -0.5702  0.3439  0.1467
 3831TIP3    H132984   0.399   4.012  10.585  0.6832  0.0156 -0.4536
 3831TIP3    H232985   0.495   4.120  10.538 -0.7843  0.7923 -1.7891
 3832TIP3   OH232986   3.312   2.115  12.142 -0.1277  0.3654  0.1478
 3832TIP3    H132987   3.275   2.155  12.221 -0.0547  0.7880 -0.0310
 3832TIP3    H232988   3.242   2.119  12.077 -0.0518  0.3903  0.0670
 3833TIP3   OH232989   5.427   3.130  12.558  0.3313  0.1916 -0.2318
 3833TIP3    H132990   5.522   3.122  12.568  0.1938  0.6563  1.8106
 3833TIP3    H232991   5.403   3.057  12.501  1.7034 -0.9325  0.5737
 3834TIP3   OH232992   6.617   4.299  14.324 -0.0495  0.0002  0.3565
 3834TIP3    H132993   6.629   4.262  14.237  2.1276  0.0410  0.5806
 3834TIP3    H232994   6.705   4.306  14.360 -0.6606  2.1770  1.6700
 3835TIP3   OH232995   2.784   0.543  16.557  0.2454 -0.3810 -0.5160
 3835TIP3    H132996   2.854   0.489  16.520  1.6395 -0.8921  2.4772
 3835TIP3    H232997   2.704   0.513  16.514  1.4825 -1.9768 -1.8380
 3836TIP3   OH232998   4.124   3.205   1.664 -0.9749  0.0447  0.0970
 3836TIP3    H132999   4.082   3.147   1.728 -1.0548  0.5217  0.4831
 3836TIP3    H233000   4.217   3.184   1.671 -0.6762  1.6212  2.0145
 3837TIP3   OH233001   6.550   5.145   0.033 -0.6084  0.2201 -0.0633
 3837TIP3    H133002   6.569   5.105  -0.051 -1.5347 -1.9035  0.6763
 3837TIP3    H233003   6.627   5.199   0.052  0.9381 -1.5887 -0.9251
 3838TIP3   OH233004   4.587   6.558   5.664 -0.0348  0.4933 -0.4895
 3838TIP3    H133005   4.575   6.595   5.752  0.6130 -0.3940 -0.0176
 3838TIP3    H233006   4.619   6.470   5.679 -1.3259 -0.2150 -1.5989
 3839TIP3   OH233007   2.022   0.648   5.671 -0.0229  0.2166 -0.1705
 3839TIP3    H133008   2.069   0.657   5.754  1.0056 -0.9593 -0.5942
 3839TIP3    H233009   2.011   0.737   5.639  1.0305  0.5780  0.4508
 3840TIP3   OH233010   6.086   1.950  15.969  0.1142 -0.1333  0.4545
 3840TIP3    H133011   6.181   1.950  15.984  0.1493 -3.0750  0.8188
 3840TIP3    H233012   6.050   1.905  16.045 -1.4834  0.0919 -0.1360
 3841TIP3   OH233013   4.709   4.218  13.839 -0.5517 -0.1140  0.3822
 3841TIP3    H133014   4.673   4.247  13.923 -2.1763  1.1460 -0.6893
 3841TIP3    H233015   4.643   4.244  13.775  1.3578  0.3624 -1.4796
 3842TIP3   OH233016   4.825   3.093  12.828  0.1031  0.4098  0.0625
 3842TIP3    H133017   4.838   3.010  12.782  1.2540  1.0700 -0.8235
 3842TIP3    H233018   4.773   3.069  12.905  0.2221 -1.0960 -0.2986
 3843TIP3   OH233019   6.516   0.206   0.824 -0.1336  0.0355  0.5782
 3843TIP3    H133020   6.484   0.160   0.902 -1.3502  1.1415  0.7728
 3843TIP3    H233021   6.472   0.292   0.827 -0.8733 -0.1872 -1.7576
 3844TIP3   OH233022   5.630   2.198  13.032 -0.7542  0.3040  0.1258
 3844TIP3    H133023   5.669   2.278  13.067 -1.9477  0.4426  1.2284
 3844TIP3    H233024   5.557   2.179  13.091 -0.5182 -1.6039 -0.1255
 3845TIP3   OH233025   4.602   6.844   4.633 -0.5534  0.1401 -0.0848
 3845TIP3    H133026   4.651   6.926   4.635 -0.1003 -0.0812 -1.2377
 3845TIP3    H233027   4.640   6.795   4.560 -0.9041 -1.0457  0.5002
 3846TIP3   OH233028   1.494   6.795   3.663 -0.5235  0.1953  0.5536
 3846TIP3    H133029   1.445   6.867   3.702  1.1070  1.1490  0.9388
 3846TIP3    H233030   1.427   6.736   3.628 -2.0538 -0.0915  3.6155
 3847TIP3   OH233031   2.141   5.223  14.222  0.2284 -0.2141 -0.1249
 3847TIP3    H133032   2.070   5.176  14.266  1.3945 -0.7363  1.2820
 3847TIP3    H233033   2.096   5.291  14.171 -1.3412 -1.2725 -0.2447
 3848TIP3   OH233034   6.139   4.989   1.230 -0.6899 -0.2823  0.0169
 3848TIP3    H133035   6.115   5.042   1.306 -1.0007 -0.1735 -0.1588
 3848TIP3    H233036   6.228   5.018   1.208 -0.9887  0.4147 -0.2964
 3849TIP3   OH233037   3.292   2.823  14.304 -0.4386  0.5940 -0.5204
 3849TIP3    H133038   3.347   2.901  14.309 -1.2119  1.0755  0.8683
 3849TIP3    H233039   3.270   2.816  14.211  0.2172  1.6030 -0.7761
 3850TIP3   OH233040   0.434   6.631   2.423 -0.1446  0.4953  0.8253
 3850TIP3    H133041   0.486   6.568   2.372 -0.0829  0.1821  1.2683
 3850TIP3    H233042   0.402   6.693   2.358 -0.2520 -0.0251  0.3692
 3851TIP3   OH233043   1.525   5.922  12.399  0.1840  0.2240  0.8463
 3851TIP3    H133044   1.460   5.868  12.444  0.2201 -1.7928 -1.3402
 3851TIP3    H233045   1.481   5.950  12.319  1.8802 -1.0382 -0.6039
 3852TIP3   OH233046   6.081   1.460   0.449  0.5793 -0.1518  0.0189
 3852TIP3    H133047   6.116   1.401   0.517  0.9112  0.3966  0.3316
 3852TIP3    H233048   6.132   1.439   0.371 -0.3373 -1.3366 -0.2833
 3853TIP3   OH233049   2.717   6.443   3.356  0.0688 -0.0266  0.2778
 3853TIP3    H133050   2.767   6.480   3.283  1.0348  1.5525  1.6726
 3853TIP3    H233051   2.782   6.399   3.410 -0.3080  0.4830  1.1722
 3854TIP3   OH233052   1.429   5.199  15.430  0.3861 -0.1213  0.3630
 3854TIP3    H133053   1.367   5.134  15.397  0.1496 -0.2488  1.0402
 3854TIP3    H233054   1.404   5.280  15.386  0.2220 -0.3321  0.0614
 3855TIP3   OH233055   4.072   1.835  12.116 -0.0740 -0.0950  0.1829
 3855TIP3    H133056   4.073   1.743  12.088  0.6725  0.0792 -0.4055
 3855TIP3    H233057   3.980   1.861  12.111 -0.1729 -0.5504 -0.5429
 3856TIP3   OH233058   0.458   4.596  16.100  0.4600  0.4239  0.0396
 3856TIP3    H133059   0.384   4.563  16.151  0.8643 -0.1963  0.2374
 3856TIP3    H233060   0.425   4.676  16.058  0.2639  1.2845  1.7260
 3857TIP3   OH233061   2.079   5.657  16.911  0.0161 -0.1397  0.2253
 3857TIP3    H133062   2.165   5.700  16.918 -0.3552  0.5855  0.4173
 3857TIP3    H233063   2.087   5.599  16.836  1.4823 -1.9525  1.6582
 3858TIP3   OH233064   0.641   0.208  13.020 -0.0764  0.2525  0.2023
 3858TIP3    H133065   0.575   0.201  12.951  0.8404 -1.0587 -0.6067
 3858TIP3    H233066   0.619   0.138  13.081  1.1334 -0.9340 -0.6450
 3859TIP3   OH233067   2.851   6.514  16.177  0.3810 -0.8274 -0.1734
 3859TIP3    H133068   2.855   6.505  16.272  0.4026  0.5043 -0.0299
 3859TIP3    H233069   2.814   6.602  16.163  2.3159 -0.1578 -1.3871
 3860TIP3   OH233070   4.448   5.836   5.191  0.5009 -0.2484 -0.2699
 3860TIP3    H133071   4.380   5.823   5.257  0.7624  1.2270  0.3149
 3860TIP3    H233072   4.435   5.764   5.130  0.5699 -1.9837  1.6412
 3861TIP3   OH233073   0.495   6.484  13.027  0.1194  0.1845  0.6383
 3861TIP3    H133074   0.567   6.469  13.087 -0.1162  0.4872  0.9989
 3861TIP3    H233075   0.519   6.564  12.979  0.4032 -0.1708  0.1811
 3862TIP3   OH233076   3.312   1.902  15.930  0.6215  0.1316  0.2792
 3862TIP3    H133077   3.353   1.816  15.916 -0.2266 -0.3105  0.4195
 3862TIP3    H233078   3.358   1.961  15.871  3.1562  0.2185  2.1791
 3863TIP3   OH233079   4.919   4.906  11.102 -0.0995 -0.5092  0.4523
 3863TIP3    H133080   4.906   4.812  11.099  0.7924 -0.6223 -2.2033
 3863TIP3    H233081   4.885   4.938  11.018  0.9953  1.3311  0.6468
 3864TIP3   OH233082   0.099   1.046  14.734 -0.1722 -0.1872  0.4396
 3864TIP3    H133083   0.148   1.045  14.816 -0.1994  0.4509  0.4708
 3864TIP3    H233084   0.017   1.090  14.757  0.0100  0.4010 -0.0361
 3865TIP3   OH233085   2.758   4.879   1.165  0.4977 -0.5185  0.1443
 3865TIP3    H133086   2.769   4.950   1.229  1.6820  0.0755 -0.6821
 3865TIP3    H233087   2.729   4.924   1.085 -0.8039 -1.2326  0.1856
 3866TIP3   OH233088   5.269   4.645  16.359  0.4039  0.9635 -0.1303
 3866TIP3    H133089   5.325   4.708  16.405 -0.1421  0.8041  0.7812
 3866TIP3    H233090   5.181   4.665  16.389 -0.0212  1.0497 -1.3645
 3867TIP3   OH233091   5.487   3.059   0.573 -0.0978 -0.1756  0.3753
 3867TIP3    H133092   5.532   3.127   0.622 -1.6273 -0.1984  1.9172
 3867TIP3    H233093   5.420   3.105   0.523 -0.7261 -0.4666  0.9332
 3868TIP3   OH233094   0.551   1.849  13.876 -0.1580 -0.3732  0.0425
 3868TIP3    H133095   0.537   1.789  13.803 -1.7324 -0.3355  0.2823
 3868TIP3    H233096   0.489   1.920  13.861  3.0326  2.3701 -1.3454
 3869TIP3   OH233097   5.034   5.610  15.397 -0.2517 -0.4605 -0.3357
 3869TIP3    H133098   5.058   5.661  15.320  0.1027 -0.5916 -0.3133
 3869TIP3    H233099   4.996   5.529  15.362  0.0304 -0.5767 -0.3719
 3870TIP3   OH233100   1.038   3.116   6.500  0.6093  0.0657  0.2851
 3870TIP3    H133101   1.032   3.195   6.554  0.7848  1.2807 -1.4030
 3870TIP3    H233102   1.071   3.049   6.560  0.8296  1.3489  1.6713
 3871TIP3   OH233103   2.082   2.590   4.632  0.2920 -0.5675 -0.3981
 3871TIP3    H133104   1.991   2.566   4.652  0.4469 -0.4419  0.5283
 3871TIP3    H233105   2.083   2.606   4.538 -0.2029 -2.4699 -0.7614
 3872TIP3   OH233106   0.005   1.851   2.431  0.3730 -0.0168 -0.5436
 3872TIP3    H133107  -0.091   1.852   2.424  0.3584  0.8120 -0.3303
 3872TIP3    H233108   0.023   1.879   2.520  0.7856 -1.8309 -0.0183
 3873TIP3   OH233109   0.915   3.800   1.262  0.3633 -0.0032 -0.6488
 3873TIP3    H133110   0.839   3.831   1.311  1.7369  1.7008  0.5012
 3873TIP3    H233111   0.959   3.741   1.323  0.8983  0.3971 -0.6451
 3874TIP3   OH233112   2.408   2.215  11.451  0.0221  0.0140 -0.2662
 3874TIP3    H133113   2.317   2.199  11.426 -0.0427  0.6223 -0.4448
 3874TIP3    H233114   2.450   2.241  11.369  0.3343 -0.1626 -0.1623
 3875TIP3   OH233115   3.190   4.367  12.882 -0.3827  0.1801 -0.1692
 3875TIP3    H133116   3.205   4.454  12.843 -1.8075  0.4277 -0.1888
 3875TIP3    H233117   3.248   4.309  12.832 -0.2677  0.9286 -0.9347
 3876TIP3   OH233118   6.313   4.592  12.087  0.5954 -0.0784  0.4438
 3876TIP3    H133119   6.402   4.605  12.121  0.8088 -0.0839 -0.0919
 3876TIP3    H233120   6.304   4.497  12.081  0.6808 -0.0703  0.1788
 3877TIP3   OH233121   1.617   1.039   5.295 -0.4979 -0.3237  0.3562
 3877TIP3    H133122   1.564   1.118   5.287 -0.0509 -0.1526 -1.1205
 3877TIP3    H233123   1.556   0.967   5.280 -0.3501 -0.1250 -1.4512
 3878TIP3   OH233124   0.048   6.830  11.331 -0.1422 -0.4829  0.7109
 3878TIP3    H133125   0.108   6.894  11.371 -0.1840 -0.5803  0.9322
 3878TIP3    H233126   0.098   6.793  11.259  0.4146 -1.2308  1.4572
 3879TIP3   OH233127   0.361   1.394  16.063 -0.0511 -0.4872  0.1334
 3879TIP3    H133128   0.290   1.431  16.115  0.4852  0.3896  0.2589
 3879TIP3    H233129   0.430   1.460  16.065  0.6484 -1.1828 -0.2588
 3880TIP3   OH233130   1.498   0.054  13.292  0.4177  0.5026 -0.3609
 3880TIP3    H133131   1.557  -0.021  13.280 -1.1805 -0.4837 -2.8632
 3880TIP3    H233132   1.468   0.075  13.204 -2.1173  1.6578  0.6955
 3881TIP3   OH233133   2.682   5.840   4.614  0.0751 -0.0260 -0.1341
 3881TIP3    H133134   2.598   5.878   4.589  0.0741  0.5985  0.7813
 3881TIP3    H233135   2.713   5.797   4.534  0.3375  2.3637 -1.4008
 3882TIP3   OH233136   0.442   6.071  11.215  0.1910  0.5314  0.0184
 3882TIP3    H133137   0.388   6.084  11.137  1.8831  2.6086 -0.9414
 3882TIP3    H233138   0.437   6.154  11.262  2.0604  0.6372  0.1352
 3883TIP3   OH233139   4.706   4.152   1.434  0.0604 -0.0000 -0.1399
 3883TIP3    H133140   4.735   4.074   1.388  0.6463  0.0581  0.1256
 3883TIP3    H233141   4.775   4.216   1.418  0.1015  0.1274  0.5358
 3884TIP3   OH233142   5.654   6.477  10.646  0.0392 -0.2315 -0.4295
 3884TIP3    H133143   5.646   6.541  10.574 -1.1950  0.3955  0.2350
 3884TIP3    H233144   5.748   6.473  10.664  0.1551  1.3631 -0.5425
 3885TIP3   OH233145   0.012   2.653   0.333 -0.4173 -0.1555 -0.5351
 3885TIP3    H133146  -0.043   2.679   0.259  0.1114  0.0028 -0.8747
 3885TIP3    H233147   0.096   2.629   0.293 -0.7824 -2.1598 -0.2349
 3886TIP3   OH233148   0.758   5.121   0.578 -0.4261  0.1830 -0.0169
 3886TIP3    H133149   0.667   5.125   0.549 -0.7377 -2.9482  0.1888
 3886TIP3    H233150   0.805   5.090   0.500  0.2706  0.6334  0.2237
 3887TIP3   OH233151   2.405   5.462  13.719 -0.4247 -0.8851 -0.2794
 3887TIP3    H133152   2.385   5.408  13.643 -0.4004 -0.4544 -0.5994
 3887TIP3    H233153   2.439   5.401  13.785  0.8759 -1.0751 -1.0967
 3888TIP3   OH233154   5.002   2.075   5.530  0.1333  0.3902 -0.6329
 3888TIP3    H133155   4.964   2.023   5.459 -1.4517 -1.1869  1.2692
 3888TIP3    H233156   5.094   2.049   5.532 -0.6017 -2.5208  0.2645
 3889TIP3   OH233157   5.925   2.165   2.738  0.5007  0.5929  0.3113
 3889TIP3    H133158   5.870   2.234   2.775 -0.2325  0.9113 -1.2889
 3889TIP3    H233159   5.873   2.086   2.747  1.2645  0.2327  1.9744
 3890TIP3   OH233160   6.309   5.237   4.126  0.2434 -0.1671  0.1025
 3890TIP3    H133161   6.368   5.178   4.079 -0.9576 -1.8507  0.6049
 3890TIP3    H233162   6.311   5.206   4.216  2.9759  3.3780  1.5062
 3891TIP3   OH233163   2.560   4.881  16.305 -0.0213 -0.4695 -0.1304
 3891TIP3    H133164   2.651   4.885  16.275  0.0403 -0.2303  0.0813
 3891TIP3    H233165   2.528   4.971  16.294 -1.0914 -1.0781 -2.8222
 3892TIP3   OH233166   2.747   3.606   1.042  0.0276  0.0479 -0.0936
 3892TIP3    H133167   2.785   3.689   1.014 -2.8461  1.2407 -0.7151
 3892TIP3    H233168   2.653   3.616   1.030 -0.6628 -2.4479  2.1336
 3893TIP3   OH233169   5.537   1.822   3.972 -0.3172  0.0944  0.1833
 3893TIP3    H133170   5.512   1.794   4.060 -1.5537 -1.4997 -0.6261
 3893TIP3    H233171   5.475   1.892   3.951 -0.8052 -0.3402  0.1442
 3894TIP3   OH233172   5.801   3.977   1.003 -0.6503 -0.2807  0.2444
 3894TIP3    H133173   5.766   3.918   0.936  2.6454  1.8046 -3.8181
 3894TIP3    H233174   5.777   4.065   0.972  1.2019  0.7977  1.6624
 3895TIP3   OH233175   5.664   3.648   5.625 -0.1682 -0.1070 -0.2927
 3895TIP3    H133176   5.586   3.593   5.618  0.7304 -1.2080 -3.4775
 3895TIP3    H233177   5.712   3.612   5.699 -0.1711 -2.9873 -1.5743
 3896TIP3   OH233178   2.057   0.452  11.488 -0.3014  0.0672  0.1318
 3896TIP3    H133179   2.059   0.435  11.394 -0.8504 -1.6274  0.3994
 3896TIP3    H233180   2.003   0.382  11.524  2.0535 -0.9363  2.0210
 3897TIP3   OH233181   2.471   5.979   4.423  0.4361 -0.4766  0.4899
 3897TIP3    H133182   2.419   5.904   4.453 -0.8996  0.2565  0.1209
 3897TIP3    H233183   2.476   5.968   4.328 -0.8053  0.4787  0.2785
 3898TIP3   OH233184   3.410   2.959  14.977  0.7277  1.0745  0.2108
 3898TIP3    H133185   3.479   2.961  15.044 -0.5666  1.8314  1.5800
 3898TIP3    H233186   3.344   2.900  15.012  1.3457 -0.9924 -1.8517
 3899TIP3   OH233187   2.354   6.736  13.590 -0.9027  0.3429 -0.1363
 3899TIP3    H133188   2.431   6.713  13.538 -2.6609  0.8887 -3.2885
 3899TIP3    H233189   2.373   6.822  13.625 -0.0363  0.4484 -0.8355
 3900TIP3   OH233190   4.187   2.680   4.898 -0.0788  0.0353 -0.0777
 3900TIP3    H133191   4.266   2.692   4.951 -0.6027 -1.4992  1.1174
 3900TIP3    H233192   4.136   2.760   4.913  0.0590 -0.1102  1.2874
 3901TIP3   OH233193   6.063   1.354  17.033  0.3977  1.2462 -0.1853
 3901TIP3    H133194   5.990   1.325  16.978 -0.8066  1.7804  1.0596
 3901TIP3    H233195   6.060   1.295  17.109  2.1720  0.3686 -0.7604
 3902TIP3   OH233196   2.721   2.485  10.426 -0.1980 -0.0485 -0.0407
 3902TIP3    H133197   2.628   2.468  10.440 -0.1397 -0.1769  0.1921
 3902TIP3    H233198   2.734   2.573  10.461 -0.2153 -0.0635  0.0041
 3903TIP3   OH233199   2.855   1.220   1.662  0.5075  0.1955  0.6098
 3903TIP3    H133200   2.862   1.203   1.568 -0.9747  1.6769  0.1796
 3903TIP3    H233201   2.928   1.279   1.681 -1.0357  2.6183 -0.4075
 3904TIP3   OH233202   4.920   0.197  15.903  0.1545 -0.3763  0.5931
 3904TIP3    H133203   4.934   0.109  15.937  0.6023 -0.5893 -0.1240
 3904TIP3    H233204   4.897   0.184  15.811 -0.7126  0.2039  0.7144
 3905TIP3   OH233205   2.750   2.152  12.109  0.1231  0.1245  0.0970
 3905TIP3    H133206   2.840   2.118  12.109 -0.8344 -2.7560 -0.8059
 3905TIP3    H233207   2.723   2.149  12.018  0.0273  4.0739 -0.1785
 3906TIP3   OH233208   3.591   5.098  12.313 -0.1923 -0.0117 -0.0886
 3906TIP3    H133209   3.594   5.187  12.277  0.3707 -0.3626 -0.9450
 3906TIP3    H233210   3.650   5.100  12.388 -0.1403  0.3288 -0.1373
 3907TIP3   OH233211   5.204   3.633  16.324 -0.0359  0.0871  0.5731
 3907TIP3    H133212   5.276   3.681  16.284  0.1519 -1.4044 -0.9763
 3907TIP3    H233213   5.220   3.541  16.301 -1.9112 -0.3918  0.9993
 3908TIP3   OH233214   4.506   5.927   5.617 -0.1870  0.1586 -0.0825
 3908TIP3    H133215   4.564   5.867   5.570  0.9263  1.6648 -0.7094
 3908TIP3    H233216   4.534   5.921   5.708 -0.2363 -0.4136 -0.0989
 3909TIP3   OH233217   3.125   1.402  14.341  0.3329  0.4304  0.0773
 3909TIP3    H133218   3.092   1.324  14.386 -0.1129 -1.6194 -3.3789
 3909TIP3    H233219   3.212   1.416  14.378  1.7799 -3.7480 -1.1545
 3910TIP3   OH233220   3.062   3.050   6.100  0.5934 -0.2685 -0.0148
 3910TIP3    H133221   3.001   2.993   6.054 -0.8838  0.9438  0.3834
 3910TIP3    H233222   3.106   2.992   6.162  0.7582 -1.3966 -1.1525
 3911TIP3   OH233223   2.377   3.529  14.318 -0.1889  0.5827 -0.4227
 3911TIP3    H133224   2.377   3.542  14.413 -1.3431  1.0393 -0.4650
 3911TIP3    H233225   2.285   3.539  14.293 -0.1363 -1.0549 -1.4006
 3912TIP3   OH233226   2.643   6.561   5.271 -0.7424  0.1059 -0.2727
 3912TIP3    H133227   2.630   6.656   5.268  1.4770  0.4962  0.4501
 3912TIP3    H233228   2.689   6.546   5.353  2.1141 -1.0912 -1.9378
 3913TIP3   OH233229   2.110   1.177  12.392  0.0947  0.0079  0.6580
 3913TIP3    H133230   2.100   1.090  12.353 -2.0051  0.7993 -0.7516
 3913TIP3    H233231   2.184   1.215  12.345 -0.2669 -0.2930 -0.1750
 3914TIP3   OH233232   2.841   4.144  16.704  0.5584 -0.3545  0.3283
 3914TIP3    H133233   2.885   4.119  16.786  1.4932  3.3883  1.1286
 3914TIP3    H233234   2.911   4.180  16.651 -0.6535  0.5478 -0.6873
 3915TIP3   OH233235   4.717   5.833   5.426  0.3160  0.1908  0.1848
 3915TIP3    H133236   4.783   5.896   5.399  0.0447  0.5172  0.2703
 3915TIP3    H233237   4.667   5.814   5.347  0.9935 -0.6561 -0.0582
 3916TIP3   OH233238   6.804   0.371   6.225 -0.2628  0.0120  0.1357
 3916TIP3    H133239   6.868   0.411   6.283  2.1209 -0.2016 -2.1510
 3916TIP3    H233240   6.779   0.440   6.164 -1.3067 -0.2388  0.2517
 3917TIP3   OH233241   5.632   2.624  15.154 -0.0905 -0.2257  0.7301
 3917TIP3    H133242   5.634   2.719  15.147 -1.6758 -0.2151  0.0808
 3917TIP3    H233243   5.595   2.594  15.071  1.3018 -1.4919  0.5116
 3918TIP3   OH233244   5.243   6.156  15.386 -0.3500  0.0984  0.0606
 3918TIP3    H133245   5.202   6.219  15.445 -0.7779  0.1245 -0.2624
 3918TIP3    H233246   5.195   6.075  15.401  1.9844 -1.0145  2.5872
 3919TIP3   OH233247   4.245   6.617   0.936 -0.6650 -0.1242 -0.0442
 3919TIP3    H133248   4.255   6.647   1.026  1.0816  2.2497 -0.9109
 3919TIP3    H233249   4.319   6.558   0.921  1.1614  2.1639 -0.7895
 3920TIP3   OH233250   5.937   5.865   5.293  0.6475  0.1795  0.0859
 3920TIP3    H133251   5.903   5.863   5.382  0.4205 -0.2745 -0.0141
 3920TIP3    H233252   5.911   5.782   5.254  2.3225 -0.4431  0.1818
 3921TIP3   OH233253   1.371   3.434  11.211  0.2832  0.1087 -0.4265
 3921TIP3    H133254   1.379   3.529  11.206  0.0592  0.0817 -1.6787
 3921TIP3    H233255   1.306   3.412  11.144  0.2367 -0.9102 -0.0547
 3922TIP3   OH233256   4.133   6.668  12.114  0.3048 -0.1099 -0.3643
 3922TIP3    H133257   4.202   6.625  12.064 -0.3181 -1.2097 -0.2935
 3922TIP3    H233258   4.055   6.662  12.058 -0.0894 -0.2211  0.1878
 3923TIP3   OH233259   4.006   0.274  14.978  0.0237 -0.2527  0.4063
 3923TIP3    H133260   4.080   0.245  15.031 -0.5232 -1.1460  0.7141
 3923TIP3    H233261   4.046   0.304  14.896  0.6902 -1.3921  0.2814
 3924TIP3   OH233262   1.505   1.092   1.028  0.4562 -0.0768  0.3558
 3924TIP3    H133263   1.515   1.008   0.983  0.3685 -0.0737  0.3304
 3924TIP3    H233264   1.587   1.103   1.077  1.2626  0.6680 -1.0637
 3925TIP3   OH233265   2.051   6.641   4.907 -0.3056 -0.4338  0.0639
 3925TIP3    H133266   2.027   6.666   4.818 -1.4263 -0.6222  0.2916
 3925TIP3    H233267   1.994   6.566   4.926  0.8284 -1.2103  0.4793
 3926TIP3   OH233268   2.449   5.197   4.701  0.1947  0.1485 -0.4108
 3926TIP3    H133269   2.383   5.135   4.670 -0.4888  0.1709  0.9129
 3926TIP3    H233270   2.405   5.247   4.769  0.8371  1.9077 -1.2250
 3927TIP3   OH233271   2.737   4.817  12.313  0.8146 -0.4010 -0.3994
 3927TIP3    H133272   2.695   4.807  12.228  0.2985  0.7496 -0.2967
 3927TIP3    H233273   2.675   4.869  12.364  1.6468 -0.0686  0.2967
 3928TIP3   OH233274   1.006   6.761  13.940  0.7089 -0.0732 -0.3777
 3928TIP3    H133275   0.998   6.679  13.988 -0.2628 -0.8363 -1.7739
 3928TIP3    H233276   1.100   6.775  13.931  0.8859 -0.6160  0.5364
 3929TIP3   OH233277   1.789   5.780  16.301 -0.4956  0.2104 -0.0008
 3929TIP3    H133278   1.780   5.750  16.391 -0.8929 -2.3655 -0.8083
 3929TIP3    H233279   1.708   5.828  16.283  0.2889  2.2016  1.4424
 3930TIP3   OH233280   3.045   1.520  12.093 -0.3817 -0.7126 -0.3026
 3930TIP3    H133281   2.961   1.488  12.060 -1.0605 -1.6203  2.1089
 3930TIP3    H233282   3.111   1.466  12.049 -1.2004 -1.5812 -0.4695
 3931TIP3   OH233283   4.442   1.374   4.415  0.1408 -0.1986  0.0228
 3931TIP3    H133284   4.515   1.410   4.363 -0.1108 -0.0305 -0.2167
 3931TIP3    H233285   4.470   1.285   4.437 -0.0345 -0.5205 -0.9814
 3932TIP3   OH233286   6.451   5.215   5.583  0.0972  0.7825 -0.2013
 3932TIP3    H133287   6.497   5.277   5.639 -0.1149  0.4152  0.3909
 3932TIP3    H233288   6.366   5.255   5.567  0.3852  1.1730 -0.7790
 3933TIP3   OH233289   4.291   0.813  16.260 -0.0613 -0.0818  0.1320
 3933TIP3    H133290   4.347   0.889  16.276 -0.4510  0.3228 -0.3820
 3933TIP3    H233291   4.339   0.760  16.197 -1.5965  1.8897 -2.9540
 3934TIP3   OH233292   2.996   6.025  14.924  0.0884 -0.0934 -0.5170
 3934TIP3    H133293   2.922   6.071  14.885 -1.3845 -0.3233  1.7927
 3934TIP3    H233294   3.073   6.077  14.901 -1.0084  1.1526 -1.4721
 3935TIP3   OH233295   5.719   5.739   2.750 -1.3338 -0.0302 -0.7276
 3935TIP3    H133296   5.725   5.688   2.670  0.3633 -0.8441 -0.1465
 3935TIP3    H233297   5.804   5.784   2.756 -2.0980  1.4120 -0.2771
 3936TIP3   OH233298   0.331   5.411  14.996 -1.0295  0.3458  0.5531
 3936TIP3    H133299   0.328   5.465  15.075 -0.3316  1.3483 -0.0771
 3936TIP3    H233300   0.415   5.433  14.956 -0.9821 -0.8187 -0.0144
 3937TIP3   OH233301   2.186   1.250  11.758  0.1812 -0.2984  0.0306
 3937TIP3    H133302   2.106   1.206  11.786  0.2109 -0.8266 -0.6982
 3937TIP3    H233303   2.167   1.343  11.767 -0.3507 -0.4348  0.3131
 3938TIP3   OH233304   3.378   4.587  14.466  0.1605  0.7363  0.4733
 3938TIP3    H133305   3.332   4.519  14.418  1.3945  0.3351 -0.1927
 3938TIP3    H233306   3.399   4.547  14.551  0.2104  0.5617  0.3780
 3939TIP3   OH233307   4.399   2.123   0.762  0.4191 -0.8637  0.1170
 3939TIP3    H133308   4.408   2.174   0.681  0.5297 -0.5547  0.3193
 3939TIP3    H233309   4.329   2.061   0.744 -2.7746  2.0816  1.2271
 3940TIP3   OH233310   6.330   5.608   2.056  0.0297  0.4468 -0.1000
 3940TIP3    H133311   6.338   5.517   2.027  1.3646  0.9322 -1.3905
 3940TIP3    H233312   6.237   5.627   2.049 -0.4259 -1.0794  1.0994
 3941TIP3   OH233313   3.987   4.334   1.401  0.6931  0.5409 -0.2276
 3941TIP3    H133314   3.961   4.423   1.423  0.9833  0.2883  1.1984
 3941TIP3    H233315   4.077   4.326   1.433 -0.2228 -1.0836  2.2001
 3942TIP3   OH233316   4.564   2.491  16.182  0.8259 -0.3997  0.5031
 3942TIP3    H133317   4.608   2.414  16.217 -1.7094 -1.0794  2.4499
 3942TIP3    H233318   4.486   2.502  16.236 -0.8810  1.3535 -2.0599
 3943TIP3   OH233319   0.254   5.673  13.941 -0.4218  0.0898  0.5104
 3943TIP3    H133320   0.162   5.696  13.932 -0.3017  0.1879 -0.5705
 3943TIP3    H233321   0.281   5.643  13.854  0.8852  1.2134  0.4872
 3944TIP3   OH233322   1.973   2.278   5.864  0.1838  0.0934 -0.0192
 3944TIP3    H133323   2.035   2.256   5.934 -0.3133  0.5560  0.5757
 3944TIP3    H233324   1.952   2.194   5.824  2.0799  0.0336 -1.0086
 3945TIP3   OH233325   3.782   0.415   0.064 -0.0076  0.6463 -0.3864
 3945TIP3    H133326   3.742   0.434   0.148  0.4597  1.5790 -0.3679
 3945TIP3    H233327   3.759   0.490   0.009  0.8434  0.7068 -0.6747
 3946TIP3   OH233328   2.617   0.918  10.991 -0.4882  0.1743  0.3441
 3946TIP3    H133329   2.561   0.883  11.061  0.7148 -0.4524  1.0342
 3946TIP3    H233330   2.693   0.860  10.991 -0.5837 -0.0153 -1.6987
 3947TIP3   OH233331   4.964   1.168  16.702  0.4685 -0.1311 -0.5694
 3947TIP3    H133332   4.982   1.075  16.717 -0.0287  0.0304  1.2520
 3947TIP3    H233333   4.884   1.168  16.649  0.1869 -0.7374 -0.1570
 3948TIP3   OH233334   6.861   1.520   4.495  0.1792  0.1184 -0.2596
 3948TIP3    H133335   6.795   1.451   4.497  0.8592 -0.5613  3.0403
 3948TIP3    H233336   6.814   1.596   4.460 -2.4396 -0.3111  2.0192
 3949TIP3   OH233337   2.654   6.335   0.113  0.5416 -0.1903 -0.6210
 3949TIP3    H133338   2.705   6.306   0.188  0.9090 -2.3400 -1.6274
 3949TIP3    H233339   2.696   6.417   0.086  3.2513 -1.6514 -1.1511
 3950TIP3   OH233340   3.399   2.079   1.392 -0.5500 -0.2116 -0.0585
 3950TIP3    H133341   3.342   2.116   1.325 -2.9780 -2.5599  0.5549
 3950TIP3    H233342   3.341   2.060   1.465  1.5765 -0.0807  1.7606
 3951TIP3   OH233343   4.104   3.439   3.626 -0.2243  0.1677  0.0008
 3951TIP3    H133344   4.047   3.363   3.641  0.8154 -0.2788  2.1311
 3951TIP3    H233345   4.151   3.417   3.546 -1.0719 -0.7052 -0.2882
 3952TIP3   OH233346   1.448   6.778  11.439 -0.4961  0.0247 -0.1870
 3952TIP3    H133347   1.496   6.707  11.396 -0.8074  0.3283 -1.0616
 3952TIP3    H233348   1.513   6.846  11.454  0.0173 -0.7822  1.5167
 3953TIP3   OH233349   2.316   4.475  14.430  0.2500  0.3746  0.1999
 3953TIP3    H133350   2.228   4.450  14.402  1.1566 -2.4899 -0.4890
 3953TIP3    H233351   2.304   4.513  14.517 -1.7130  0.8004 -0.2186
 3954TIP3   OH233352   3.197   0.568  13.258 -0.3209  0.3535  0.1461
 3954TIP3    H133353   3.219   0.584  13.350  1.4927  1.5184 -0.4365
 3954TIP3    H233354   3.233   0.482  13.239 -2.8355 -1.0409  1.0857
 3955TIP3   OH233355   1.481   1.697   3.547 -0.2807  0.1048  0.1961
 3955TIP3    H133356   1.427   1.658   3.616 -0.8571 -1.1228 -0.9226
 3955TIP3    H233357   1.461   1.646   3.469  0.6465  1.2337 -0.8083
 3956TIP3   OH233358   6.054   5.226  16.004  0.1665 -0.0306  0.1162
 3956TIP3    H133359   5.984   5.189  15.950 -0.3739  0.0612  0.7369
 3956TIP3    H233360   6.035   5.320  16.006  2.2256  0.5603 -2.4801
 3957TIP3   OH233361   1.940   3.971   0.484  0.6792  0.2931  0.1923
 3957TIP3    H133362   1.859   3.981   0.533  0.4933  2.0022 -0.4163
 3957TIP3    H233363   2.006   3.954   0.551  0.2145  1.3057  0.9376
 3958TIP3   OH233364   2.148   6.510   1.641  0.2918  0.2912 -0.0437
 3958TIP3    H133365   2.068   6.465   1.614  0.7721 -0.8407  0.3659
 3958TIP3    H233366   2.137   6.527   1.734  0.3350  0.5621 -0.0857
 3959TIP3   OH233367   4.087   1.963  16.443 -0.2528 -0.0599 -0.6431
 3959TIP3    H133368   4.090   1.970  16.538 -1.0475  0.6987 -0.6581
 3959TIP3    H233369   4.160   1.906  16.421 -0.4873 -0.8202  0.4747
 3960TIP3   OH233370   0.250   4.332   2.059 -0.4677 -0.1194  0.1248
 3960TIP3    H133371   0.256   4.341   2.154 -0.8557  0.9330  0.0717
 3960TIP3    H233372   0.311   4.398   2.025 -0.8716  0.0173 -0.3513
 3961TIP3   OH233373   1.125   2.382  12.746  0.3764  0.0044 -0.4051
 3961TIP3    H133374   1.058   2.355  12.684  0.5648 -1.8598  0.1587
 3961TIP3    H233375   1.202   2.402  12.692 -0.0822  0.4669 -0.9073
 3962TIP3   OH233376   1.316   6.757  15.140  0.6958  0.1125 -0.1439
 3962TIP3    H133377   1.381   6.826  15.131  0.5977  0.5156  1.9570
 3962TIP3    H233378   1.336   6.715  15.223 -1.8442  0.3879  0.6923
 3963TIP3   OH233379   5.204   5.913  12.692 -0.4267  0.3317  0.0234
 3963TIP3    H133380   5.272   5.848  12.677 -0.7520  0.3615 -1.8443
 3963TIP3    H233381   5.231   5.988  12.639 -1.6195  0.5387 -0.3201
 3964TIP3   OH233382   0.256   0.983   4.913 -0.1062  0.0882  0.5717
 3964TIP3    H133383   0.264   1.068   4.956 -0.8083 -0.1191  1.1381
 3964TIP3    H233384   0.186   0.994   4.849  1.2312  0.5219 -0.8871
 3965TIP3   OH233385   3.599   0.721   2.036 -0.0946 -0.3981  0.1199
 3965TIP3    H133386   3.651   0.668   1.975 -0.3042  0.6622 -1.0026
 3965TIP3    H233387   3.524   0.665   2.057 -0.5760 -0.3873 -1.4435
 3966TIP3   OH233388   5.074   3.137  14.943 -0.0427 -0.6260 -0.7703
 3966TIP3    H133389   5.081   3.085  15.023 -0.8730  0.3939 -0.0027
 3966TIP3    H233390   5.146   3.199  14.948  1.6029 -2.2813 -2.2007
 3967TIP3   OH233391   4.385   1.188  15.743  0.9379  0.3168 -0.0681
 3967TIP3    H133392   4.430   1.119  15.695  0.5525  0.0370 -0.0263
 3967TIP3    H233393   4.299   1.195  15.702  1.2843  1.3999 -0.6696
 3968TIP3   OH233394   3.969   2.305  16.113  0.2346 -0.5116 -0.1534
 3968TIP3    H133395   4.038   2.306  16.180  0.2789  0.9465 -0.1895
 3968TIP3    H233396   3.913   2.231  16.138  1.5565 -1.4702  0.1088
 3969TIP3   OH233397   1.950   6.465  14.498 -0.6058  0.0401  0.1329
 3969TIP3    H133398   1.972   6.423  14.415 -1.4872  1.0717 -0.6562
 3969TIP3    H233399   1.904   6.397  14.548  1.5322 -1.1705  0.5779
 3970TIP3   OH233400   5.800   0.961   2.404 -0.6785 -1.4275  0.4929
 3970TIP3    H133401   5.770   0.904   2.333 -1.1851  1.9230 -2.2594
 3970TIP3    H233402   5.720   1.006   2.434  0.1286  0.4427 -0.0133
 3971TIP3   OH233403   3.732   3.414   3.389 -0.0301 -0.8297 -0.1064
 3971TIP3    H133404   3.658   3.358   3.363 -1.0602  1.2846 -2.0739
 3971TIP3    H233405   3.804   3.386   3.333  0.3918 -2.1725  1.0591
 3972TIP3   OH233406   3.811   5.282  16.070  0.5353  0.1996  0.3980
 3972TIP3    H133407   3.792   5.191  16.045 -0.3308  0.9442 -1.9055
 3972TIP3    H233408   3.725   5.322  16.081  0.9053  0.8816  0.8682
 3973TIP3   OH233409   6.099   1.545  13.014  0.2370  0.2129  0.6570
 3973TIP3    H133410   6.145   1.516  13.093  0.5839  0.8984  0.7130
 3973TIP3    H233411   6.105   1.640  13.016  1.2782  0.2241 -0.7882
 3974TIP3   OH233412   4.949   5.212  16.658 -0.0993 -0.2325  0.3652
 3974TIP3    H133413   5.034   5.188  16.621  0.8131 -2.1588  3.3216
 3974TIP3    H233414   4.968   5.238  16.748 -2.3988  1.9552  0.3311
 3975TIP3   OH233415   1.174   0.026   6.721  0.1577 -0.0286  0.0239
 3975TIP3    H133416   1.093   0.002   6.766 -0.6270 -0.7242 -1.6730
 3975TIP3    H233417   1.222  -0.057   6.712  1.0701  0.3679  0.9578
 3976TIP3   OH233418   5.958   2.644  11.410 -0.0166 -0.2531  0.6605
 3976TIP3    H133419   5.974   2.735  11.435  2.1354 -0.3588 -0.1562
 3976TIP3    H233420   6.029   2.594  11.451 -1.9473 -1.8488  2.3206
 3977TIP3   OH233421   1.788   4.338  14.656 -0.2895 -0.7022  0.0824
 3977TIP3    H133422   1.721   4.338  14.725 -1.7760  0.7207 -1.2589
 3977TIP3    H233423   1.831   4.423  14.665 -0.3833 -0.5743 -0.6192
 3978TIP3   OH233424   1.474   1.330  13.112 -0.0604 -0.2658 -0.0103
 3978TIP3    H133425   1.443   1.266  13.176 -1.3358  0.6518  0.3249
 3978TIP3    H233426   1.570   1.328  13.121  0.3325 -4.5280 -2.3875
 3979TIP3   OH233427   3.509   4.012  14.745 -0.1196 -0.4145  0.1440
 3979TIP3    H133428   3.520   4.069  14.821 -0.8208  0.1968 -0.2020
 3979TIP3    H233429   3.537   4.064  14.671  1.0537 -1.1886  0.0241
 3980TIP3   OH233430   5.159   6.616   4.915 -0.2018 -0.2295  0.2480
 3980TIP3    H133431   5.134   6.647   5.001 -0.0427 -1.3296  0.7095
 3980TIP3    H233432   5.252   6.638   4.907 -0.6552  1.5945 -0.4473
 3981TIP3   OH233433   0.193   4.953  14.074  0.3543  0.6506  0.5136
 3981TIP3    H133434   0.165   4.926  14.161 -0.2107 -1.7784 -0.3370
 3981TIP3    H233435   0.112   4.965  14.025  0.6106 -1.6932 -0.6377
 3982TIP3   OH233436   6.623   5.516  12.533  0.2525  0.4465  0.1768
 3982TIP3    H133437   6.576   5.581  12.482 -2.5203  0.4938  2.5718
 3982TIP3    H233438   6.569   5.437  12.528  1.3704 -0.3886  0.7569
 3983TIP3   OH233439   1.502   0.276  10.559  0.2942 -0.3237  0.0361
 3983TIP3    H133440   1.570   0.325  10.514 -0.0968  1.3023  1.0957
 3983TIP3    H233441   1.428   0.277  10.498 -0.3502  2.1525  0.7220
 3984TIP3   OH233442   1.834   2.946   0.563 -0.5258  0.1721  0.0787
 3984TIP3    H133443   1.895   2.990   0.622 -0.9298  0.8514 -0.0001
 3984TIP3    H233444   1.747   2.966   0.598 -0.7927  0.9035 -0.9440
 3985TIP3   OH233445   0.404   2.945  11.704  0.4708  0.0795  0.2376
 3985TIP3    H133446   0.313   2.916  11.716  0.6952 -0.8570 -0.2506
 3985TIP3    H233447   0.430   2.908  11.620  0.4784  2.5317 -0.9221
 3986TIP3   OH233448   1.490   5.882   2.064  0.1844  0.2905 -0.1474
 3986TIP3    H133449   1.490   5.976   2.045 -0.3503 -0.0177 -1.9182
 3986TIP3    H233450   1.438   5.874   2.144 -1.2558  1.3910 -0.9010
 3987TIP3   OH233451   3.472   6.263  13.659 -0.2091 -0.2580  0.0785
 3987TIP3    H133452   3.455   6.248  13.566  1.0010 -0.6462 -0.0969
 3987TIP3    H233453   3.404   6.213  13.704  0.3051 -1.6087 -0.5877
 3988TIP3   OH233454   4.757   4.152   6.151 -0.2232 -0.0349 -0.2291
 3988TIP3    H133455   4.843   4.170   6.187  0.1669 -0.9950 -0.6593
 3988TIP3    H233456   4.702   4.223   6.185  0.9807  1.2956 -0.9172
 3989TIP3   OH233457   4.452   0.448  15.553  0.3413  0.1024 -0.1383
 3989TIP3    H133458   4.425   0.399  15.476  1.3182  1.8188 -1.6818
 3989TIP3    H233459   4.543   0.473  15.535 -0.2225  2.8537  0.2463
 3990TIP3   OH233460   6.722   0.827   5.015 -0.2576  0.0317  0.0986
 3990TIP3    H133461   6.735   0.757   5.080 -0.7101  0.2972  0.4809
 3990TIP3    H233462   6.743   0.908   5.062 -0.7716  0.2441 -0.0284
 3991TIP3   OH233463   1.276   6.070   1.240  0.9204  0.8720 -0.4937
 3991TIP3    H133464   1.306   5.980   1.251  2.0710  1.1717 -1.0740
 3991TIP3    H233465   1.271   6.105   1.329  2.6460  0.9099 -0.3829
 3992TIP3   OH233466   0.849   2.820   2.798 -0.1415  0.1932  0.5958
 3992TIP3    H133467   0.830   2.857   2.712 -0.9222  0.6928  0.9752
 3992TIP3    H233468   0.940   2.789   2.791 -0.8803 -1.7663 -1.0839
 3993TIP3   OH233469   5.935   6.407   1.692  0.2520  0.0218 -0.2490
 3993TIP3    H133470   5.851   6.371   1.663 -0.2851 -0.9261  2.1850
 3993TIP3    H233471   5.925   6.502   1.684 -1.0638 -0.0803 -0.0133
 3994TIP3   OH233472   0.803   0.816   3.120 -0.2303 -0.0925  0.2278
 3994TIP3    H133473   0.809   0.851   3.031  5.7131  0.4913  0.4868
 3994TIP3    H233474   0.842   0.729   3.114 -0.8620 -0.5434  2.1238
 3995TIP3   OH233475   2.784   2.394  14.998  0.4491  0.5269  0.2665
 3995TIP3    H133476   2.860   2.353  14.957  0.4438  1.7333 -1.0560
 3995TIP3    H233477   2.805   2.488  14.997 -0.5800  0.7790  0.9198
 3996TIP3   OH233478   0.092   6.750   6.107 -0.1950 -0.1630 -0.1748
 3996TIP3    H133479   0.033   6.821   6.131  0.4365 -0.2010  1.6028
 3996TIP3    H233480   0.179   6.788   6.111  0.1990 -1.1441  1.3919
 3997TIP3   OH233481   1.356   0.162   3.481 -0.5027  0.2015 -0.5970
 3997TIP3    H133482   1.291   0.179   3.548 -0.2980 -3.4428  0.7042
 3997TIP3    H233483   1.306   0.129   3.406 -0.3168 -2.3820  0.3241
 3998TIP3   OH233484   2.300   0.154  15.538  0.6927 -0.0434 -0.2499
 3998TIP3    H133485   2.380   0.107  15.561  0.0761 -0.5635  0.9116
 3998TIP3    H233486   2.288   0.137  15.444  2.2977  0.6191 -0.6066
 3999TIP3   OH233487   3.298   6.028   1.585  0.0698  0.0665  0.5850
 3999TIP3    H133488   3.394   6.030   1.586  0.1590 -1.9367  1.5767
 3999TIP3    H233489   3.272   6.110   1.543  2.2008  0.9148  0.8218
 4000TIP3   OH233490   3.360   5.120  11.942 -0.0621 -0.9621 -0.0074
 4000TIP3    H133491   3.373   5.051  11.877  0.3209 -1.1021  0.2124
 4000TIP3    H233492   3.268   5.112  11.967 -0.1846 -0.9738 -0.4540
 4001TIP3   OH233493   1.883   5.243  16.738  0.0831  0.4044 -0.4165
 4001TIP3    H133494   1.939   5.294  16.797  1.2025  0.5170 -1.5382
 4001TIP3    H233495   1.934   5.164  16.718 -0.5541  0.0598 -0.7275
 4002TIP3   OH233496   2.379   4.295  11.888  0.0857 -0.4703  0.0143
 4002TIP3    H133497   2.412   4.344  11.963 -0.3328 -0.0097 -0.1015
 4002TIP3    H233498   2.290   4.325  11.876 -0.0812 -1.0445 -0.2473
 4003TIP3   OH233499   2.899   2.292  10.440 -0.3144 -0.0277  0.1724
 4003TIP3    H133500   2.974   2.346  10.417 -0.4529 -0.3974 -1.2552
 4003TIP3    H233501   2.823   2.343  10.414 -0.5576  0.1121  1.1049
 4004TIP3   OH233502   0.259   3.957  13.956 -0.0161  0.4416 -0.2338
 4004TIP3    H133503   0.176   3.995  13.927  0.2821  0.6270 -0.8535
 4004TIP3    H233504   0.286   4.012  14.030  0.1326  1.0894 -0.7664
 4005TIP3   OH233505   4.829   4.748   2.231 -1.1682  0.0073  0.1311
 4005TIP3    H133506   4.811   4.785   2.144 -1.1061 -0.5963 -0.1396
 4005TIP3    H233507   4.742   4.731   2.267 -1.1861 -0.7123 -0.2353
 4006TIP3   OH233508   5.740   0.393   6.580  0.3325 -0.1842  0.3878
 4006TIP3    H133509   5.724   0.467   6.639 -0.5565 -0.7487  0.8800
 4006TIP3    H233510   5.822   0.355   6.611  0.7881  0.5609  0.1438
 4007TIP3   OH233511   4.562   3.701   5.937  0.1108  0.1145  0.5100
 4007TIP3    H133512   4.648   3.672   5.968  0.6704  1.1893  0.0096
 4007TIP3    H233513   4.501   3.668   6.003  0.7013 -1.9992  0.1086
 4008TIP3   OH233514   1.440   1.478   4.535 -0.4258  0.0117  0.2194
 4008TIP3    H133515   1.517   1.482   4.477  0.0200 -0.9243  0.7260
 4008TIP3    H233516   1.469   1.426   4.609 -2.0213 -1.7375 -0.3165
 4009TIP3   OH233517   2.597   1.057   6.564  0.6180 -0.5347 -0.4270
 4009TIP3    H133518   2.661   1.048   6.634  1.2343  0.9071 -0.7885
 4009TIP3    H233519   2.530   1.116   6.600  1.3112  0.8098 -1.2804
 4010TIP3   OH233520   6.463   3.812   0.220 -0.7042 -0.4082 -0.3765
 4010TIP3    H133521   6.558   3.824   0.227 -0.4634 -1.7432 -1.0200
 4010TIP3    H233522   6.429   3.898   0.195 -0.0495  0.9203  2.8130
 4011TIP3   OH233523   0.096   5.240   0.219  0.3152  0.4124 -0.2217
 4011TIP3    H133524   0.077   5.151   0.190  0.3468  0.9180 -1.9258
 4011TIP3    H233525   0.152   5.276   0.150  1.8980  1.1512  1.3706
 4012TIP3   OH233526   4.807   1.752  11.906 -0.3301  0.3558  0.1594
 4012TIP3    H133527   4.892   1.794  11.919 -0.5497  0.7570  0.3299
 4012TIP3    H233528   4.747   1.825  11.889 -0.6277  0.0714 -0.0172
 4013TIP3   OH233529   6.305   3.094   2.232 -0.1159 -0.6468 -0.1826
 4013TIP3    H133530   6.344   3.042   2.161 -3.2877 -1.7688 -1.3083
 4013TIP3    H233531   6.325   3.184   2.210 -0.8753 -0.9836 -2.5125
 4014TIP3   OH233532   0.511   2.868   5.811 -0.0200 -0.4192  0.7067
 4014TIP3    H133533   0.592   2.910   5.840 -1.0231  1.3540  1.0842
 4014TIP3    H233534   0.534   2.829   5.726  1.2133  0.0503  0.7952
 4015TIP3   OH233535   2.180   1.167   3.960 -0.0188 -0.0482 -0.2735
 4015TIP3    H133536   2.232   1.226   4.016 -1.2859 -0.0378  0.9571
 4015TIP3    H233537   2.171   1.214   3.877 -0.0100  0.9766  0.2931
 4016TIP3   OH233538   4.241   4.947  13.788  0.5634 -0.0584  0.1797
 4016TIP3    H133539   4.149   4.971  13.786  0.5914 -0.0279 -1.1847
 4016TIP3    H233540   4.265   4.952  13.881 -0.6698  0.4045  0.4869
 4017TIP3   OH233541   3.829   2.694   0.823 -0.2417 -0.3678 -0.1009
 4017TIP3    H133542   3.880   2.738   0.891  0.4273 -1.1839 -0.0494
 4017TIP3    H233543   3.895   2.645   0.772 -1.0284 -1.9525  0.3418
 4018TIP3   OH233544   0.709   0.784  13.469 -0.1365 -0.2583  0.5943
 4018TIP3    H133545   0.771   0.713  13.450  0.9737  0.5008  1.2829
 4018TIP3    H233546   0.754   0.838  13.534 -0.8610  1.2341 -0.1229
 4019TIP3   OH233547   4.590   0.497  11.511 -0.0864  0.1636 -0.1723
 4019TIP3    H133548   4.556   0.408  11.518 -1.9587  0.6351 -2.2478
 4019TIP3    H233549   4.516   0.553  11.531  0.1145  1.2400 -2.2426
 4020TIP3   OH233550   6.284   6.507   1.335 -0.3363  0.0676 -0.7793
 4020TIP3    H133551   6.201   6.459   1.341 -0.4367  0.1734 -1.2554
 4020TIP3    H233552   6.287   6.561   1.414  0.3228 -1.5775  0.3715
 4021TIP3   OH233553   0.721   1.450  16.508  0.5228 -0.0502  0.5934
 4021TIP3    H133554   0.729   1.391  16.433  0.8007  1.3041 -0.4705
 4021TIP3    H233555   0.807   1.490  16.517  0.1148  0.8218  0.7599
 4022TIP3   OH233556   5.220   1.083  13.594  0.1684  0.1861 -0.2484
 4022TIP3    H133557   5.237   1.113  13.684 -1.3668 -0.7628  0.4039
 4022TIP3    H233558   5.284   1.014  13.580  0.8366  0.7761 -0.1131
 4023TIP3   OH233559   6.163   5.299   5.520 -0.1839  0.1888  0.5774
 4023TIP3    H133560   6.129   5.388   5.529  1.7475  1.0517 -0.0665
 4023TIP3    H233561   6.167   5.266   5.609 -0.1332  1.0800  0.9201
 4024TIP3   OH233562   1.132   2.629   0.851  0.1618 -0.4240  0.1054
 4024TIP3    H133563   1.166   2.601   0.936 -0.9457  0.6906  0.9637
 4024TIP3    H233564   1.043   2.660   0.871  0.5899  1.7634 -1.0824
 4025TIP3   OH233565   3.026   5.956   1.753 -0.2655  0.2421  0.4842
 4025TIP3    H133566   2.959   5.905   1.797 -0.7397 -0.3218 -0.8546
 4025TIP3    H233567   3.059   5.899   1.683 -1.5491  2.0335 -1.7529
 4026TIP3   OH233568   1.856   0.704   0.851 -0.2038 -0.1208 -0.0907
 4026TIP3    H133569   1.815   0.734   0.769  1.5219 -0.2363 -1.0420
 4026TIP3    H233570   1.888   0.784   0.893 -0.5258 -0.1220  0.1599
 4027TIP3   OH233571   1.480   0.367   5.970  0.2115  0.3889  0.3854
 4027TIP3    H133572   1.505   0.381   6.061  1.1344 -0.3450  0.2682
 4027TIP3    H233573   1.555   0.320   5.932 -0.0872  0.8295 -0.7869
 4028TIP3   OH233574   2.026   5.412   3.183  0.5313 -0.8121 -0.4352
 4028TIP3    H133575   2.101   5.469   3.161 -1.3292  2.3500  0.7825
 4028TIP3    H233576   1.972   5.413   3.104  0.7089 -1.3223 -0.5685
 4029TIP3   OH233577   4.369   2.235  11.580 -0.0381  0.4469  0.6057
 4029TIP3    H133578   4.369   2.330  11.595 -0.0838  0.3037  1.5356
 4029TIP3    H233579   4.288   2.219  11.531  0.4683  1.0147 -0.4675
 4030TIP3   OH233580   2.132   1.791   3.148 -0.1104 -0.2012 -0.4696
 4030TIP3    H133581   2.064   1.731   3.177 -1.6724  0.5975 -2.2530
 4030TIP3    H233582   2.172   1.747   3.073  0.6331 -0.2052 -0.0765
 4031TIP3   OH233583   0.938   4.888   3.005 -0.6637  0.3686 -0.4248
 4031TIP3    H133584   0.917   4.892   3.098 -2.4337 -1.6147 -0.6599
 4031TIP3    H233585   1.021   4.936   2.997  0.3039 -0.5984  2.3933
 4032TIP3   OH233586   5.080   1.614   3.281  0.2043 -0.5389 -0.3155
 4032TIP3    H133587   5.028   1.670   3.338  0.4773  0.4040 -0.9584
 4032TIP3    H233588   5.088   1.532   3.329  0.5234  0.2537  1.0645
 4033TIP3   OH233589   3.082   4.155  10.672 -0.0760 -0.3515  0.1406
 4033TIP3    H133590   3.042   4.242  10.681 -0.3166 -0.6389  3.1796
 4033TIP3    H233591   3.008   4.097  10.653 -0.2311 -0.1227  0.0359
 4034TIP3   OH233592   4.079   3.571  12.119  0.2659  0.8761  0.1428
 4034TIP3    H133593   4.025   3.602  12.192 -1.4582 -0.7858 -0.3359
 4034TIP3    H233594   4.130   3.499  12.157  0.7327  1.2052  0.1390
 4035TIP3   OH233595   2.055   3.181   1.915 -0.5076 -0.4143 -0.5332
 4035TIP3    H133596   2.000   3.231   1.975 -1.1338  0.0287 -1.4443
 4035TIP3    H233597   2.136   3.166   1.963 -1.6061 -1.5930  1.0886
 4036TIP3   OH233598   1.533   3.336  11.671 -0.4304 -0.1417 -0.2869
 4036TIP3    H133599   1.613   3.375  11.633  0.2522 -0.2062  1.0363
 4036TIP3    H233600   1.563   3.296  11.752 -1.9089  0.2173  0.4527
 4037TIP3   OH233601   3.776   6.327  11.246 -0.1169 -0.4464 -0.3292
 4037TIP3    H133602   3.713   6.339  11.318  0.2253  1.4007 -0.2783
 4037TIP3    H233603   3.747   6.390  11.179  0.6994 -0.7641 -0.9950
 4038TIP3   OH233604   5.026   0.477  14.463  0.8712  0.2690  0.3271
 4038TIP3    H133605   4.976   0.558  14.448  0.2652 -0.4162 -1.5607
 4038TIP3    H233606   5.116   0.500  14.440  0.7577  0.4977  0.1029
 4039TIP3   OH233607   5.837   6.250   0.899 -0.1252 -0.4230 -0.5688
 4039TIP3    H133608   5.787   6.214   0.972 -0.5749  1.5549  0.1744
 4039TIP3    H233609   5.840   6.180   0.834 -2.1297 -1.2635  0.1851
 4040TIP3   OH233610   4.523   2.110   5.689 -0.1757  0.2015  0.2974
 4040TIP3    H133611   4.573   2.179   5.733  2.1984 -0.3992 -1.3149
 4040TIP3    H233612   4.558   2.028   5.724 -2.6195 -0.3108  1.8123
 4041TIP3   OH233613   0.810   6.452  14.366  0.5503  0.2291 -0.4657
 4041TIP3    H133614   0.753   6.501  14.425  0.6648  0.4263 -0.5178
 4041TIP3    H233615   0.898   6.467  14.400  0.4559 -1.5063  0.6663
 4042TIP3   OH233616   5.251   0.222   0.997  0.1750 -0.1259  0.0855
 4042TIP3    H133617   5.329   0.217   0.942  1.2255 -2.5385  1.6443
 4042TIP3    H233618   5.282   0.202   1.086 -2.0668 -0.2102  0.9296
 4043TIP3   OH233619   0.991   0.762  10.908 -0.4196 -0.6334 -0.2526
 4043TIP3    H133620   1.043   0.681  10.908  0.7443  0.0964  0.0358
 4043TIP3    H233621   0.982   0.784  10.815  0.7297 -0.1941 -0.2763
 4044TIP3   OH233622   1.388   2.733   4.605 -0.0980 -0.2596  0.2581
 4044TIP3    H133623   1.370   2.705   4.695 -2.5681 -4.3775 -1.2390
 4044TIP3    H233624   1.483   2.732   4.598  0.1285 -0.6487  2.5782
 4045TIP3   OH233625   0.219   0.404   4.103  0.0755 -0.3645 -0.3723
 4045TIP3    H133626   0.153   0.448   4.157  1.4920 -0.5264  1.6170
 4045TIP3    H233627   0.256   0.474   4.049 -1.3859 -0.1930 -1.1949
 4046TIP3   OH233628   0.745   3.536  12.097 -0.4185  0.5226 -0.0885
 4046TIP3    H133629   0.752   3.497  12.184  2.5596 -2.5987 -1.4520
 4046TIP3    H233630   0.677   3.485  12.054  0.1949 -0.0274 -0.4341
 4047TIP3   OH233631   4.404   6.667  13.825 -0.0872 -0.3729  1.1588
 4047TIP3    H133632   4.414   6.581  13.865  0.6321 -1.1653 -0.6330
 4047TIP3    H233633   4.490   6.707  13.830  0.1841 -0.7457 -0.1068
 4048TIP3   OH233634   0.141   5.499  11.523 -0.1567  0.1853  0.0536
 4048TIP3    H133635   0.057   5.541  11.545  0.2014  0.8947  0.0951
 4048TIP3    H233636   0.138   5.487  11.428  0.0423  0.9930 -0.0610
 4049TIP3   OH233637   1.132   2.150  13.069  0.5218  0.2070 -0.0510
 4049TIP3    H133638   1.211   2.198  13.044 -0.0132  0.3429 -1.5487
 4049TIP3    H233639   1.119   2.085  13.000 -0.9858  0.5784 -0.1646
 4050TIP3   OH233640   1.953   0.917   0.187  0.3514 -0.5651  0.0190
 4050TIP3    H133641   2.000   0.997   0.162 -0.3874  0.7275  2.3708
 4050TIP3    H233642   1.905   0.892   0.108  1.4959  0.6421 -1.1259
 4051TIP3   OH233643   6.474   6.527  15.093 -0.0721 -0.1008 -0.3399
 4051TIP3    H133644   6.558   6.527  15.141 -0.0210 -3.0563 -0.2688
 4051TIP3    H233645   6.414   6.573  15.151  0.9083 -0.2059  0.8062
 4052TIP3   OH233646   6.359   1.699   5.927  0.1923 -0.1372 -0.3537
 4052TIP3    H133647   6.393   1.633   5.867  0.0470 -0.2311 -0.3328
 4052TIP3    H233648   6.310   1.649   5.992  1.6918 -0.2180  0.7937
 4053TIP3   OH233649   2.851   5.269  11.417 -0.2538  0.3162 -0.0251
 4053TIP3    H133650   2.879   5.223  11.338  1.8172 -0.0178  0.8300
 4053TIP3    H233651   2.827   5.357  11.387 -2.8757 -0.7854 -1.4700
 4054TIP3   OH233652   6.143   5.042  10.880  0.0353 -0.1874 -0.3382
 4054TIP3    H133653   6.204   5.096  10.830 -1.7213  0.0743 -2.3138
 4054TIP3    H233654   6.142   4.958  10.834  0.5332 -0.9661  0.9995
 4055TIP3   OH233655   1.812   4.449  13.191  0.5179 -0.3267 -0.2808
 4055TIP3    H133656   1.811   4.364  13.146  0.2787  0.1758 -1.2530
 4055TIP3    H233657   1.886   4.444  13.251  0.1549 -1.4382  0.0870
 4056TIP3   OH233658   6.580   1.682   4.108  0.3066 -0.0411 -0.0147
 4056TIP3    H133659   6.565   1.590   4.126  0.1425  0.4620  2.9302
 4056TIP3    H233660   6.539   1.728   4.181  1.7815  2.2808 -0.5235
 4057TIP3   OH233661   5.485   6.101   4.760  0.3158 -0.6959  0.1549
 4057TIP3    H133662   5.418   6.036   4.738  0.1020 -0.3986 -0.0966
 4057TIP3    H233663   5.469   6.173   4.698  1.0403 -0.7349 -0.0802
 4058TIP3   OH233664   4.089   6.655  16.563 -0.3221  0.3409 -0.3008
 4058TIP3    H133665   4.162   6.594  16.568 -0.9607 -0.4183 -0.0747
 4058TIP3    H233666   4.027   6.624  16.629 -0.5282  1.4248  0.0491
 4059TIP3   OH233667   6.357   4.863   2.281  0.0083 -0.4603 -0.2183
 4059TIP3    H133668   6.296   4.792   2.261 -0.3342 -0.0916 -0.4904
 4059TIP3    H233669   6.430   4.849   2.220  0.8701 -1.7272  1.0534
 4060TIP3   OH233670   3.433   1.824  13.851 -0.9479 -0.0364 -0.4210
 4060TIP3    H133671   3.481   1.905  13.834  0.2008 -0.8462 -1.2101
 4060TIP3    H233672   3.350   1.853  13.889 -0.0555  1.4456  0.5188
 4061TIP3   OH233673   2.591   3.131  16.384  0.0026 -0.1292 -1.0346
 4061TIP3    H133674   2.587   3.037  16.404  0.2437 -0.2620 -1.5932
 4061TIP3    H233675   2.681   3.145  16.355  0.9388  0.8810  1.9909
 4062TIP3   OH233676   0.811   6.022  16.448 -0.4216  0.3696  0.3059
 4062TIP3    H133677   0.797   5.927  16.457  0.0597  0.1315 -1.1186
 4062TIP3    H233678   0.904   6.030  16.426 -0.4585  1.1838  0.4264
 4063TIP3   OH233679   5.464   0.605   3.783  0.5025  0.2586  0.3704
 4063TIP3    H133680   5.379   0.564   3.765  1.6195 -1.6068 -1.0428
 4063TIP3    H233681   5.468   0.680   3.724 -0.4015  0.7490  0.9092
 4064TIP3   OH233682   1.745   4.203  12.384  0.5277  0.0949 -0.4011
 4064TIP3    H133683   1.701   4.197  12.469  2.5296 -0.7213  0.6657
 4064TIP3    H233684   1.740   4.114  12.349  1.1254  0.0285 -0.3381
 4065TIP3   OH233685   6.170   5.394  13.688  0.0164  0.4201  0.1927
 4065TIP3    H133686   6.108   5.452  13.732  0.5840 -0.3870  2.1799
 4065TIP3    H233687   6.247   5.394  13.744  0.3984 -1.4892 -0.2427
 4066TIP3   OH233688   1.973   3.631  12.814  0.0939  0.2133 -0.1432
 4066TIP3    H133689   1.961   3.566  12.745  1.0649  1.4117 -1.4937
 4066TIP3    H233690   2.067   3.628  12.832  0.6158  2.8170 -1.9105
 4067TIP3   OH233691   6.670   3.109   0.473  0.8044 -0.5072  0.2790
 4067TIP3    H133692   6.674   3.199   0.442  0.5807  0.1435  2.0550
 4067TIP3    H233693   6.731   3.106   0.547 -0.1485 -1.4598  1.0540
 4068TIP3   OH233694   0.278   4.483   0.558 -0.7273 -0.3357  0.2718
 4068TIP3    H133695   0.257   4.570   0.593  1.4769 -0.1634  1.3432
 4068TIP3    H233696   0.364   4.495   0.516 -0.9948 -1.7173 -0.7317
 4069TIP3   OH233697   5.220   4.564  13.116 -0.1146 -0.3809 -0.2916
 4069TIP3    H133698   5.176   4.644  13.144 -1.2862 -1.2431  0.3750
 4069TIP3    H233699   5.168   4.493  13.152  2.6978 -1.4835  1.9665
 4070TIP3   OH233700   6.492   5.652   4.973  0.2814 -0.3762  0.2090
 4070TIP3    H133701   6.561   5.661   5.040  1.3098 -1.3553 -0.6813
 4070TIP3    H233702   6.455   5.565   4.988  0.4178 -0.5424 -0.4006
 4071TIP3   OH233703   1.585   2.489  13.134  0.6514 -0.5238  0.0349
 4071TIP3    H133704   1.569   2.552  13.205  1.5399 -0.5628  0.2717
 4071TIP3    H233705   1.664   2.520  13.091 -0.8906  0.6197 -2.2012
 4072TIP3   OH233706   3.699   5.178  14.857 -0.2168  0.3925 -0.3567
 4072TIP3    H133707   3.731   5.162  14.946 -0.8766 -0.2486 -0.2245
 4072TIP3    H233708   3.711   5.094  14.812 -0.9935  0.3652 -0.5196
 4073TIP3   OH233709   2.994   6.326  11.191  0.0067  0.2586  0.7106
 4073TIP3    H133710   3.053   6.342  11.264 -0.4448  0.7695  0.9681
 4073TIP3    H233711   2.952   6.410  11.174 -0.3219  0.0084  0.2448
 4074TIP3   OH233712   4.298   0.662   5.804 -0.3799 -0.5706 -0.3765
 4074TIP3    H133713   4.210   0.665   5.767  0.8175  0.9599 -3.4344
 4074TIP3    H233714   4.329   0.753   5.801  1.5087 -1.1518  0.0383
 4075TIP3   OH233715   2.207   3.733   1.635  0.1642  0.3223 -0.7128
 4075TIP3    H133716   2.187   3.815   1.681 -1.9110 -0.2661 -0.4300
 4075TIP3    H233717   2.127   3.714   1.586  0.3986 -1.8008 -0.3470
 4076TIP3   OH233718   2.769   4.565   4.008 -0.0052 -0.2980  0.0336
 4076TIP3    H133719   2.809   4.500   3.949  1.2256  0.2048  0.2991
 4076TIP3    H233720   2.695   4.599   3.958  0.5888 -0.4026 -0.9458
 4077TIP3   OH233721   2.551   1.894  11.318  0.7578  0.1946 -0.0049
 4077TIP3    H133722   2.510   1.811  11.344  0.8293 -0.2039 -1.1322
 4077TIP3    H233723   2.516   1.958  11.381 -1.4243 -0.1751 -0.7554
 4078TIP3   OH233724   3.873   2.294   2.744 -0.5142  0.2874  0.0542
 4078TIP3    H133725   3.940   2.249   2.693 -0.1544 -0.1625  0.9124
 4078TIP3    H233726   3.877   2.385   2.713 -1.4993 -0.2830 -1.9526
 4079TIP3   OH233727   5.403   0.335   6.292 -0.5009 -0.8221 -0.5343
 4079TIP3    H133728   5.393   0.430   6.299  1.4042 -0.6388  0.2165
 4079TIP3    H233729   5.496   0.321   6.278 -1.0170 -2.4955 -3.0186
 4080TIP3   OH233730   6.749   5.272   3.617 -0.3615  0.1991 -0.1864
 4080TIP3    H133731   6.814   5.206   3.594  0.4892  1.1226 -0.5359
 4080TIP3    H233732   6.747   5.271   3.713 -2.2214 -2.0449 -0.1632
 4081TIP3   OH233733   6.125   6.158   2.202  0.2040 -0.0532 -0.2410
 4081TIP3    H133734   6.173   6.214   2.263  0.3831 -0.6371  0.1643
 4081TIP3    H233735   6.187   6.089   2.179  0.2907  0.3873 -1.4375
 4082TIP3   OH233736   5.485   2.150  14.193 -0.0638  0.5512 -0.1087
 4082TIP3    H133737   5.481   2.198  14.110 -0.8934 -0.5726 -0.7456
 4082TIP3    H233738   5.401   2.106  14.200 -0.7767  2.1179  2.2962
 4083TIP3   OH233739   6.853   6.722   1.306  0.3123 -0.0064 -0.6435
 4083TIP3    H133740   6.935   6.758   1.273  1.0118 -1.0441 -0.0850
 4083TIP3    H233741   6.832   6.651   1.245  1.3945 -1.6609  0.8194
 4084TIP3   OH233742   2.905   3.186  15.881 -0.0745  0.5017  0.3194
 4084TIP3    H133743   2.934   3.189  15.789 -0.8499 -0.4199  0.0308
 4084TIP3    H233744   2.947   3.262  15.921 -0.8800  1.7927 -1.1438
 4085TIP3   OH233745   4.176   1.578  12.044  0.3242 -0.8534 -0.2318
 4085TIP3    H133746   4.153   1.488  12.023 -0.3985 -1.7846  3.6445
 4085TIP3    H233747   4.271   1.577  12.055  0.3698 -1.0289 -0.6400
 4086TIP3   OH233748   3.794   1.573   2.398 -0.3627  0.0607 -0.5985
 4086TIP3    H133749   3.742   1.621   2.334  0.4320 -1.6934 -2.6932
 4086TIP3    H233750   3.869   1.540   2.348  1.8119  0.8786  1.8725
 4087TIP3   OH233751   2.412   3.884   3.357  0.0515 -0.4469  0.0360
 4087TIP3    H133752   2.321   3.886   3.325  0.2655  0.5017 -0.5716
 4087TIP3    H233753   2.443   3.796   3.335 -0.8297 -0.9049  0.5804
 4088TIP3   OH233754   4.721   3.007  13.106 -0.0787 -0.3840 -0.1865
 4088TIP3    H133755   4.695   2.946  13.175  0.2103 -0.4663 -0.1480
 4088TIP3    H233756   4.767   2.953  13.042 -0.7959 -0.3963 -0.7029
 4089TIP3   OH233757   4.074   4.060   2.412 -0.0248  0.4071 -0.2428
 4089TIP3    H133758   4.109   4.129   2.469 -0.5867  0.6784 -0.2196
 4089TIP3    H233759   4.028   4.001   2.472  0.6950 -0.1554 -0.2231
 4090TIP3   OH233760   4.613   4.447  15.125 -0.5286  0.2905  0.2086
 4090TIP3    H133761   4.580   4.400  15.049 -0.3743  2.7745 -1.5058
 4090TIP3    H233762   4.672   4.385  15.168  1.9310 -0.2614 -3.5433
 4091TIP3   OH233763   3.233   6.751  15.254 -0.3059 -0.0800 -0.0553
 4091TIP3    H133764   3.155   6.799  15.223 -0.1322  0.5012  0.3968
 4091TIP3    H233765   3.222   6.746  15.349  0.4525  0.4354  0.0607
 4092TIP3   OH233766   5.498   1.184  11.955 -0.1980  0.3570  0.2638
 4092TIP3    H133767   5.580   1.187  12.004  0.2476  0.5134 -0.4675
 4092TIP3    H233768   5.474   1.275  11.943 -2.1063  0.3321  3.0583
 4093TIP3   OH233769   5.968   1.803  16.224  0.2326  0.4664  0.6409
 4093TIP3    H133770   5.910   1.816  16.299 -0.2929  0.2572  0.2800
 4093TIP3    H233771   6.051   1.775  16.262  0.4971  1.9869  1.2567
 4094TIP3   OH233772   4.896   5.251  11.213  0.3904 -0.5328  0.3789
 4094TIP3    H133773   4.989   5.229  11.210  0.3456 -0.7351  0.5196
 4094TIP3    H233774   4.890   5.318  11.282  0.1692 -1.7768  1.6102
 4095TIP3   OH233775   1.130   1.740  16.238  0.0062  0.3446 -0.1671
 4095TIP3    H133776   1.224   1.751  16.224  0.3050  0.3947  1.6225
 4095TIP3    H233777   1.098   1.828  16.256 -0.5909  0.4709 -1.6907
 4096TIP3   OH233778   1.919   4.588   4.585  0.0666 -0.0668  0.2599
 4096TIP3    H133779   1.857   4.624   4.522 -1.3911 -1.0829  1.0726
 4096TIP3    H233780   1.951   4.508   4.544  0.2123  0.0190  0.2049
 4097TIP3   OH233781   0.822   2.263  17.031 -0.2549  0.1314 -0.0200
 4097TIP3    H133782   0.732   2.286  17.008 -0.3180 -0.8905 -0.9137
 4097TIP3    H233783   0.873   2.341  17.010 -0.8419  0.4841 -0.1643
 4098TIP3   OH233784   6.302   2.910  13.508 -0.0123 -0.2716 -0.4235
 4098TIP3    H133785   6.217   2.917  13.464  0.4613 -2.0926 -1.7544
 4098TIP3    H233786   6.342   2.832  13.470  0.9532 -1.2956  2.4533
 4099TIP3   OH233787   0.924   0.351   2.821  0.6709 -0.3259  0.0946
 4099TIP3    H133788   0.843   0.301   2.816  0.7913 -0.4073 -1.9284
 4099TIP3    H233789   0.905   0.423   2.881 -1.1213  0.0187 -0.8354
 4100TIP3   OH233790   4.387   1.054  14.252  0.1306  0.4568 -0.4517
 4100TIP3    H133791   4.405   1.133  14.303  1.9268  0.1835 -0.6018
 4100TIP3    H233792   4.455   1.054  14.184 -0.3263 -0.8165 -0.9278
 4101TIP3   OH233793   1.907   3.728  11.223 -0.1904 -0.8988 -0.3454
 4101TIP3    H133794   1.935   3.640  11.246 -2.2629 -1.3866  0.5157
 4101TIP3    H233795   1.844   3.716  11.152 -0.8165 -0.1575  0.0718
 4102TIP3   OH233796   6.079   2.086  17.062  0.0326 -0.0195 -0.0552
 4102TIP3    H133797   6.069   2.171  17.105 -1.2441 -0.1962  0.0405
 4102TIP3    H233798   6.129   2.034  17.125 -0.0491  0.3536  0.3277
 4103TIP3   OH233799   3.498   2.307  13.353 -0.0790  0.6515 -0.4435
 4103TIP3    H133800   3.504   2.217  13.384  0.3639  0.2308 -1.6943
 4103TIP3    H233801   3.569   2.353  13.398  0.4165  0.1061 -0.6574
 4104TIP3   OH233802   2.290   2.093  16.359  0.1162 -0.0950 -0.2743
 4104TIP3    H133803   2.374   2.084  16.313  0.9389  1.0738  0.9241
 4104TIP3    H233804   2.255   2.004  16.363 -0.2424 -0.2181 -3.5001
 4105TIP3   OH233805   5.437   3.259  13.850  0.4227  0.2285 -0.2130
 4105TIP3    H133806   5.470   3.256  13.940  0.0925 -1.7320 -0.1154
 4105TIP3    H233807   5.432   3.353  13.829  0.8734  0.7067  1.6597
 4106TIP3   OH233808   2.757   5.371   3.727 -0.0922  0.2484  0.3493
 4106TIP3    H133809   2.729   5.450   3.773  1.7202  0.3799  1.3182
 4106TIP3    H233810   2.711   5.300   3.772 -0.4520  0.6093  0.5636
 4107TIP3   OH233811   1.332   5.142  15.684 -0.8033 -0.5985  0.4662
 4107TIP3    H133812   1.402   5.149  15.619 -1.5145  1.4572 -0.1675
 4107TIP3    H233813   1.375   5.109  15.762  0.5056 -1.0787 -0.4229
 4108TIP3   OH233814   0.280   2.803   0.026 -0.0570 -0.2284 -0.4465
 4108TIP3    H133815   0.242   2.815  -0.061 -2.4211  1.6782  0.7041
 4108TIP3    H233816   0.322   2.887   0.046  2.8904 -1.5305 -0.7273
 4109TIP3   OH233817   2.089   2.318  10.494 -0.2380 -0.4775  0.3901
 4109TIP3    H133818   2.040   2.400  10.490 -1.2824 -1.1197 -0.4016
 4109TIP3    H233819   2.163   2.331  10.434 -0.6139 -0.2500 -0.0267
 4110TIP3   OH233820   5.214   3.662  15.988  0.3195 -0.4115  0.1505
 4110TIP3    H133821   5.270   3.695  16.058  1.1594  0.9455 -1.0855
 4110TIP3    H233822   5.150   3.732  15.974 -2.0949 -2.1171  1.8457
 4111TIP3   OH233823   4.741   5.613   0.761  0.0603  0.3569  1.0803
 4111TIP3    H133824   4.798   5.569   0.698  1.1315  0.8877  1.6544
 4111TIP3    H233825   4.688   5.543   0.798  1.1514 -0.3440  1.3669
 4112TIP3   OH233826   4.027   3.384  16.032  0.2766  0.2837 -0.5368
 4112TIP3    H133827   4.072   3.461  15.998  0.8878 -0.6329 -1.8925
 4112TIP3    H233828   4.095   3.334  16.077 -0.1831  0.6609  0.6121
 4113TIP3   OH233829   4.961   0.032   5.277 -0.3369  0.7025 -0.0852
 4113TIP3    H133830   4.920   0.084   5.209 -1.5200 -0.6737 -0.4792
 4113TIP3    H233831   4.923   0.063   5.359 -1.9986 -0.3175 -0.4142
 4114TIP3   OH233832   0.456   3.692  12.341 -0.0918  0.3478 -0.5974
 4114TIP3    H133833   0.549   3.713  12.339  0.9814 -3.3189  1.2403
 4114TIP3    H233834   0.420   3.750  12.408  1.8371 -0.7706  1.5690
 4115TIP3   OH233835   2.485   3.031   4.796  0.6083  0.6024  0.5668
 4115TIP3    H133836   2.454   2.962   4.855 -1.3854 -1.6737 -2.8300
 4115TIP3    H233837   2.415   3.097   4.798  0.5025  0.4884  0.6566
 4116TIP3   OH233838   4.274   4.575   1.341 -0.5057 -0.0529  0.1757
 4116TIP3    H133839   4.255   4.489   1.304  0.0182 -0.9218  1.8137
 4116TIP3    H233840   4.330   4.617   1.276 -1.0236 -0.8083 -0.7957
 4117TIP3   OH233841   1.902   1.326   3.512  0.0813  0.3173  0.2002
 4117TIP3    H133842   1.899   1.256   3.577  2.1154 -0.7699 -0.7885
 4117TIP3    H233843   1.811   1.354   3.503 -0.4620 -0.5425  2.3520
 4118TIP3   OH233844   4.991   1.801   5.374 -0.0692  0.2895 -0.0368
 4118TIP3    H133845   4.916   1.747   5.349  1.6951 -1.6028 -1.5674
 4118TIP3    H233846   5.009   1.853   5.296 -0.5807  1.8001  0.7994
 4119TIP3   OH233847   4.803   2.576  12.641 -0.0771 -0.1461 -1.1464
 4119TIP3    H133848   4.753   2.507  12.598  0.6648 -0.3577 -1.6939
 4119TIP3    H233849   4.806   2.550  12.733  0.6169 -1.1087 -1.4282
 4120TIP3   OH233850   0.913   3.822   2.647 -0.4001  0.3139  0.2514
 4120TIP3    H133851   0.870   3.770   2.715  0.2916  1.2815  1.4688
 4120TIP3    H233852   0.963   3.889   2.696  2.3677 -0.6490 -1.0753
 4121TIP3   OH233853   1.654   0.516  14.276  0.4244 -0.0412  0.0202
 4121TIP3    H133854   1.621   0.496  14.363  0.2286  0.3449  0.0361
 4121TIP3    H233855   1.664   0.611  14.275 -2.9037  0.4475 -1.4913
 4122TIP3   OH233856   2.470   2.580   5.628  0.1448  0.1115 -0.3684
 4122TIP3    H133857   2.471   2.675   5.622  0.2071  0.0609 -1.4132
 4122TIP3    H233858   2.396   2.560   5.685  1.3614  0.8338  1.5663
 4123TIP3   OH233859   3.418   3.481   3.538 -0.4710  0.0616 -0.3297
 4123TIP3    H133860   3.436   3.406   3.482 -0.1911  0.2892 -0.5499
 4123TIP3    H233861   3.360   3.537   3.486  0.5465  0.7259 -0.7730
 4124TIP3   OH233862   6.689   6.783   2.243  0.2883  0.6738  0.0831
 4124TIP3    H133863   6.694   6.869   2.286 -0.8465  0.8987 -0.2136
 4124TIP3    H233864   6.599   6.754   2.256  0.2296  0.2335 -1.1637
 4125TIP3   OH233865   2.965   3.627  12.780 -0.2625  0.0067 -0.5952
 4125TIP3    H133866   2.911   3.687  12.727 -2.2993 -1.1680  0.0145
 4125TIP3    H233867   2.922   3.542  12.769  0.5094 -0.6648  1.2749
 4126TIP3   OH233868   6.211   4.221  11.406  0.2318 -0.0069  0.1930
 4126TIP3    H133869   6.254   4.267  11.478  0.3423  0.5636 -0.2295
 4126TIP3    H233870   6.190   4.290  11.343 -1.2486 -0.2622  0.3550
 4127TIP3   OH233871   3.046   4.771  13.763  0.6681 -0.1537 -0.6484
 4127TIP3    H133872   3.061   4.790  13.671 -0.4419  0.7463 -0.6632
 4127TIP3    H233873   2.953   4.788  13.776  0.6338 -1.0796  0.4496
 4128TIP3   OH233874   6.717   1.877  11.707 -0.0303 -0.4012 -0.2313
 4128TIP3    H133875   6.665   1.801  11.732 -0.5217 -0.1423 -0.4489
 4128TIP3    H233876   6.685   1.949  11.762  0.2492 -0.2869 -0.2111
 4129TIP3   OH233877   1.492   4.665  11.042  0.5118  0.0718  0.7234
 4129TIP3    H133878   1.533   4.611  11.109  0.2816 -2.1239 -0.7936
 4129TIP3    H233879   1.417   4.613  11.012  0.7636  0.8153 -1.3981
 4130TIP3   OH233880   3.805   2.300   5.041  0.0844 -0.0093  0.1813
 4130TIP3    H133881   3.735   2.305   5.107  0.7337  2.9563  0.7492
 4130TIP3    H233882   3.759   2.307   4.957 -0.5836 -2.0764  0.3089
 4131TIP3   OH233883   5.889   1.028  12.026  0.4094 -0.1711  0.0953
 4131TIP3    H133884   5.870   1.118  11.998 -0.6192 -0.6673 -0.8613
 4131TIP3    H233885   5.928   0.986  11.949 -1.2868 -1.1931 -0.2599
 4132TIP3   OH233886   4.173   5.009  10.891 -0.2555  0.6214 -0.8571
 4132TIP3    H133887   4.112   5.069  10.935  0.5438  0.5712  0.3482
 4132TIP3    H233888   4.256   5.055  10.890  0.3242 -0.3684 -0.0980
 4133TIP3   OH233889   4.560   2.067   1.513  0.1033 -0.0217 -0.3989
 4133TIP3    H133890   4.506   2.140   1.545 -0.8319 -1.0902  0.5405
 4133TIP3    H233891   4.506   2.023   1.448  0.6558  0.1063 -0.9479
 4134TIP3   OH233892   0.158   1.344   5.509 -0.4582 -0.3646 -0.0151
 4134TIP3    H133893   0.249   1.342   5.536  0.0546 -0.2372 -1.6057
 4134TIP3    H233894   0.161   1.340   5.413 -2.0837  0.6831 -0.1589
 4135TIP3   OH233895   6.809   2.587   0.767 -0.9596 -0.3942 -0.5008
 4135TIP3    H133896   6.800   2.563   0.859 -3.4830  0.8316 -0.3386
 4135TIP3    H233897   6.901   2.570   0.746 -0.3923 -0.9732  2.1446
 4136TIP3   OH233898   6.392   5.849  11.232 -0.2683 -0.1626 -0.0249
 4136TIP3    H133899   6.303   5.828  11.258 -0.3442 -1.9383 -1.4877
 4136TIP3    H233900   6.445   5.780  11.271  0.5155  0.9473  0.9352
 4137TIP3   OH233901   2.417   3.147  15.508  0.1353 -0.1838 -0.9209
 4137TIP3    H133902   2.504   3.124  15.542 -0.3424 -1.3405 -0.4395
 4137TIP3    H233903   2.391   3.224  15.559  1.0810  0.5130 -1.4420
 4138TIP3   OH233904   2.016   0.103   4.111  0.1353 -0.0538 -0.2953
 4138TIP3    H133905   2.033   0.193   4.140  1.7086 -0.1398 -0.8633
 4138TIP3    H233906   1.930   0.082   4.148 -0.2324  1.6506 -0.0922
 4139TIP3   OH233907   1.386   3.767   4.676 -0.1977  0.0773  0.2439
 4139TIP3    H133908   1.312   3.764   4.615 -0.4570 -0.1084  0.5655
 4139TIP3    H233909   1.353   3.728   4.756  0.6981 -1.4834 -0.0936
 4140TIP3   OH233910   5.166   1.656   3.033  0.3192 -0.4548  0.3448
 4140TIP3    H133911   5.117   1.664   3.114  0.2243 -0.0668  0.2528
 4140TIP3    H233912   5.248   1.614   3.058  0.0211 -0.9302  0.5300
 4141TIP3   OH233913   2.121   0.584   3.235  0.9359  0.6091 -0.3074
 4141TIP3    H133914   2.189   0.649   3.217  1.8170 -0.1949  0.0058
 4141TIP3    H233915   2.160   0.526   3.300 -0.5879  0.9491  0.9932
 4142TIP3   OH233916   6.187   3.430  12.848 -0.3011 -0.6756  1.1976
 4142TIP3    H133917   6.146   3.343  12.847  0.9791 -1.3033  1.6009
 4142TIP3    H233918   6.172   3.464  12.760 -1.8533 -0.7878  1.3864
 4143TIP3   OH233919   2.019   4.713  13.311  0.0832  0.7621  0.0339
 4143TIP3    H133920   2.048   4.743  13.397 -0.3894 -0.9371  0.8293
 4143TIP3    H233921   1.948   4.773  13.288  0.6378  1.6330  0.5089
 4144TIP3   OH233922   1.604   6.466   3.361 -0.0981 -0.4362 -0.1041
 4144TIP3    H133923   1.598   6.466   3.266 -1.4668 -0.8578 -0.0397
 4144TIP3    H233924   1.697   6.484   3.379 -0.2689  2.4571 -1.4529
 4145TIP3   OH233925   5.638   6.283  16.773 -0.2488 -0.5875  0.0185
 4145TIP3    H133926   5.620   6.373  16.745  0.5369 -0.1121  0.9451
 4145TIP3    H233927   5.606   6.228  16.702 -0.8957  0.4202 -0.4910
 4146TIP3   OH233928   4.164   3.187   5.059  0.1611  0.2111  0.7025
 4146TIP3    H133929   4.192   3.214   4.971  0.5308 -0.4993  0.5950
 4146TIP3    H233930   4.225   3.232   5.118 -0.2673  0.9197  0.6202
 4147TIP3   OH233931   4.902   0.497   6.115 -0.1120  0.3455 -0.2114
 4147TIP3    H133932   4.931   0.427   6.056 -0.8335 -0.0214 -0.1489
 4147TIP3    H233933   4.977   0.513   6.171  0.6754  0.8678 -1.3693
 4148TIP3   OH233934   0.115   1.006  10.281 -0.5319 -0.1231 -0.1429
 4148TIP3    H133935   0.054   0.966  10.219 -0.1912  0.5619 -0.9401
 4148TIP3    H233936   0.109   1.100  10.265 -0.7351  0.1068  1.1640
 4149TIP3   OH233937   0.322   4.510  13.378  0.5333 -0.3392  0.0740
 4149TIP3    H133938   0.328   4.532  13.285 -0.5447  0.6092  0.1993
 4149TIP3    H233939   0.313   4.595  13.422 -1.5359 -0.8510  0.7964
 4150TIP3   OH233940   6.146   5.977  10.924  0.0724 -0.1781  0.0585
 4150TIP3    H133941   6.136   5.889  10.887 -2.5843  0.2580 -0.4728
 4150TIP3    H233942   6.183   6.029  10.853 -1.6510 -0.1464 -0.8669
 4151TIP3   OH233943   5.449   1.222   5.716 -0.2155  0.0228 -0.0471
 4151TIP3    H133944   5.410   1.278   5.648 -0.4975 -0.0524  0.0496
 4151TIP3    H233945   5.393   1.145   5.718 -0.7086  0.3870  0.8399
 4152TIP3   OH233946   1.652   5.995  11.826  0.1989  0.3787 -0.9403
 4152TIP3    H133947   1.716   6.044  11.774  1.3842 -0.3771 -0.2374
 4152TIP3    H233948   1.682   5.904  11.823 -0.8831 -0.0095 -0.6452
 4153TIP3   OH233949   3.240   0.760   5.363 -0.3891 -0.0478 -0.0996
 4153TIP3    H133950   3.160   0.706   5.358  0.4661 -1.2777 -1.1691
 4153TIP3    H233951   3.251   0.795   5.275  0.4092 -0.1207 -0.0361
 4154TIP3   OH233952   3.578   2.384   5.186 -0.5164  0.2108  0.0569
 4154TIP3    H133953   3.517   2.311   5.193 -1.4324  1.1007  2.2267
 4154TIP3    H233954   3.542   2.439   5.116 -0.3859 -0.8779 -0.8771
 4155TIP3   OH233955   2.141   2.208  11.550 -0.1929 -0.2036  0.5494
 4155TIP3    H133956   2.149   2.291  11.503  0.7121 -0.9450 -0.6671
 4155TIP3    H233957   2.095   2.231  11.631  0.9228  1.6597  0.7266
 4156TIP3   OH233958   5.246   2.664   5.123  0.0701 -0.6354  0.4995
 4156TIP3    H133959   5.201   2.631   5.201  0.1173  0.2113  0.8947
 4156TIP3    H233960   5.319   2.715   5.157 -0.9903  1.3201 -0.0225
 4157TIP3   OH233961   1.253   5.325   2.622  0.1477  0.3396 -0.0472
 4157TIP3    H133962   1.346   5.349   2.623 -0.0553  1.6373 -2.4823
 4157TIP3    H233963   1.251   5.234   2.652  1.7515  1.2650  3.2955
 4158TIP3   OH233964   3.452   2.514  14.759  0.0931 -0.0915 -0.1536
 4158TIP3    H133965   3.479   2.586  14.701 -2.1705  0.0497 -1.1277
 4158TIP3    H233966   3.495   2.533  14.842  1.7879  0.8322 -1.1848
 4159TIP3   OH233967   2.867   3.562   2.870 -0.1955 -0.0316 -0.4667
 4159TIP3    H133968   2.864   3.488   2.930  0.5609 -0.7497 -1.2896
 4159TIP3    H233969   2.795   3.619   2.898  0.7616  0.1779  1.7482
 4160TIP3   OH233970   4.877   5.388   3.805  0.0735 -0.5765  0.0317
 4160TIP3    H133971   4.953   5.330   3.794 -0.7898 -1.4719 -1.5939
 4160TIP3    H233972   4.882   5.449   3.732  0.5223  0.9319  1.2780
 4161TIP3   OH233973   0.345   1.436  13.680  0.5543 -0.2942 -0.3806
 4161TIP3    H133974   0.373   1.368  13.619 -1.7001 -0.4424 -1.3342
 4161TIP3    H233975   0.280   1.486  13.632  1.2647  1.8224  0.7265
 4162TIP3   OH233976   3.668   0.391  11.314 -0.0169  0.5098 -0.1018
 4162TIP3    H133977   3.688   0.484  11.302 -0.1169  0.6301  0.6557
 4162TIP3    H233978   3.644   0.361  11.226  0.1373  1.1680 -0.3770
 4163TIP3   OH233979   3.361   2.796   0.178 -0.4164 -0.1109  0.3088
 4163TIP3    H133980   3.272   2.829   0.166 -0.0517  1.5137  1.7893
 4163TIP3    H233981   3.357   2.744   0.259 -0.3912 -1.6184 -0.6077
 4164TIP3   OH233982   3.326   6.537   0.008 -0.5007 -0.3107 -0.4144
 4164TIP3    H133983   3.411   6.580   0.004 -1.1425  0.8918 -1.5944
 4164TIP3    H233984   3.291   6.543  -0.081 -2.8763  1.4418  0.5207
 4165TIP3   OH233985   0.725   1.224  15.172  0.1107 -0.7260  0.1914
 4165TIP3    H133986   0.658   1.236  15.105  1.0649 -3.1666 -1.3716
 4165TIP3    H233987   0.808   1.233  15.125  0.8098 -2.9283  0.8560
 4166TIP3   OH233988   4.592   2.468  12.258 -0.1119  0.2896  0.4205
 4166TIP3    H133989   4.507   2.469  12.214  0.9619  1.8486 -1.8118
 4166TIP3    H233990   4.654   2.444  12.190  1.4623  1.0357  1.5353
 4167TIP3   OH233991   1.181   0.016   1.902 -0.3901  0.7166  0.3937
 4167TIP3    H133992   1.150  -0.013   1.816  0.1102  0.4223  0.3052
 4167TIP3    H233993   1.142  -0.046   1.964 -2.3233  2.0678  0.5989
 4168TIP3   OH233994   1.572   5.433  11.045 -0.2171 -0.1022  0.2199
 4168TIP3    H133995   1.514   5.496  11.088 -1.4352 -0.7822 -0.3795
 4168TIP3    H233996   1.638   5.413  11.111 -0.1580  1.3248  0.6335
 4169TIP3   OH233997   5.102   4.624  15.732 -0.5556  0.2718  0.3446
 4169TIP3    H133998   5.174   4.586  15.683 -1.0381 -1.4495  0.8854
 4169TIP3    H233999   5.126   4.716  15.744  0.4615  0.2729 -1.4147
 4170TIP3   OH234000   3.883   4.568  16.662 -0.0201 -0.1104 -0.1568
 4170TIP3    H134001   3.948   4.508  16.627 -2.1475 -1.9740 -1.1816
 4170TIP3    H234002   3.851   4.616  16.586 -1.5604 -1.0440 -0.1589
 4171TIP3   OH234003   5.469   2.410  14.032 -0.2575 -0.1184  0.2946
 4171TIP3    H134004   5.394   2.363  13.995 -0.0569 -0.9316  0.8821
 4171TIP3    H234005   5.521   2.436  13.956  0.3962 -2.1667 -0.0362
 4172TIP3   OH234006   2.216   0.589  15.944  0.6635 -0.2132  0.1670
 4172TIP3    H134007   2.180   0.670  15.980  1.0972 -0.6220  1.5862
 4172TIP3    H234008   2.140   0.544  15.907  0.3160  0.5535 -0.0650
 4173TIP3   OH234009   6.610   3.410  14.116  0.5952 -0.0138  0.3794
 4173TIP3    H134010   6.590   3.412  14.023  0.8132 -1.0546  0.3003
 4173TIP3    H234011   6.699   3.444  14.122  1.3193 -1.7205 -0.0292
 4174TIP3   OH234012   3.704   2.522   1.591 -0.2496 -0.3584  0.2783
 4174TIP3    H134013   3.763   2.540   1.518  1.0450 -1.5786  0.9818
 4174TIP3    H234014   3.667   2.608   1.613  1.8102  0.6114  0.2521
 4175TIP3   OH234015   2.437   3.120   5.177  0.8150  0.0506 -0.4090
 4175TIP3    H134016   2.484   3.049   5.133  1.1544 -0.5630  0.8870
 4175TIP3    H234017   2.387   3.077   5.246 -0.2458  0.9075 -0.6205
 4176TIP3   OH234018   5.784   3.428  13.509  0.4184  1.0808 -0.2097
 4176TIP3    H134019   5.849   3.358  13.511  1.0459  1.6604  0.0066
 4176TIP3    H234020   5.702   3.385  13.536  0.7369  0.3835 -0.3167
 4177TIP3   OH234021   2.377   1.064  15.741 -0.0654 -0.2836  0.1970
 4177TIP3    H134022   2.337   1.005  15.805 -2.8096  1.1346 -0.0654
 4177TIP3    H234023   2.367   1.151  15.778  1.5849  0.2820 -0.5815
 4178TIP3   OH234024   1.930   5.822   3.081 -0.1461  0.7572  0.9242
 4178TIP3    H134025   1.961   5.829   3.172  2.8685  0.7139  0.0227
 4178TIP3    H234026   1.985   5.883   3.032 -0.1561 -0.7879 -1.1684
 4179TIP3   OH234027   0.292   4.134   5.399 -0.0230 -0.0136 -0.5516
 4179TIP3    H134028   0.340   4.154   5.479  1.1992 -0.4739 -1.1458
 4179TIP3    H234029   0.227   4.204   5.392  0.1524  0.2808  0.5911
 4180TIP3   OH234030   6.321   4.477  13.906 -0.1661 -0.5949 -0.1513
 4180TIP3    H134031   6.302   4.446  13.994 -0.6203 -0.1082 -0.0748
 4180TIP3    H234032   6.304   4.401  13.850  0.4325 -0.9975  0.2032
 4181TIP3   OH234033   5.093   6.830  16.835 -0.2303  0.1496 -0.0248
 4181TIP3    H134034   5.039   6.906  16.813 -2.4130 -1.0331  0.8774
 4181TIP3    H234035   5.035   6.773  16.885  1.0170 -2.5217 -1.3576
 4182TIP3   OH234036   2.825   3.334   3.009  0.3265  0.7582 -0.1022
 4182TIP3    H134037   2.823   3.297   3.098 -0.2095  0.0855 -0.3864
 4182TIP3    H234038   2.821   3.258   2.951  0.0365  1.2242 -0.7050
 4183TIP3   OH234039   2.112   1.558  11.656  0.4541 -0.4954 -0.2950
 4183TIP3    H134040   2.040   1.527  11.600 -0.5772 -0.2990  0.8750
 4183TIP3    H234041   2.115   1.652  11.640  0.4595 -0.5052 -0.3530
 4184TIP3   OH234042   0.849   5.097   4.473  1.0449 -0.4555  0.0482
 4184TIP3    H134043   0.939   5.130   4.472  1.7515 -2.2448 -1.9322
 4184TIP3    H234044   0.827   5.085   4.381 -0.6985 -1.4162  0.5566
 4185TIP3   OH234045   3.954   1.833   2.948  0.6817  0.5363  0.1538
 4185TIP3    H134046   3.883   1.769   2.953  0.9269  0.3462  1.3338
 4185TIP3    H234047   3.911   1.918   2.957  0.3030  0.6133 -1.8232
 4186TIP3   OH234048   4.677   1.708   2.565  0.7271 -0.2751  0.0678
 4186TIP3    H134049   4.743   1.680   2.502  0.8583 -1.8699  0.8450
 4186TIP3    H234050   4.684   1.644   2.637 -0.5959  0.4391  0.8810
 4187TIP3   OH234051   4.147   6.120  12.919 -0.4816 -0.1633 -0.2182
 4187TIP3    H134052   4.148   6.176  12.842  0.2701 -0.9667 -0.8017
 4187TIP3    H234053   4.192   6.172  12.986 -0.8336  0.3965 -0.4026
 4188TIP3   OH234054   2.529   0.937   1.053 -0.2914  0.7036 -0.2075
 4188TIP3    H134055   2.583   0.990   0.994 -0.0651  0.3919 -0.2825
 4188TIP3    H234056   2.542   0.976   1.139  0.5161  0.2706 -0.1280
 4189TIP3   OH234057   4.757   0.510  15.271 -0.4622  0.1012 -0.3310
 4189TIP3    H134058   4.795   0.539  15.187 -1.4758  0.7662 -0.5819
 4189TIP3    H234059   4.754   0.415  15.264  2.4036 -0.1100  0.2642
 4190TIP3   OH234060   1.153   1.457   0.522 -0.6626  0.1683  0.2726
 4190TIP3    H134061   1.117   1.522   0.463  1.9076 -0.3421 -2.0493
 4190TIP3    H234062   1.083   1.391   0.531 -0.8618 -0.2483 -3.1131
 4191TIP3   OH234063   2.842   0.001   4.057 -0.0199 -0.2331 -0.5350
 4191TIP3    H134064   2.870   0.020   4.147 -0.3994 -0.7630 -0.2998
 4191TIP3    H234065   2.858   0.083   4.009 -1.6219  0.6910  0.4396
 4192TIP3   OH234066   5.010   3.299  12.854 -0.3534  0.0856  0.6393
 4192TIP3    H134067   5.061   3.254  12.787 -1.7351  1.0494 -1.1298
 4192TIP3    H234068   4.924   3.257  12.852 -1.2137  1.7859 -0.0470
 4193TIP3   OH234069   4.578   0.985   3.745  0.5295 -0.3800 -0.3941
 4193TIP3    H134070   4.549   0.896   3.765  0.5438 -0.0548  1.2921
 4193TIP3    H234071   4.640   1.006   3.815 -1.3415  1.8088  0.7349
 4194TIP3   OH234072   3.705   6.514   3.664 -0.1389  0.1510  0.1100
 4194TIP3    H134073   3.670   6.468   3.740 -1.5224  0.6974 -0.1632
 4194TIP3    H234074   3.656   6.597   3.661  1.7102  1.2970  0.1128
 4195TIP3   OH234075   6.318   1.027   2.342  0.3833  0.2309 -0.6900
 4195TIP3    H134076   6.404   1.054   2.373 -0.1418  0.8842  0.2377
 4195TIP3    H234077   6.257   1.088   2.383 -0.5955 -0.7008 -0.6994
 4196TIP3   OH234078   0.682   5.497   4.969 -0.0362 -0.6779  0.2458
 4196TIP3    H134079   0.711   5.583   4.938  0.5026 -0.7231  0.6097
 4196TIP3    H234080   0.632   5.516   5.049 -0.1416 -0.6793  0.1797
 4197TIP3   OH234081   4.913   5.448   0.613 -0.4228  0.0309 -0.2714
 4197TIP3    H134082   4.978   5.475   0.547 -1.4641 -0.1187 -1.3841
 4197TIP3    H234083   4.891   5.358   0.590 -0.9885  0.0598  0.1316
 4198TIP3   OH234084   1.021   6.515   4.286  0.3221  0.1610 -0.5839
 4198TIP3    H134085   1.022   6.546   4.196 -1.8747 -0.5673 -0.9289
 4198TIP3    H234086   1.061   6.428   4.282 -0.2516 -0.0879 -0.9600
 4199TIP3   OH234087   0.172   3.317  15.995 -0.0502 -0.1622  0.3997
 4199TIP3    H134088   0.219   3.377  16.053  1.6039 -0.3057 -0.7359
 4199TIP3    H234089   0.239   3.284  15.936 -1.4006 -1.2670 -0.5566
 4200TIP3   OH234090   4.153   3.506  13.254  0.0936 -0.0257 -0.1634
 4200TIP3    H134091   4.179   3.472  13.340  0.5769  0.9478  0.0926
 4200TIP3    H234092   4.067   3.467  13.238  0.5414 -1.1819  0.1973
 4201TIP3   OH234093   3.753   2.116  16.822 -0.1128  0.6008  0.3728
 4201TIP3    H134094   3.726   2.111  16.914 -0.3047  0.9097  0.3352
 4201TIP3    H234095   3.771   2.025  16.798  0.1803  0.5443  0.7865
 4202TIP3   OH234096   2.417   0.787  16.082 -0.1798  0.0880  0.0559
 4202TIP3    H134097   2.388   0.877  16.066 -0.6726 -0.0577  0.1208
 4202TIP3    H234098   2.499   0.796  16.129 -0.4273  0.5040  0.4073
 4203TIP3   OH234099   2.472   0.733  16.630 -0.0561 -0.6425 -0.0141
 4203TIP3    H134100   2.560   0.758  16.660 -0.1362 -0.7509  0.3130
 4203TIP3    H234101   2.413   0.790  16.679 -0.2906 -1.9538  1.2900
 4204TIP3   OH234102   4.231   4.380   4.847  0.5119  0.5743 -0.3494
 4204TIP3    H134103   4.160   4.357   4.788 -1.1667 -2.3586  2.4818
 4204TIP3    H234104   4.204   4.462   4.887 -0.9922 -0.1722  0.2083
 4205TIP3   OH234105   4.779   2.853  13.989  0.0539 -0.3466  0.4458
 4205TIP3    H134106   4.756   2.765  14.019 -2.3410  0.1825  0.3607
 4205TIP3    H234107   4.789   2.904  14.070 -1.1839 -0.1350  0.4927
 4206TIP3   OH234108   4.888   3.095  16.265 -0.0967 -0.1773 -0.2879
 4206TIP3    H134109   4.980   3.100  16.291 -0.0670  1.6126 -0.6064
 4206TIP3    H234110   4.845   3.163  16.316 -1.1915 -0.7765 -0.3876
 4207TIP3   OH234111   0.794   5.378   2.814 -0.6370 -0.1813  0.1583
 4207TIP3    H134112   0.865   5.443   2.813 -0.0269 -0.8309 -1.3142
 4207TIP3    H234113   0.715   5.430   2.802 -0.4948  0.6035  2.2629
 4208TIP3   OH234114   5.726   3.245   4.971  0.1087  0.3856 -0.3608
 4208TIP3    H134115   5.662   3.246   5.042 -0.1218  1.6246 -0.5721
 4208TIP3    H234116   5.729   3.335   4.940  0.8068  0.0208 -1.3958
 4209TIP3   OH234117   0.726   2.722  10.821  0.5011  0.6197 -0.4167
 4209TIP3    H134118   0.711   2.784  10.893 -0.8395  2.1390 -1.9264
 4209TIP3    H234119   0.772   2.649  10.862 -0.8648  1.0736  2.1615
 4210TIP3   OH234120   0.979   2.247   4.506 -0.1653 -0.3396 -0.0578
 4210TIP3    H134121   1.043   2.286   4.566  0.1021  0.6869 -0.9703
 4210TIP3    H234122   0.960   2.162   4.544  0.3127  0.1084  1.2516
 4211TIP3   OH234123   6.232   1.721  11.442  0.5658 -0.1889 -0.2119
 4211TIP3    H134124   6.250   1.684  11.356 -1.6349 -1.2426 -0.2799
 4211TIP3    H234125   6.137   1.718  11.450  0.5953  1.5626  1.5443
 4212TIP3   OH234126   5.162   4.246  11.703  0.1992 -0.4508 -0.7205
 4212TIP3    H134127   5.158   4.256  11.798  1.0822  1.3937 -0.8352
 4212TIP3    H234128   5.236   4.186  11.689 -1.0472 -2.1956 -0.2286
 4213TIP3   OH234129   4.403   5.180  13.175  0.7533  0.0592 -0.1006
 4213TIP3    H134130   4.344   5.251  13.201 -0.2028 -0.3668 -1.0269
 4213TIP3    H234131   4.389   5.113  13.242 -0.7773 -0.5415 -0.9797
 4214TIP3   OH234132   1.111   1.729  12.603  0.2699 -0.2231 -0.3719
 4214TIP3    H134133   1.130   1.717  12.696  1.3516  0.7778 -0.4448
 4214TIP3    H234134   1.016   1.743  12.599 -0.2718 -3.0873  0.2580
 4215TIP3   OH234135   4.764   3.316   1.128  0.0049 -0.4569  0.2714
 4215TIP3    H134136   4.859   3.328   1.134  0.0284 -0.8675  0.8433
 4215TIP3    H234137   4.729   3.405   1.120  0.6192 -0.4084 -3.6327
 4216TIP3   OH234138   3.877   2.543   0.535  0.2426 -0.5840 -0.0558
 4216TIP3    H134139   3.873   2.454   0.501 -0.3630 -0.8536  0.7083
 4216TIP3    H234140   3.823   2.594   0.475 -1.2531 -1.1555  0.7472
 4217TIP3   OH234141   3.016   0.209   5.240  0.1478  0.0999  0.1222
 4217TIP3    H134142   3.000   0.130   5.291  1.5115 -1.4340 -1.6742
 4217TIP3    H234143   2.929   0.239   5.214 -0.4344 -3.1492 -2.3948
 4218TIP3   OH234144   6.804   4.374  17.073 -0.5404 -0.2503 -0.2391
 4218TIP3    H134145   6.834   4.420  17.151  0.3591 -0.6591 -0.3329
 4218TIP3    H234146   6.850   4.417  17.001 -1.7882  0.4983 -0.6279
 4219TIP3   OH234147   1.831   5.750  13.785 -0.3105 -0.3071 -0.0360
 4219TIP3    H134148   1.895   5.821  13.781  0.3649 -0.9200 -3.2309
 4219TIP3    H234149   1.861   5.687  13.719 -3.2507 -1.4724 -0.4292
 4220TIP3   OH234150   5.834   6.645   5.030 -0.9905  0.2467 -0.7423
 4220TIP3    H134151   5.834   6.668   5.123  1.3392 -1.1845 -0.3120
 4220TIP3    H234152   5.760   6.584   5.021 -0.6081 -0.4271  0.4283
 4221TIP3   OH234153   6.303   3.682  11.480  0.5535 -0.3607 -0.1116
 4221TIP3    H134154   6.247   3.612  11.516  2.3084 -1.0215  1.4751
 4221TIP3    H234155   6.251   3.719  11.409 -0.0349 -4.0501 -1.8487
 4222TIP3   OH234156   1.889   6.186   1.233  0.1921 -0.6084 -0.4081
 4222TIP3    H134157   1.806   6.168   1.277  0.0790 -0.2588 -0.4739
 4222TIP3    H234158   1.923   6.100   1.208  0.1263 -0.7931  0.1265
 4223TIP3   OH234159   5.041   0.360   5.912  0.1963  0.3417  0.3597
 4223TIP3    H134160   5.125   0.324   5.939  1.3116  2.0449 -0.6325
 4223TIP3    H234161   5.000   0.290   5.860  1.9262  0.1738 -0.8572
 4224TIP3   OH234162   1.270   6.672  13.371  0.3836  0.2783  0.5024
 4224TIP3    H134163   1.268   6.673  13.467  0.2526 -0.4593  0.5148
 4224TIP3    H234164   1.229   6.588  13.347 -1.0730  1.1536 -0.2378
 4225TIP3   OH234165   0.658   5.386   1.296  0.0085 -0.1615  0.7881
 4225TIP3    H134166   0.708   5.331   1.356  1.2215  1.3554  1.2365
 4225TIP3    H234167   0.566   5.370   1.319  0.3456 -1.5010  1.2931
 4226TIP3   OH234168   3.774   4.340   5.283 -0.0105  0.2903  0.4412
 4226TIP3    H134169   3.845   4.368   5.341  0.5343 -0.7584  0.3027
 4226TIP3    H234170   3.717   4.288   5.340 -0.2097  0.4144  0.3543
 4227TIP3   OH234171   6.109   1.990   5.510  0.1634 -0.1183  0.2427
 4227TIP3    H134172   6.110   2.076   5.551 -1.2098 -1.1592  2.6502
 4227TIP3    H234173   6.187   1.946   5.543  0.0598 -0.3037  0.2456
 4228TIP3   OH234174   5.910   1.263  11.850 -0.0973 -0.2710 -0.3598
 4228TIP3    H134175   5.957   1.186  11.819  0.2731 -0.0778 -0.2870
 4228TIP3    H234176   5.928   1.330  11.784  0.1385 -0.0538 -0.0752
 4229TIP3   OH234177   4.597   5.756   0.547 -0.1693 -0.1360  0.1725
 4229TIP3    H134178   4.638   5.710   0.620 -0.8831 -0.6239  0.2796
 4229TIP3    H234179   4.505   5.766   0.574  0.0008  1.5227  0.2364
 4230TIP3   OH234180   1.000   1.194   4.867  0.0550  0.4415 -0.2968
 4230TIP3    H134181   0.948   1.257   4.817 -0.3530  1.0227  0.8241
 4230TIP3    H234182   1.079   1.242   4.891 -0.8079  1.0002  1.6425
 4231TIP3   OH234183   4.848   0.108   0.512 -0.2673 -0.3134  0.0706
 4231TIP3    H134184   4.939   0.132   0.526  0.0057 -1.4219  0.3035
 4231TIP3    H234185   4.801   0.191   0.510  0.4561  0.2160  2.1172
 4232TIP3   OH234186   1.449   0.013   1.898  0.2486 -0.1682  0.1453
 4232TIP3    H134187   1.356   0.008   1.923  0.2398 -1.0114 -0.0058
 4232TIP3    H234188   1.448   0.012   1.803  0.3540  1.4855  0.0957
 4233TIP3   OH234189   0.131   5.952   0.493  0.3685  0.4018  0.4643
 4233TIP3    H134190   0.199   5.890   0.465 -0.9483 -0.1126 -1.8218
 4233TIP3    H234191   0.126   5.940   0.588  1.5167 -1.5564  0.3473
 4234TIP3   OH234192   6.323   0.435  12.042  0.0075  0.2817 -0.0813
 4234TIP3    H134193   6.293   0.345  12.034  0.9923 -0.0218 -0.4953
 4234TIP3    H234194   6.281   0.467  12.122 -2.2097  0.2287 -1.1475
 4235TIP3   OH234195   5.874   4.630   0.081 -0.6595  0.4008  0.0242
 4235TIP3    H134196   5.811   4.570   0.122 -0.7529 -0.5062 -1.3928
 4235TIP3    H234197   5.834   4.653  -0.003 -1.1330  3.3518  0.9468
 4236TIP3   OH234198   1.312   1.384  11.928 -0.8206  0.0585  0.0822
 4236TIP3    H134199   1.286   1.295  11.950  0.2794  0.0263  1.3642
 4236TIP3    H234200   1.317   1.429  12.013  3.4413 -0.0183  0.0571
 4237TIP3   OH234201   1.671   6.385  11.543 -0.2093 -0.6099 -0.1826
 4237TIP3    H134202   1.664   6.449  11.472 -0.6169 -0.8602 -0.3740
 4237TIP3    H234203   1.700   6.436  11.618  1.8164 -0.6262 -0.9047
 4238TIP3   OH234204   2.191   2.103  15.929  0.5666  0.1694 -0.3876
 4238TIP3    H134205   2.273   2.112  15.977  0.3694 -0.0573  0.0039
 4238TIP3    H234206   2.146   2.186  15.942 -0.0759 -0.3551  0.9676
 4239TIP3   OH234207   0.552   0.445  11.105  0.7529 -0.2147  0.0449
 4239TIP3    H134208   0.458   0.437  11.087  1.1515  0.3518 -2.5343
 4239TIP3    H234209   0.561   0.531  11.145  0.1750 -0.3449  0.4815
 4240TIP3   OH234210   4.586   5.125  12.977  0.5807 -0.2929 -0.5691
 4240TIP3    H134211   4.540   5.199  12.937  0.3381  0.1325  0.4658
 4240TIP3    H234212   4.617   5.159  13.060 -0.3872 -1.6244  0.3725
 4241TIP3   OH234213   6.267   1.446  16.137 -0.7042  0.2849  0.4790
 4241TIP3    H134214   6.279   1.494  16.219 -1.7708  1.1453  0.1527
 4241TIP3    H234215   6.205   1.499  16.088  0.2596  0.0123 -1.0801
 4242TIP3   OH234216   3.927   0.979  13.202  0.1981 -0.3314  0.2234
 4242TIP3    H134217   3.982   1.049  13.168  1.4062 -1.3778 -0.0426
 4242TIP3    H234218   3.988   0.910  13.227 -0.9886 -1.5111 -0.0252
 4243TIP3   OH234219   3.123   3.211  14.284  0.2552  0.3417  0.1709
 4243TIP3    H134220   3.195   3.252  14.236  0.4645 -1.2933 -0.9903
 4243TIP3    H234221   3.048   3.220  14.226 -0.0121  0.2885  0.5089
 4244TIP3   OH234222   4.950   0.543   2.385  0.0622  0.1127  0.6937
 4244TIP3    H134223   4.994   0.605   2.444 -0.7022  0.4187  0.9485
 4244TIP3    H234224   4.961   0.581   2.298  0.7921 -0.1057  0.6816
 4245TIP3   OH234225   4.671   1.077  12.047 -0.2872  0.1570  0.0946
 4245TIP3    H134226   4.575   1.074  12.048 -0.2698 -1.3654  0.6168
 4245TIP3    H234227   4.696   1.082  12.140  0.1408  0.9352 -0.0572
 4246TIP3   OH234228   1.228   0.996   2.627 -0.5056  0.0502 -0.4244
 4246TIP3    H134229   1.167   1.068   2.647  2.4135  2.8251 -0.7884
 4246TIP3    H234230   1.298   1.006   2.691  1.7335 -0.2114 -2.7163
 4247TIP3   OH234231   0.638   6.486  13.866 -0.5493 -0.1500  0.3683
 4247TIP3    H134232   0.546   6.495  13.842  0.1964  0.6403 -2.5722
 4247TIP3    H234233   0.680   6.565  13.832  1.4015 -1.0284  0.5879
 4248TIP3   OH234234   2.228   5.699   4.221  0.3469 -0.1575 -0.1567
 4248TIP3    H134235   2.315   5.675   4.187  0.3842  0.2359 -0.3507
 4248TIP3    H234236   2.183   5.736   4.145 -0.7604 -2.3067 -0.6047
 4249TIP3   OH234237   2.219   4.947  11.718  0.0155  0.0769 -0.6982
 4249TIP3    H134238   2.292   5.009  11.717 -1.1624  1.5626  0.1038
 4249TIP3    H234239   2.147   4.994  11.677 -0.6936 -1.0971 -0.8453
 4250TIP3   OH234240   3.338   6.139  11.257  0.3305 -0.0896 -0.1642
 4250TIP3    H134241   3.383   6.223  11.261  0.7982 -0.1260 -2.7461
 4250TIP3    H234242   3.338   6.107  11.347  1.6168  1.9038  0.6032
 4251TIP3   OH234243   6.553   3.727   3.326  0.2359 -0.3099 -0.4054
 4251TIP3    H134244   6.488   3.740   3.257 -0.9841  0.8948  0.9049
 4251TIP3    H234245   6.627   3.783   3.300 -0.1538  0.0272 -0.7931
 4252TIP3   OH234246   6.481   1.788   4.346 -0.5811 -0.4094  0.2729
 4252TIP3    H134247   6.424   1.809   4.272 -0.3145  1.5631  0.5838
 4252TIP3    H234248   6.449   1.843   4.417  0.8521 -0.2800  0.8466
 4253TIP3   OH234249   0.134   1.276  11.266  0.5836 -0.2044  0.0045
 4253TIP3    H134250   0.181   1.255  11.186  0.9791 -0.1305  0.2149
 4253TIP3    H234251   0.041   1.271  11.242  0.6986 -0.3628 -0.4076
 4254TIP3   OH234252   5.565   4.242  16.747  0.2734 -0.4449 -0.1400
 4254TIP3    H134253   5.517   4.172  16.702 -0.5415  0.5913 -0.9274
 4254TIP3    H234254   5.572   4.212  16.838 -1.1318 -1.0014 -0.1988
 4255TIP3   OH234255   4.259   5.139  15.197  0.0820  0.3035 -0.0121
 4255TIP3    H134256   4.206   5.078  15.146 -0.7324  0.7529  0.2729
 4255TIP3    H234257   4.344   5.095  15.208 -1.0787 -1.6808  1.9020
 4256TIP3   OH234258   4.055   6.013  14.009 -0.3879  0.7780 -0.0915
 4256TIP3    H134259   4.129   6.001  13.950  0.0580  0.0244  0.6041
 4256TIP3    H234260   4.000   5.936  13.994  0.9418 -0.7268  2.1756
 4257TIP3   OH234261   6.582   0.669   3.029 -0.3824  0.3438 -0.2550
 4257TIP3    H134262   6.586   0.712   2.944 -0.0626 -0.1325 -0.4840
 4257TIP3    H234263   6.488   0.659   3.047 -0.4787  1.6202  0.0555
 4258TIP3   OH234264   5.629   5.644   5.752  0.3557  0.0629 -0.4710
 4258TIP3    H134265   5.606   5.709   5.818  0.5507  1.9387 -2.1782
 4258TIP3    H234266   5.697   5.590   5.794 -0.6107  0.2056  1.3672
 4259TIP3   OH234267   0.575   0.836  16.152  0.2099 -0.0909  0.0245
 4259TIP3    H134268   0.599   0.904  16.214 -1.0559 -0.3932  0.8853
 4259TIP3    H234269   0.487   0.860  16.123 -0.5359 -1.6761  0.8444
 4260TIP3   OH234270   0.484   5.087  14.778 -0.2906 -0.1717  0.4266
 4260TIP3    H134271   0.528   5.163  14.740  2.1488 -1.6884  0.0027
 4260TIP3    H234272   0.391   5.110  14.777  0.2842  2.4444 -0.4280
 4261TIP3   OH234273   4.046   4.501  14.232  0.5236  0.0157 -0.6250
 4261TIP3    H134274   4.016   4.583  14.270  0.4735 -0.4182  0.2964
 4261TIP3    H234275   4.104   4.527  14.160 -0.0753  0.8499 -0.8214
 4262TIP3   OH234276   2.741   2.450   3.851  0.1264 -0.6038  0.2531
 4262TIP3    H134277   2.774   2.498   3.927 -0.3230 -2.5219  1.7404
 4262TIP3    H234278   2.646   2.464   3.854  0.0551 -1.0852  0.3569
 4263TIP3   OH234279   5.711   0.871   5.158 -0.1713  0.6269 -0.3692
 4263TIP3    H134280   5.755   0.790   5.130  1.0923  0.6791  1.2866
 4263TIP3    H234281   5.777   0.939   5.145 -0.3085  0.9671  0.6699
 4264TIP3   OH234282   2.649   4.871  14.737  0.3746 -0.1364  0.4500
 4264TIP3    H134283   2.740   4.853  14.762  1.3832  1.4781 -1.7656
 4264TIP3    H234284   2.598   4.840  14.812  2.8889  1.4446  3.0680
 4265TIP3   OH234285   4.030   4.400  11.614  0.4344 -0.2776 -0.1110
 4265TIP3    H134286   4.115   4.383  11.573  1.1853 -0.2620  1.3932
 4265TIP3    H234287   3.994   4.312  11.629  0.5229 -0.3005 -0.0350
 4266TIP3   OH234288   0.537   3.718  13.520  0.1318  0.2495 -0.0515
 4266TIP3    H134289   0.474   3.780  13.555 -0.8516 -1.8646  2.2043
 4266TIP3    H234290   0.609   3.719  13.583  0.5830 -0.1436 -0.5508
 4267TIP3   OH234291   5.940   0.268  10.380 -0.3433  0.4299  0.0291
 4267TIP3    H134292   6.033   0.287  10.390 -0.1474 -0.4146 -0.1091
 4267TIP3    H234293   5.930   0.178  10.411 -1.2831  0.8150  0.9105
 4268TIP3   OH234294   6.652   2.929   5.679 -0.3096  0.5831 -0.0273
 4268TIP3    H134295   6.729   2.885   5.640  0.1276 -0.8509  2.2586
 4268TIP3    H234296   6.660   3.020   5.650  0.4681 -0.1586 -2.4418
 4269TIP3   OH234297   0.830   3.823  16.829  0.3736  0.1821 -0.6902
 4269TIP3    H134298   0.860   3.914  16.831  0.1282  0.2719 -0.9752
 4269TIP3    H234299   0.807   3.803  16.919  1.7820 -0.0599 -0.3533
 4270TIP3   OH234300   5.493   4.212   2.421  0.1903  0.0528  0.3755
 4270TIP3    H134301   5.500   4.306   2.406  1.3585 -0.2571 -1.3221
 4270TIP3    H234302   5.403   4.190   2.395  0.5162  0.4167 -1.1373
 4271TIP3   OH234303   5.030   4.234  16.921 -0.3965  0.3392  0.1119
 4271TIP3    H134304   5.068   4.320  16.901 -1.0363  0.5481 -0.2689
 4271TIP3    H234305   5.041   4.224  17.015  1.4671 -0.0500 -0.1173
 4272TIP3   OH234306   3.503   2.880  11.846  0.0873 -0.3376  0.3458
 4272TIP3    H134307   3.409   2.875  11.830  0.2684 -0.6611 -0.6886
 4272TIP3    H234308   3.526   2.971  11.825  0.3031 -0.7268 -1.2697
 4273TIP3   OH234309   4.604   5.429   3.834 -0.0488  0.6102 -0.0284
 4273TIP3    H134310   4.618   5.519   3.803  1.7597  1.3048  2.5158
 4273TIP3    H234311   4.686   5.384   3.816 -1.2029 -0.9155 -2.0531
 4274TIP3   OH234312   5.225   1.400  16.988 -0.1906  0.4574  0.6410
 4274TIP3    H134313   5.259   1.473  17.039 -0.7417  1.9907 -1.0781
 4274TIP3    H234314   5.213   1.436  16.900 -1.0822 -1.5376 -0.1061
 4275TIP3   OH234315   1.572   5.420  17.090  0.3015 -0.7674  0.2617
 4275TIP3    H134316   1.532   5.497  17.050  1.0600  0.7712  2.2852
 4275TIP3    H234317   1.610   5.372  17.017 -0.6669  0.4756 -1.1288
 4276TIP3   OH234318   2.139   0.195   3.295 -0.3798 -0.1607 -0.0818
 4276TIP3    H134319   2.074   0.223   3.230 -0.5459 -0.4044 -0.0223
 4276TIP3    H234320   2.223   0.204   3.251 -0.5455 -1.0902 -0.6097
 4277TIP3   OH234321   3.308   6.269   4.772 -0.2889  0.1693 -0.3067
 4277TIP3    H134322   3.343   6.200   4.715  1.5358 -0.9547  1.9561
 4277TIP3    H234323   3.343   6.350   4.736  0.0369 -0.4002 -1.3152
 4278TIP3   OH234324   0.430   0.280  16.068  0.1122 -0.6575  0.1062
 4278TIP3    H134325   0.496   0.349  16.076  0.8796 -1.2768 -0.6589
 4278TIP3    H234326   0.354   0.324  16.030 -1.2485  0.8532  4.1168
 4279TIP3   OH234327   4.724   0.136   5.136  0.0052 -0.8032 -0.2898
 4279TIP3    H134328   4.667   0.080   5.082  0.3405 -1.0222 -0.4171
 4279TIP3    H234329   4.683   0.134   5.222 -0.6039 -0.3541 -0.5589
 4280TIP3   OH234330   3.575   5.486   5.138 -0.0807 -0.4346 -0.0980
 4280TIP3    H134331   3.518   5.467   5.212  0.0099 -1.0057 -0.1658
 4280TIP3    H234332   3.658   5.512   5.176  0.3521 -1.9000  0.0258
 4281TIP3   OH234333   4.429   2.648  10.836  0.3939 -0.1868  0.3454
 4281TIP3    H134334   4.369   2.685  10.901  0.6772  0.4771  0.2326
 4281TIP3    H234335   4.516   2.662  10.872  0.5649  0.3689 -0.2625
 4282TIP3   OH234336   4.908   6.713   4.755  0.2178 -0.1107  0.1375
 4282TIP3    H134337   4.998   6.712   4.788  0.0019 -1.8409  0.7741
 4282TIP3    H234338   4.904   6.641   4.692 -0.4431  0.6542 -0.7267
 4283TIP3   OH234339   3.900   5.648  13.507  0.1022  0.4918  0.7123
 4283TIP3    H134340   3.994   5.630  13.499  0.1806  0.7024  1.1218
 4283TIP3    H234341   3.883   5.716  13.442  0.0416 -0.2011 -0.0131
 4284TIP3   OH234342   1.832   6.831  15.258 -0.0536  0.0218  0.2808
 4284TIP3    H134343   1.907   6.836  15.317  0.8983  3.2934 -0.9859
 4284TIP3    H234344   1.850   6.755  15.202  1.7407  0.0635  0.7413
 4285TIP3   OH234345   3.033   5.313  16.115 -0.3211  0.2476  0.3764
 4285TIP3    H134346   3.113   5.299  16.064 -1.0730 -0.8428 -0.5688
 4285TIP3    H234347   3.059   5.295  16.206  0.5338  0.0444  0.1024
 4286TIP3   OH234348   0.194   2.478   5.484 -0.3762 -0.2789  0.1616
 4286TIP3    H134349   0.259   2.530   5.437  0.0198 -0.4793  0.4930
 4286TIP3    H234350   0.110   2.507   5.447 -0.0079 -1.4255 -1.6917
 4287TIP3   OH234351   2.856   3.791   6.452 -0.0770 -0.5042 -0.3467
 4287TIP3    H134352   2.776   3.842   6.463  1.0617  1.1476  0.6583
 4287TIP3    H234353   2.855   3.765   6.360 -0.8052  1.1681 -0.8411
 4288TIP3   OH234354   4.975   5.435   5.025  0.2848  0.3263 -0.0277
 4288TIP3    H134355   4.945   5.479   5.104  0.6674 -2.1569  1.6279
 4288TIP3    H234356   4.984   5.343   5.051  1.8659 -0.3358 -2.5519
 4289TIP3   OH234357   5.001   3.357  13.498  0.7589 -0.4289  0.4056
 4289TIP3    H134358   4.956   3.286  13.545  0.2434 -0.6823 -0.4575
 4289TIP3    H234359   5.042   3.409  13.568 -3.4052  1.6543  1.5694
 4290TIP3   OH234360   2.766   3.639   3.492 -0.3432 -0.1715 -0.2460
 4290TIP3    H134361   2.808   3.556   3.512  0.3403  0.1895 -0.1334
 4290TIP3    H234362   2.708   3.620   3.418 -0.9841 -0.9610  0.4580
 4291TIP3   OH234363   6.632   4.759   6.442 -0.0844 -0.9859 -0.5425
 4291TIP3    H134364   6.604   4.685   6.389 -3.1195 -0.4446  0.1477
 4291TIP3    H234365   6.619   4.835   6.386 -1.6213 -0.5725  0.3334
 4292TIP3   OH234366   5.444   1.235   0.308  0.1834  0.1699 -0.4918
 4292TIP3    H134367   5.462   1.142   0.322  0.5725  0.1800 -0.9103
 4292TIP3    H234368   5.348   1.240   0.303  0.1447 -0.1566 -0.1348
 4293TIP3   OH234369   3.182   1.376  14.926  0.2900 -0.0458  0.4339
 4293TIP3    H134370   3.262   1.362  14.977  1.3005  2.9913 -0.1611
 4293TIP3    H234371   3.118   1.406  14.990  0.2153 -0.5018  0.5807
 4294TIP3   OH234372   4.078   4.765   1.189 -0.3056 -0.5351 -0.5745
 4294TIP3    H134373   4.103   4.673   1.186 -0.7214 -0.6348 -1.1890
 4294TIP3    H234374   4.032   4.780   1.106 -0.1868  0.2384 -0.5074
 4295TIP3   OH234375   4.785   5.194  14.169 -0.4430 -0.3449 -0.1856
 4295TIP3    H134376   4.704   5.209  14.121 -0.2369 -0.4908 -0.5786
 4295TIP3    H234377   4.761   5.207  14.261 -0.3584  2.1551 -0.4340
 4296TIP3   OH234378   4.975   4.684   0.327 -0.1677 -0.4224 -0.5793
 4296TIP3    H134379   4.974   4.660   0.234 -1.5874  2.0073 -1.2875
 4296TIP3    H234380   5.059   4.729   0.339 -0.0085 -0.6847 -0.7194
 4297TIP3   OH234381   4.345   1.768   0.140  0.4759  0.4247  0.4984
 4297TIP3    H134382   4.382   1.681   0.157  0.4516  0.4360  0.6092
 4297TIP3    H234383   4.420   1.828   0.145  0.7988  0.2146 -1.2435
 4298TIP3   OH234384   6.806   6.050  16.829  0.2121  0.6283  0.3992
 4298TIP3    H134385   6.836   6.118  16.890  1.3450  0.3068  0.2079
 4298TIP3    H234386   6.724   6.018  16.869  0.4718  1.0320  1.2917
 4299TIP3   OH234387   0.031   6.056  11.604 -0.6536  0.8786 -0.2028
 4299TIP3    H134388  -0.007   6.014  11.681  0.3623 -0.6664 -0.4919
 4299TIP3    H234389  -0.044   6.084  11.553 -1.3635  0.5627  0.6362
 4300TIP3   OH234390   2.630   1.917   2.745 -0.2765 -0.5572 -0.5651
 4300TIP3    H134391   2.599   2.001   2.711  0.5959  0.1016  0.1972
 4300TIP3    H234392   2.566   1.894   2.812  1.0414  1.0488  1.3608
 4301TIP3   OH234393   0.684   3.790  12.884 -0.3051  0.1400  0.9018
 4301TIP3    H134394   0.695   3.868  12.829 -0.2217  0.0788  0.8322
 4301TIP3    H234395   0.589   3.776  12.886 -0.2804 -0.1214  0.4094
 4302TIP3   OH234396   4.691   0.847   5.317  0.1707 -0.1388  0.1827
 4302TIP3    H134397   4.612   0.890   5.284 -0.7220 -0.3925  1.8447
 4302TIP3    H234398   4.669   0.826   5.408  1.5798 -1.6750  0.1967
 4303TIP3   OH234399   2.148   2.201   2.691  0.0221 -0.1153 -0.1659
 4303TIP3    H134400   2.218   2.215   2.754 -0.6326  2.2511  0.1308
 4303TIP3    H234401   2.068   2.222   2.739 -0.5814  0.6165 -1.4318
 4304TIP3   OH234402   3.801   4.319  11.433  0.1826 -0.0411  0.1950
 4304TIP3    H134403   3.867   4.269  11.385 -0.1462  0.3928 -0.7294
 4304TIP3    H234404   3.835   4.408  11.436  0.7205 -0.2725  1.7610
 4305TIP3   OH234405   0.710   6.098   2.356  0.4205 -0.1646  0.4183
 4305TIP3    H134406   0.617   6.103   2.380  0.3490  2.3256 -0.1027
 4305TIP3    H234407   0.736   6.189   2.342  1.8149 -0.9930 -3.7630
 4306TIP3   OH234408   4.339   5.509  16.741  0.3753 -0.1202 -0.6031
 4306TIP3    H134409   4.310   5.418  16.742 -1.9173  0.4542  2.6422
 4306TIP3    H234410   4.423   5.507  16.786 -0.2989 -0.5486  0.6990
 4307TIP3   OH234411   0.439   0.494  14.157 -0.1470  0.1048  0.2987
 4307TIP3    H134412   0.366   0.554  14.166 -2.1548 -2.0566 -0.6441
 4307TIP3    H234413   0.516   0.546  14.182 -1.7663  2.8964 -0.0955
 4308TIP3   OH234414   1.414   6.317  14.748 -0.0094 -0.2257 -0.4282
 4308TIP3    H134415   1.419   6.372  14.826 -1.1083  2.2320 -1.9570
 4308TIP3    H234416   1.321   6.320  14.723  0.1937 -1.5310 -1.4441
 4309TIP3   OH234417   4.602   3.012  16.302  0.3754 -0.2042 -0.7709
 4309TIP3    H134418   4.579   3.085  16.244 -0.9298 -0.8924 -1.1667
 4309TIP3    H234419   4.697   3.012  16.304  0.4115  1.5642 -0.6835
 4310TIP3   OH234420   5.655   3.549   2.361 -0.0367  0.3006  0.3368
 4310TIP3    H134421   5.718   3.579   2.295 -0.3487 -0.0091 -0.1089
 4310TIP3    H234422   5.624   3.464   2.327  1.2023 -0.7950  1.7944
 4311TIP3   OH234423   4.384   0.665  13.878  0.4189 -0.4433  0.1815
 4311TIP3    H134424   4.400   0.749  13.922  1.7346 -0.3339 -0.4382
 4311TIP3    H234425   4.416   0.679  13.789 -0.1626 -1.3457 -0.1814
 4312TIP3   OH234426   0.733   5.813   4.132 -0.0625 -0.0099 -0.0507
 4312TIP3    H134427   0.712   5.755   4.059  0.8705 -0.2806 -0.1166
 4312TIP3    H234428   0.825   5.794   4.152  0.5645  2.0711 -0.6656
 4313TIP3   OH234429   3.365   4.549   3.010 -0.2630  0.9657  0.0617
 4313TIP3    H134430   3.342   4.625   3.062 -0.7178  0.6566  0.3204
 4313TIP3    H234431   3.436   4.579   2.953 -1.3225  1.9394 -0.7840
 4314TIP3   OH234432   3.531   3.587  11.651  0.0630  0.4520  0.0352
 4314TIP3    H134433   3.611   3.612  11.606  0.5449 -0.2402  0.4782
 4314TIP3    H234434   3.509   3.663  11.705 -1.0332  1.6424 -2.0048
 4315TIP3   OH234435   2.598   3.467  15.409 -0.2104  0.0601 -0.0436
 4315TIP3    H134436   2.649   3.467  15.328 -0.2453  0.2687 -0.0656
 4315TIP3    H234437   2.659   3.498  15.476  0.2624 -1.4924  0.2974
 4316TIP3   OH234438   6.347   3.445  15.178 -0.1139 -0.2397 -0.3854
 4316TIP3    H134439   6.319   3.420  15.090  1.4053 -2.0042 -0.4277
 4316TIP3    H234440   6.431   3.490  15.165 -0.9122  1.4486  0.0295
 4317TIP3   OH234441   5.939   0.249  12.462  0.2751 -0.5225  0.0301
 4317TIP3    H134442   5.905   0.196  12.534  0.6422 -0.7097  0.0724
 4317TIP3    H234443   6.028   0.215  12.448  1.2752  1.3492  1.3501
 4318TIP3   OH234444   2.641   3.280  11.872 -0.5202  0.0768  0.0187
 4318TIP3    H134445   2.716   3.246  11.921  0.0638 -0.1765 -1.0275
 4318TIP3    H234446   2.568   3.226  11.901 -0.2786  0.2436  0.9557
 4319TIP3   OH234447   4.448   1.214   2.458  0.0032  0.1936  0.0570
 4319TIP3    H134448   4.444   1.266   2.378 -0.5597 -1.9062 -1.3894
 4319TIP3    H234449   4.367   1.236   2.505 -0.9725 -0.4367 -1.2679
 4320TIP3   OH234450   1.174   6.408  13.315  0.0031 -0.2458 -0.0654
 4320TIP3    H134451   1.154   6.348  13.387  3.9928 -0.1466  1.4029
 4320TIP3    H234452   1.229   6.356  13.256 -0.0041  0.8062 -1.0310
 4321TIP3   OH234453   4.184   6.615  13.637 -0.4128  0.3003  0.0551
 4321TIP3    H134454   4.124   6.689  13.646  0.6446  1.5700 -2.4507
 4321TIP3    H234455   4.260   6.638  13.690 -0.5496  0.4558  0.1841
 4322TIP3   OH234456   6.514   3.262   4.996  0.1459 -0.1042 -0.3174
 4322TIP3    H134457   6.543   3.322   4.928 -1.6350  0.4411 -0.6348
 4322TIP3    H234458   6.429   3.230   4.966 -0.3063 -0.4749  1.2495
 4323TIP3   OH234459   0.159   6.258   2.865  0.0951 -0.5917 -0.2415
 4323TIP3    H134460   0.115   6.328   2.913  1.2211 -0.8655  1.2555
 4323TIP3    H234461   0.090   6.219   2.811 -1.4127 -0.7219  1.6806
 4324TIP3   OH234462   4.263   3.180  16.087  0.3470 -0.2926  0.4687
 4324TIP3    H134463   4.208   3.173  16.165  0.6087  0.3051  0.7162
 4324TIP3    H234464   4.353   3.176  16.121  0.4788 -2.0680 -0.0084
 4325TIP3   OH234465   4.004   1.561   5.312  0.3238  0.3378  0.4844
 4325TIP3    H134466   4.069   1.524   5.252  0.9477 -0.1506  1.4221
 4325TIP3    H234467   3.931   1.588   5.256  0.8406 -0.1911 -0.4663
 4326TIP3   OH234468   2.544   1.345  12.222  0.2832  0.2187  0.2131
 4326TIP3    H134469   2.483   1.281  12.257  0.5863 -0.9609 -1.2857
 4326TIP3    H234470   2.624   1.295  12.205  0.3620  0.8290 -1.4600
 4327TIP3   OH234471   5.493   1.026  13.463 -0.9406 -0.0284  0.2911
 4327TIP3    H134472   5.489   1.097  13.527 -0.5519 -0.0436  0.3324
 4327TIP3    H234473   5.443   1.058  13.388 -0.8307  0.2579  0.3398
 4328TIP3   OH234474   6.736   4.335  12.092  0.2109 -0.0597  0.4766
 4328TIP3    H134475   6.792   4.274  12.140 -0.4921 -0.6670  0.5440
 4328TIP3    H234476   6.675   4.369  12.158  0.1626  0.2016  0.3015
 4329TIP3   OH234477   5.460   2.077   3.754 -0.2727  0.2924  0.7469
 4329TIP3    H134478   5.431   2.039   3.671 -1.3396  1.4796  0.5529
 4329TIP3    H234479   5.387   2.064   3.814  0.2610 -0.0221  1.3526
 4330TIP3   OH234480   4.929   3.590  16.812 -0.3462 -0.3892  0.0509
 4330TIP3    H134481   4.977   3.538  16.748  0.6650 -0.5596  0.9156
 4330TIP3    H234482   4.879   3.653  16.760  0.7878 -0.2321 -0.8977
 4331TIP3   OH234483   4.641   5.995   0.752 -0.2365 -0.0039 -0.1801
 4331TIP3    H134484   4.731   6.009   0.779 -0.1111 -0.8281 -0.1577
 4331TIP3    H234485   4.638   5.904   0.722 -0.6022  0.5603 -1.9701
 4332TIP3   OH234486   1.403   2.676  16.438 -0.9043  0.8311 -0.4350
 4332TIP3    H134487   1.374   2.621  16.365  1.3965  1.7195 -2.1300
 4332TIP3    H234488   1.416   2.763  16.399  0.7725  1.2443  0.9168
 4333TIP3   OH234489   4.575   4.400  10.489  0.0093 -0.5619 -0.3804
 4333TIP3    H134490   4.502   4.351  10.451 -0.0958  0.1583 -1.1595
 4333TIP3    H234491   4.536   4.485  10.513  0.6006 -0.1346 -0.8951
 4334TIP3   OH234492   3.265   2.660  13.186  0.2489  0.6102  0.4134
 4334TIP3    H134493   3.213   2.675  13.107  1.8454 -0.1203 -0.8175
 4334TIP3    H234494   3.237   2.574  13.217  0.2589  0.5074  0.1356
 4335TIP3   OH234495   5.070   1.402   3.446  0.6584  0.0230  0.0792
 4335TIP3    H134496   5.073   1.403   3.542 -1.1308 -0.5504  0.1822
 4335TIP3    H234497   5.022   1.322   3.425 -2.1627  1.8740 -1.1252
 4336TIP3   OH234498   2.754   5.264   6.075 -0.2914 -0.6581 -0.2472
 4336TIP3    H134499   2.709   5.298   5.997 -2.4130 -1.1046  0.7046
 4336TIP3    H234500   2.736   5.170   6.073 -1.5214 -0.5093  1.4158
 4337TIP3   OH234501   3.424   6.349   3.234 -0.0495 -0.0874  0.2766
 4337TIP3    H134502   3.491   6.368   3.300 -0.2283  1.9044 -0.0550
 4337TIP3    H234503   3.341   6.366   3.279 -0.2061  0.4463 -0.2072
 4338TIP3   OH234504   2.925   3.658   1.669  0.3764 -0.1795  0.2671
 4338TIP3    H134505   2.931   3.608   1.587 -1.1892 -0.3269  0.2189
 4338TIP3    H234506   2.895   3.594   1.733  0.5536  0.1865  0.7135
 4339TIP3   OH234507   6.196   2.450  13.598 -0.0232  0.0266  0.3759
 4339TIP3    H134508   6.214   2.380  13.660 -1.1374 -0.1810  0.4815
 4339TIP3    H234509   6.191   2.529  13.653 -1.0873 -0.1685  0.5776
 4340TIP3   OH234510   1.778   4.678   4.334  0.0831  0.6112 -0.4599
 4340TIP3    H134511   1.834   4.684   4.257  0.3171  1.3166 -0.2457
 4340TIP3    H234512   1.727   4.598   4.321  0.1892  0.6702 -1.2976
 4341TIP3   OH234513   0.605   1.578   1.895  0.0495 -0.2725 -0.6547
 4341TIP3    H134514   0.527   1.538   1.857  0.5297 -1.3539 -0.5258
 4341TIP3    H234515   0.572   1.655   1.941 -0.5875  0.9804 -3.0310
 4342TIP3   OH234516   6.751   0.054   4.345 -1.1371 -0.0592 -0.0929
 4342TIP3    H134517   6.709   0.106   4.276 -0.4080  0.2983 -0.2740
 4342TIP3    H234518   6.709   0.083   4.426  0.2884  1.9284 -0.0078
 4343TIP3   OH234519   6.146   1.542   2.687  0.0178 -0.0377  0.2127
 4343TIP3    H134520   6.139   1.559   2.593  0.5595  1.1109  0.3543
 4343TIP3    H234521   6.201   1.613   2.720 -1.6674  0.6514  1.6983
 4344TIP3   OH234522   4.433   0.999  15.987 -0.5529 -0.1225  0.1063
 4344TIP3    H134523   4.365   1.033  15.929  0.0886 -0.8547 -1.1025
 4344TIP3    H234524   4.450   0.910  15.956  2.1357  0.5833 -0.7088
 4345TIP3   OH234525   4.253   0.438   0.289 -0.0166  0.3101 -0.0075
 4345TIP3    H134526   4.303   0.458   0.210  0.2568 -1.3676 -0.2860
 4345TIP3    H234527   4.182   0.381   0.258 -0.7753  0.8200  0.7462
 4346TIP3   OH234528   4.945   4.551  13.928  0.0811  0.2398 -0.2731
 4346TIP3    H134529   5.016   4.605  13.964  0.2193 -1.1412  1.6983
 4346TIP3    H234530   4.990   4.487  13.874 -0.0458  1.6960 -2.2179
 4347TIP3   OH234531   3.504   0.946  12.970 -0.0602  0.2382  0.8946
 4347TIP3    H134532   3.493   0.888  12.895 -0.6082  2.2566 -0.7014
 4347TIP3    H234533   3.435   0.920  13.031 -1.2945  0.1933 -0.4623
 4348TIP3   OH234534   6.109   3.006   1.938 -0.3084  0.1643  0.1403
 4348TIP3    H134535   6.059   3.031   1.860  0.6006 -2.0835 -1.2533
 4348TIP3    H234536   6.128   3.089   1.982 -2.5650  1.3261 -0.9158
 4349TIP3   OH234537   4.057   6.154   3.840 -0.2297 -0.5023  0.4635
 4349TIP3    H134538   4.059   6.241   3.799 -1.4062 -0.8343 -0.3362
 4349TIP3    H234539   4.071   6.172   3.933  0.7304  0.4255  0.1739
 4350TIP3   OH234540   4.883   4.192  14.344 -0.0122  0.1978 -0.5987
 4350TIP3    H134541   4.838   4.108  14.345  0.8489 -0.2751 -0.3739
 4350TIP3    H234542   4.860   4.231  14.260 -1.8814  0.5635  0.0406
 4351TIP3   OH234543   5.556   3.839  15.082 -0.4522 -0.0439 -0.1754
 4351TIP3    H134544   5.489   3.841  15.014  0.2031 -1.4725 -0.9081
 4351TIP3    H234545   5.637   3.865  15.038  0.2474 -2.2458 -0.3493
 4352TIP3   OH234546   0.899   2.003   0.319  0.0014  0.2114 -0.2499
 4352TIP3    H134547   0.988   2.016   0.284  0.2413  2.6252  1.0277
 4352TIP3    H234548   0.842   2.033   0.248  0.3368  1.3759 -0.0506
 4353TIP3   OH234549   0.408   3.837  10.629  0.5734 -0.5528 -0.8932
 4353TIP3    H134550   0.329   3.784  10.638  0.7833 -0.9493 -1.3242
 4353TIP3    H234551   0.451   3.831  10.715 -0.1349  0.1253 -0.4772
 4354TIP3   OH234552   1.420   5.012  11.738 -0.1702  0.2775 -0.1710
 4354TIP3    H134553   1.475   5.020  11.816 -1.4628  1.3147  0.6821
 4354TIP3    H234554   1.384   4.923  11.743  0.7774 -0.1244 -0.3119
 4355TIP3   OH234555   6.122   2.057  15.117  0.1665 -0.2693 -0.1240
 4355TIP3    H134556   6.129   1.962  15.105  0.4073 -0.2563 -0.0979
 4355TIP3    H234557   6.086   2.068  15.205 -1.4291 -0.3639 -0.7281
 4356TIP3   OH234558   0.573   6.657   3.149  0.1090  0.5359  0.2011
 4356TIP3    H134559   0.550   6.683   3.238  0.3966  1.0471  0.1279
 4356TIP3    H234560   0.668   6.640   3.154 -0.0840 -0.6330  0.2797
 4357TIP3   OH234561   3.742   3.002   0.145  0.2401  0.0376  0.0975
 4357TIP3    H134562   3.659   3.029   0.105  0.6490 -1.1737 -1.6490
 4357TIP3    H234563   3.808   3.025   0.081  1.0638 -0.8172  0.6234
 4358TIP3   OH234564   0.914   6.535  16.325  0.0622  0.0670 -0.2453
 4358TIP3    H134565   0.908   6.627  16.300  0.4525  0.4907  1.1162
 4358TIP3    H234566   1.007   6.518  16.335  0.0454 -0.7328 -1.3312
 4359TIP3   OH234567   6.453   4.255  15.390  0.0824  0.0389  0.1278
 4359TIP3    H134568   6.377   4.271  15.447 -0.1135  2.1107 -0.6204
 4359TIP3    H234569   6.416   4.253  15.302  0.8204  0.5456 -0.2014
 4360TIP3   OH234570   2.907   1.191  15.918 -0.0421  0.2498 -0.8732
 4360TIP3    H134571   2.980   1.192  15.980  0.0611 -0.4303 -0.9761
 4360TIP3    H234572   2.872   1.281  15.920 -0.3491  0.1186  0.5320
 4361TIP3   OH234573   4.181   6.594  14.388  0.3488 -0.8396  0.7944
 4361TIP3    H134574   4.239   6.520  14.370  0.6238 -0.3211 -0.6110
 4361TIP3    H234575   4.193   6.612  14.481  1.4790 -1.5688  0.8042
 4362TIP3   OH234576   5.481   5.977  16.106 -0.3867 -0.2168  0.3935
 4362TIP3    H134577   5.404   5.945  16.059 -0.8096 -0.1934  1.0487
 4362TIP3    H234578   5.540   6.009  16.038 -1.6749  1.3323 -0.0532
 4363TIP3   OH234579   1.841   1.223  15.225 -0.5129  0.1102  0.6283
 4363TIP3    H134580   1.887   1.263  15.152  1.1540  0.0858  1.6230
 4363TIP3    H234581   1.749   1.244  15.210 -0.2851 -0.3335 -1.7317
 4364TIP3   OH234582   1.362   2.227  11.059 -0.4628  0.3310  0.8503
 4364TIP3    H134583   1.282   2.217  11.008  0.0051 -0.7519  0.2973
 4364TIP3    H234584   1.334   2.269  11.141 -1.9020 -1.5578  1.3947
 4365TIP3   OH234585   2.699   5.196  14.121  0.2148 -0.1165  0.4928
 4365TIP3    H134586   2.710   5.111  14.165 -0.1159 -0.4685 -0.1039
 4365TIP3    H234587   2.697   5.259  14.193 -0.1656 -0.6740  0.9818
 4366TIP3   OH234588   3.609   1.773   0.764  0.4357  0.3438  0.3633
 4366TIP3    H134589   3.573   1.858   0.736  1.2888  0.7119  0.3557
 4366TIP3    H234590   3.572   1.710   0.703  1.6259  1.0204 -1.0997
 4367TIP3   OH234591   6.193   1.987   6.616  0.0705 -0.2404  0.5061
 4367TIP3    H134592   6.155   2.074   6.625 -0.7099 -0.4306 -0.7060
 4367TIP3    H234593   6.287   2.003   6.604  0.0021  0.3959  0.7890
 4368TIP3   OH234594   6.397   0.547  13.047  0.2443  0.1933 -0.1699
 4368TIP3    H134595   6.396   0.461  13.089  2.0085 -0.9775 -2.2637
 4368TIP3    H234596   6.447   0.533  12.966 -0.5605  2.9095 -1.2518
 4369TIP3   OH234597   4.587   1.351   3.489 -0.5428 -0.3195 -0.0054
 4369TIP3    H134598   4.606   1.264   3.452  1.3091 -0.5641  1.3763
 4369TIP3    H234599   4.626   1.349   3.576 -0.0407  2.0696 -0.1071
 4370TIP3   OH234600   4.354   4.872  14.543 -0.4761 -0.6001 -0.2125
 4370TIP3    H134601   4.306   4.870  14.460 -0.8187  0.6113 -0.0708
 4370TIP3    H234602   4.322   4.952  14.586 -1.0155 -1.6872  1.5011
 4371TIP3   OH234603   3.094   0.153  13.066  0.0677 -0.5848  0.5069
 4371TIP3    H134604   3.001   0.146  13.044  0.0338  0.4702  0.2531
 4371TIP3    H234605   3.131   0.068  13.043 -0.6182 -0.6273 -0.4722
 4372TIP3   OH234606   1.528   3.520   3.456  0.0116 -0.2042  0.1530
 4372TIP3    H134607   1.445   3.565   3.443 -0.4421 -1.6984 -3.1277
 4372TIP3    H234608   1.506   3.427   3.453  1.5988 -0.6644  1.1882
 4373TIP3   OH234609   0.468   5.436   2.170 -0.1344  0.6902  0.3298
 4373TIP3    H134610   0.478   5.434   2.265  1.2451 -0.3460  0.1919
 4373TIP3    H234611   0.395   5.377   2.152  0.8033 -0.6184  0.6495
 4374TIP3   OH234612   4.659   4.980   3.532 -0.3643  0.0199  0.1473
 4374TIP3    H134613   4.712   4.901   3.544  0.5873  0.6465  0.1570
 4374TIP3    H234614   4.579   4.948   3.492  0.0852 -0.9344 -0.0364
 4375TIP3   OH234615   6.060   5.138   1.467  0.3976 -0.0042  0.3561
 4375TIP3    H134616   5.976   5.098   1.447 -0.6164  2.7700 -1.5120
 4375TIP3    H234617   6.038   5.227   1.495  2.7022  1.3780 -1.8121
 4376TIP3   OH234618   1.405   6.600   4.720  0.2366  0.3171 -0.2804
 4376TIP3    H134619   1.417   6.655   4.798 -0.6416  1.3334 -0.8389
 4376TIP3    H234620   1.314   6.573   4.723 -0.2567  1.6529 -1.7329
 4377TIP3   OH234621   2.572   1.126   2.226 -0.3283  0.6928 -0.3595
 4377TIP3    H134622   2.538   1.081   2.303 -1.4029  1.1712 -0.5290
 4377TIP3    H234623   2.528   1.084   2.152  0.4284  0.4680 -0.6901
 4378TIP3   OH234624   4.202   0.370   2.653 -0.4206 -0.1434  0.0868
 4378TIP3    H134625   4.152   0.330   2.582  0.0176  0.0926 -0.3592
 4378TIP3    H234626   4.217   0.460   2.624  0.5280 -0.2969  0.0639
 4379TIP3   OH234627   4.213   2.947   5.169  0.3228 -0.2691  0.3406
 4379TIP3    H134628   4.190   3.040   5.168  1.9860  0.2137  1.7798
 4379TIP3    H234629   4.289   2.941   5.110  0.1443 -0.7470  0.1571
 4380TIP3   OH234630   5.592   2.458   0.779  0.1956 -0.2456  0.6416
 4380TIP3    H134631   5.648   2.477   0.703 -1.2929 -1.5369 -0.8385
 4380TIP3    H234632   5.590   2.541   0.828  0.7490  0.8022 -1.0146
 4381TIP3   OH234633   4.509   5.305   2.774 -0.0727 -0.4852  0.1703
 4381TIP3    H134634   4.596   5.299   2.735 -0.1581 -2.1616  0.1731
 4381TIP3    H234635   4.520   5.271   2.863 -1.2357 -3.5533 -0.7424
 4382TIP3   OH234636   5.952   4.345   4.937  0.4526 -0.1249 -0.0590
 4382TIP3    H134637   5.945   4.269   4.994 -0.3327 -1.1099 -1.4002
 4382TIP3    H234638   5.964   4.419   4.996  1.2248 -1.2765  1.2873
 4383TIP3   OH234639   5.667   1.871   3.495 -0.2521  0.1651  0.2659
 4383TIP3    H134640   5.699   1.883   3.584  1.0019 -0.1897 -0.1013
 4383TIP3    H234641   5.612   1.793   3.499  0.4329 -0.3159  0.5963
 4384TIP3   OH234642   3.028   3.178   4.164  0.2495 -0.0043  0.7823
 4384TIP3    H134643   2.964   3.122   4.208  1.3179 -1.3647  0.6788
 4384TIP3    H234644   3.091   3.201   4.232  0.9548 -0.6694  0.3648
 4385TIP3   OH234645   1.082   6.437  15.138  0.0125 -0.2011  0.0993
 4385TIP3    H134646   1.176   6.418  15.134  0.3697  1.1436  1.5895
 4385TIP3    H234647   1.051   6.388  15.214 -0.5237 -0.6976 -0.4322
 4386TIP3   OH234648   1.468   4.476  13.244  0.7210 -0.4291 -0.4475
 4386TIP3    H134649   1.426   4.426  13.313  0.3860  0.4230 -0.0306
 4386TIP3    H234650   1.524   4.412  13.199  1.5977 -0.8240  1.1232
 4387TIP3   OH234651   4.224   1.405   0.518 -0.0044 -0.1572 -0.1764
 4387TIP3    H134652   4.246   1.348   0.444  0.3324  0.0077 -0.2024
 4387TIP3    H234653   4.306   1.417   0.565  0.1935  1.2595 -0.8299
 4388TIP3   OH234654   4.488   4.243   4.937  0.6223  0.2055 -0.0899
 4388TIP3    H134655   4.400   4.274   4.914 -0.5175 -1.7359  1.2795
 4388TIP3    H234656   4.473   4.181   5.008  3.1258 -0.2584  0.1193
 4389TIP3   OH234657   6.275   4.450  16.632  0.2157  0.7649 -0.2604
 4389TIP3    H134658   6.216   4.439  16.707 -0.2726  2.3458 -0.3651
 4389TIP3    H234659   6.322   4.367  16.626  0.0824  0.4969  1.6412
 4390TIP3   OH234660   2.753   6.756   3.700  0.0999  0.0095 -0.1306
 4390TIP3    H134661   2.747   6.833   3.756  0.8012  0.3958 -0.5686
 4390TIP3    H234662   2.763   6.682   3.761 -1.4672  0.1308  0.3341
 4391TIP3   OH234663   6.440   0.472   3.651 -0.0449 -0.8731  0.1887
 4391TIP3    H134664   6.487   0.429   3.722  1.4064 -0.3396 -0.4134
 4391TIP3    H234665   6.508   0.493   3.587 -1.1799 -0.4587 -0.9114
 4392TIP3   OH234666   1.408   3.583  14.220  0.9840 -0.8526  0.3843
 4392TIP3    H134667   1.491   3.615  14.186  1.0515  0.4174  1.6454
 4392TIP3    H234668   1.361   3.662  14.247 -1.6828 -1.2857 -2.4190
 4393TIP3   OH234669   1.507   6.802  14.550 -0.3326 -0.5613 -0.2456
 4393TIP3    H134670   1.535   6.819  14.640 -0.6531  1.2306 -0.4633
 4393TIP3    H234671   1.556   6.724  14.524  1.0328 -0.1219  0.9163
 4394TIP3   OH234672   0.815   3.070  16.552 -0.4084  0.2870  0.2081
 4394TIP3    H134673   0.824   3.165  16.562  0.2581  0.3918 -1.0708
 4394TIP3    H234674   0.871   3.049  16.477 -0.9528 -1.0432  0.1472
 4395TIP3   OH234675   2.640   2.887   3.445 -0.4642  0.2640 -0.5104
 4395TIP3    H134676   2.727   2.849   3.432  0.2275  1.6652 -0.1385
 4395TIP3    H234677   2.615   2.922   3.360 -0.4986  0.2363 -0.5122
 4396TIP3   OH234678   1.580   2.654  12.304  0.4537  0.1517  0.6296
 4396TIP3    H134679   1.542   2.709  12.236 -0.0962 -1.2413 -0.2427
 4396TIP3    H234680   1.604   2.715  12.374 -2.4973  1.2806  0.8212
 4397TIP3   OH234681   2.451   2.297   5.498 -0.1226 -0.5426 -0.5339
 4397TIP3    H134682   2.405   2.284   5.580 -1.3699  4.9724 -0.0216
 4397TIP3    H234683   2.387   2.274   5.430 -1.7763  1.6716  0.1802
 4398TIP3   OH234684   6.764   6.071   2.136  0.8479 -0.2329 -0.0217
 4398TIP3    H134685   6.843   6.044   2.090  1.7174  1.1968  0.5551
 4398TIP3    H234686   6.776   6.165   2.152 -0.5643 -0.1645  0.8653
 4399TIP3   OH234687   5.071   0.983  13.322 -0.1007 -0.0057 -0.5837
 4399TIP3    H134688   5.041   1.060  13.274  0.0649  1.0334  0.9103
 4399TIP3    H234689   5.158   1.008  13.354 -0.4235 -0.4360  0.6858
 4400TIP3   OH234690   1.228   3.356   2.244  0.2446  0.4768 -0.0592
 4400TIP3    H134691   1.189   3.327   2.326  2.1637  0.9329  1.0739
 4400TIP3    H234692   1.154   3.364   2.184 -1.0135 -1.3945  1.1514
 4401TIP3   OH234693   4.749   3.687  13.533  0.1350 -0.0813 -0.4161
 4401TIP3    H134694   4.730   3.608  13.482  2.3721 -0.5356 -0.6383
 4401TIP3    H234695   4.842   3.702  13.520  0.2029  1.3781  1.3580
 4402TIP3   OH234696   1.296   0.599   2.828  0.6285 -0.0335 -0.1065
 4402TIP3    H134697   1.240   0.537   2.874 -0.2920  1.1651  0.4404
 4402TIP3    H234698   1.255   0.608   2.742  1.4850 -1.1098 -0.6599
 4403TIP3   OH234699   4.837   2.333   4.801  0.4631 -0.2793 -0.5131
 4403TIP3    H134700   4.860   2.240   4.804 -0.1450 -0.4115  0.8137
 4403TIP3    H234701   4.900   2.374   4.861  0.2681  0.0499 -0.5348
 4404TIP3   OH234702   5.942   1.796   3.703 -0.0255 -0.7486  0.3635
 4404TIP3    H134703   5.965   1.710   3.668 -0.4767  0.1251 -2.3113
 4404TIP3    H234704   5.853   1.785   3.736 -1.6554 -0.5634 -3.4425
 4405TIP3   OH234705   2.431   5.004   0.956  0.7947  0.2462 -0.1923
 4405TIP3    H134706   2.506   5.015   1.015  1.2735 -0.0976 -0.7277
 4405TIP3    H234707   2.467   4.959   0.880 -0.3514 -1.8319  0.4043
 4406TIP3   OH234708   2.699   0.179   3.419 -0.0741  0.0175  0.4037
 4406TIP3    H134709   2.782   0.132   3.424 -0.2033 -0.4618 -1.2198
 4406TIP3    H234710   2.635   0.120   3.460  0.4666  0.6623  2.2306
 4407TIP3   OH234711   1.656   3.691  12.868 -0.5832 -0.1156 -0.4477
 4407TIP3    H134712   1.561   3.684  12.857 -0.5464 -1.1972 -0.1420
 4407TIP3    H234713   1.692   3.626  12.809 -0.2167 -2.7941  2.4452
 4408TIP3   OH234714   5.847   5.322   5.502 -0.2937  0.3013  0.1344
 4408TIP3    H134715   5.914   5.255   5.515  0.7183  1.1348 -0.6235
 4408TIP3    H234716   5.796   5.322   5.584  0.8080 -0.1437  0.8395
 4409TIP3   OH234717   6.124   2.237  13.753 -0.8561 -0.6851 -0.0748
 4409TIP3    H134718   6.065   2.277  13.690 -0.2081 -1.2408 -1.0504
 4409TIP3    H234719   6.083   2.153  13.774 -0.9140 -0.6368  0.0062
 4410TIP3   OH234720   6.352   6.004  14.855  0.5122  0.1485  0.3012
 4410TIP3    H134721   6.403   6.076  14.818  1.9090 -0.6751  0.5622
 4410TIP3    H234722   6.417   5.944  14.892 -0.6385 -0.9740  0.5998
 4411TIP3   OH234723   4.838   6.468   4.015 -0.6191 -0.5320  0.2509
 4411TIP3    H134724   4.785   6.402   3.969  1.4278 -0.2483 -2.8232
 4411TIP3    H234725   4.928   6.444   3.995  0.3829  0.5902  2.9815
 4412TIP3   OH234726   4.396   3.448   2.759  0.2231  0.3901  0.3075
 4412TIP3    H134727   4.420   3.358   2.735  3.1204  1.6371 -2.2112
 4412TIP3    H234728   4.466   3.476   2.818 -0.2329  1.2355  0.4512
 4413TIP3   OH234729   3.884   4.111  16.192 -0.6558 -0.2450 -0.0902
 4413TIP3    H134730   3.942   4.121  16.267 -1.5443 -0.7700  0.6935
 4413TIP3    H234731   3.891   4.194  16.145  0.4203 -0.1639  0.1980
 4414TIP3   OH234732   0.137   5.768  16.944 -0.2389 -0.2115 -0.5193
 4414TIP3    H134733   0.124   5.794  16.853  0.3271 -0.5037 -0.6874
 4414TIP3    H234734   0.048   5.756  16.978 -0.4490 -0.4249 -1.1281
 4415TIP3   OH234735   4.790   1.097   0.018 -0.4629 -0.1827  0.1905
 4415TIP3    H134736   4.866   1.115  -0.038 -0.0889  0.5501  0.9056
 4415TIP3    H234737   4.738   1.033  -0.031 -0.2750  0.6244 -1.1040
 4416TIP3   OH234738   1.877   1.717  12.673  0.2792 -0.0912  0.0620
 4416TIP3    H134739   1.797   1.767  12.657  1.0411  0.2372 -3.8046
 4416TIP3    H234740   1.847   1.635  12.712 -1.7823  0.6179  0.0773
 4417TIP3   OH234741   4.764   2.005   6.021  0.3511  0.4902  0.2810
 4417TIP3    H134742   4.836   2.062   5.995  2.6542 -2.7917 -1.2747
 4417TIP3    H234743   4.728   1.972   5.938  0.3270 -1.6278  1.0556
 4418TIP3   OH234744   6.414   6.785  13.896  0.4448  0.2939 -0.1047
 4418TIP3    H134745   6.494   6.838  13.905  0.1984  0.7108 -0.3362
 4418TIP3    H234746   6.379   6.809  13.810  0.1274  0.0339 -0.0483
 4419TIP3   OH234747   6.350   1.755   0.513  0.4933  0.5470  0.7884
 4419TIP3    H134748   6.323   1.844   0.489 -1.3560  0.4221  2.2001
 4419TIP3    H234749   6.301   1.699   0.453  1.4218  0.4428  0.1075
 4420TIP3   OH234750   2.449   5.640   1.564 -0.0505  0.3789 -0.1610
 4420TIP3    H134751   2.443   5.600   1.650 -0.0741  0.4656 -0.1214
 4420TIP3    H234752   2.383   5.710   1.566  0.9874  1.3836  0.3008
 4421TIP3   OH234753   3.806   0.774   5.679  0.2299 -0.0176  0.4627
 4421TIP3    H134754   3.785   0.809   5.592  0.0478 -0.1685  0.4461
 4421TIP3    H234755   3.755   0.694   5.686 -1.6623  1.2089  1.6636
 4422TIP3   OH234756   2.569   1.924   5.194  0.4611  0.1782  0.2128
 4422TIP3    H134757   2.581   1.999   5.135  2.6272 -1.3055 -1.4236
 4422TIP3    H234758   2.605   1.953   5.277 -1.3176  1.8426  0.4852
 4423TIP3   OH234759   1.016   2.405  13.463  0.3188 -0.3253  0.0425
 4423TIP3    H134760   0.973   2.418  13.379  0.1038 -0.4004  0.1413
 4423TIP3    H234761   1.098   2.455  13.456  0.6863 -0.9855 -0.5015
 4424TIP3   OH234762   5.375   0.941  11.977 -0.3884  0.0721  0.4447
 4424TIP3    H134763   5.444   0.889  12.017 -1.1127  0.3100  2.1157
 4424TIP3    H234764   5.410   1.030  11.976 -0.5363  0.1445  1.0290
 4425TIP3   OH234765   6.466   1.297  10.880 -0.3683 -0.3142 -0.3283
 4425TIP3    H134766   6.440   1.312  10.790 -1.4349  0.2166  0.0565
 4425TIP3    H234767   6.536   1.232  10.874  0.3840  0.5783 -1.6071
 4426TIP3   OH234768   6.745   3.453   3.691 -0.2169  0.2203  0.4666
 4426TIP3    H134769   6.704   3.538   3.672 -1.1942 -0.6686 -1.6693
 4426TIP3    H234770   6.688   3.389   3.648  1.5529 -1.3540  0.3788
 4427TIP3   OH234771   1.838   2.042   3.061 -0.1382 -0.1597 -0.6191
 4427TIP3    H134772   1.817   1.986   3.136 -0.6637 -0.3419 -0.9039
 4427TIP3    H234773   1.787   2.006   2.988 -1.9891  1.7777 -0.3913
 4428TIP3   OH234774   6.754   6.160  15.731  0.0912 -0.1916  0.1925
 4428TIP3    H134775   6.766   6.142  15.638 -1.1447  0.3108 -0.0814
 4428TIP3    H234776   6.767   6.255  15.740 -1.5454  0.0605  0.2028
 4429TIP3   OH234777   4.186   6.448   5.011 -0.3763  0.3129 -0.2770
 4429TIP3    H134778   4.171   6.468   4.919 -0.4481  0.3139 -0.2650
 4429TIP3    H234779   4.282   6.446   5.020 -0.3667  0.0427 -0.4096
 4430TIP3   OH234780   2.393   6.504   4.210  0.2232  0.6275  0.0638
 4430TIP3    H134781   2.406   6.459   4.127  0.0436 -0.7975  0.7867
 4430TIP3    H234782   2.481   6.529   4.238  0.5320 -0.9327  0.5453
 4431TIP3   OH234783   4.888   6.432  14.929 -0.3767  0.1337 -0.1639
 4431TIP3    H134784   4.917   6.367  14.993  0.1752  0.2631 -0.2741
 4431TIP3    H234785   4.956   6.499  14.931  0.6479 -0.7305 -2.1835
 4432TIP3   OH234786   3.052   0.792  16.596 -0.6489 -0.0280  0.1940
 4432TIP3    H134787   3.062   0.833  16.510 -2.9609 -0.2220 -0.2471
 4432TIP3    H234788   3.130   0.819  16.645  0.4240  0.5925 -1.7442
 4433TIP3   OH234789   1.842   1.880  17.056 -0.2936 -0.3207 -0.4457
 4433TIP3    H134790   1.786   1.871  17.134  2.5874 -1.2104  1.7039
 4433TIP3    H234791   1.783   1.869  16.982 -2.8925 -1.4299  1.6446
 4434TIP3   OH234792   2.676   5.880   3.321 -0.0867 -0.1822  0.2400
 4434TIP3    H134793   2.684   5.804   3.379  1.7296  0.5260  0.9956
 4434TIP3    H234794   2.711   5.953   3.372  0.2438  0.7455 -1.2431
 4435TIP3   OH234795   1.073   2.454   5.335 -0.4410 -0.2393 -0.3415
 4435TIP3    H134796   1.167   2.464   5.317 -0.5086  1.2343 -0.0280
 4435TIP3    H234797   1.069   2.422   5.425 -0.2221  1.0402  0.1582
 4436TIP3   OH234798   5.811   4.842  14.478 -0.0996  0.1830 -0.2640
 4436TIP3    H134799   5.744   4.910  14.467  0.6680  1.0994  0.5150
 4436TIP3    H234800   5.894   4.890  14.480  0.3933 -0.6522  1.3189
 4437TIP3   OH234801   3.144   3.954  14.153 -0.9271  0.4159 -0.1076
 4437TIP3    H134802   3.122   3.877  14.205  1.6649  0.0543  0.5842
 4437TIP3    H234803   3.186   3.919  14.074 -1.3709  1.0750 -0.6457
 4438TIP3   OH234804   0.882   2.412   2.189  0.2019 -0.1115 -0.1037
 4438TIP3    H134805   0.940   2.403   2.113 -1.8085 -0.6796 -1.6658
 4438TIP3    H234806   0.858   2.323   2.212 -0.7457  0.1324 -0.0808
 4439TIP3   OH234807   5.813   5.057  16.286  0.7186  0.5056 -0.4182
 4439TIP3    H134808   5.830   4.977  16.337  2.7146  1.8479  1.1920
 4439TIP3    H234809   5.722   5.078  16.305  0.6542 -0.4844  0.5068
 4440TIP3   OH234810   1.492   0.628  13.178 -0.2390  0.0119  0.5493
 4440TIP3    H134811   1.551   0.598  13.247 -0.6308 -0.3732  0.7197
 4440TIP3    H234812   1.505   0.723  13.174  2.0875 -0.2908 -0.9610
 4441TIP3   OH234813   1.413   3.854   2.953  0.1709  0.2564  0.6611
 4441TIP3    H134814   1.495   3.900   2.935 -0.0678  0.8240  1.0138
 4441TIP3    H234815   1.391   3.811   2.871 -0.6181  2.3622 -0.2988
 4442TIP3   OH234816   5.873   1.647   2.300  0.1185 -0.3397 -0.2032
 4442TIP3    H134817   5.874   1.734   2.341 -0.6128 -0.2892 -0.2859
 4442TIP3    H234818   5.907   1.661   2.212 -0.7569  0.0177 -0.4971
 4443TIP3   OH234819   1.933   3.004   1.046 -0.3856  0.4743 -0.7624
 4443TIP3    H134820   1.846   2.992   1.084 -0.4487  0.7856 -0.7993
 4443TIP3    H234821   1.972   3.074   1.099  0.5730 -0.9171  0.4714
 4444TIP3   OH234822   5.589   4.220   2.903  0.2515  0.0022  0.0732
 4444TIP3    H134823   5.536   4.178   2.835 -0.0306  0.3306  0.0895
 4444TIP3    H234824   5.678   4.186   2.889 -0.0240 -0.8157  0.2564
 4445TIP3   OH234825   4.338   6.612   6.028  0.3146  0.4163 -0.0171
 4445TIP3    H134826   4.394   6.687   6.010  0.9843 -0.3644 -1.2864
 4445TIP3    H234827   4.285   6.601   5.949  0.3731 -0.5753  0.0741
 4446TIP3   OH234828   1.482   3.337   5.644  0.0555 -0.0047  0.3927
 4446TIP3    H134829   1.392   3.309   5.628  0.4286 -0.9638 -0.1054
 4446TIP3    H234830   1.484   3.359   5.737 -1.1308  1.7438  0.0588
 4447TIP3   OH234831   2.718   5.781   1.145 -0.7043  0.5113 -0.6107
 4447TIP3    H134832   2.787   5.715   1.152 -1.9260 -1.0994 -2.5684
 4447TIP3    H234833   2.669   5.773   1.227 -0.6212 -0.7943 -0.6639
 4448TIP3   OH234834   1.796   2.397   3.419 -0.2544  0.0489  0.0198
 4448TIP3    H134835   1.709   2.360   3.432 -0.9962  1.2122 -1.3301
 4448TIP3    H234836   1.824   2.362   3.334  1.0462 -1.0851  0.8657
 4449TIP3   OH234837   4.015   6.102  12.323 -0.4254  0.1559 -0.0478
 4449TIP3    H134838   3.984   6.176  12.271  0.3038  0.2168 -0.4072
 4449TIP3    H234839   4.043   6.037  12.259 -1.3473 -0.5682  0.2632
 4450TIP3   OH234840   1.341   2.960   3.227 -0.8079  0.1094 -0.1356
 4450TIP3    H134841   1.359   2.884   3.283 -0.4975  0.9215  0.9151
 4450TIP3    H234842   1.306   2.923   3.146  2.1449 -1.3624 -0.8685
 4451TIP3   OH234843   2.463   3.480  12.293  0.0441 -0.1226 -0.4968
 4451TIP3    H134844   2.386   3.435  12.327  0.1633 -0.9706 -1.2957
 4451TIP3    H234845   2.458   3.467  12.198  1.4216 -0.6269 -0.5287
 4452TIP3   OH234846   2.941   2.521   4.045  0.1690 -0.3170  0.2222
 4452TIP3    H134847   2.971   2.430   4.050 -1.4855 -0.9587 -0.6699
 4452TIP3    H234848   2.989   2.558   3.971 -0.1207 -0.8863 -0.2646
 4453TIP3   OH234849   0.138   5.797  16.540  0.2468 -0.2961  0.5035
 4453TIP3    H134850   0.132   5.890  16.562  0.2108  0.1576 -1.2688
 4453TIP3    H234851   0.204   5.763  16.600  0.0544  0.8009  1.3790
 4454TIP3   OH234852   1.316   6.182   2.227 -0.2843 -0.5001 -0.0778
 4454TIP3    H134853   1.387   6.193   2.164  0.3443  1.1715  0.8481
 4454TIP3    H234854   1.339   6.241   2.299 -1.9751 -0.8761  0.8175
 4455TIP3   OH234855   0.527   1.575   1.509 -0.5804 -0.5747 -0.1424
 4455TIP3    H134856   0.617   1.543   1.507 -0.1090  0.6355  0.5975
 4455TIP3    H234857   0.525   1.646   1.443 -0.9962 -0.6124 -0.1725
 4456TIP3   OH234858   0.162   2.283   1.131 -0.0063  0.1374  0.7558
 4456TIP3    H134859   0.174   2.377   1.147  2.0190  0.2956 -1.1601
 4456TIP3    H234860   0.190   2.241   1.212  0.9546  1.1341  0.9732
 4457TIP3   OH234861   5.895   2.546   1.221 -0.6886  0.0503 -0.5396
 4457TIP3    H134862   5.961   2.615   1.221 -0.0371 -0.5340  1.1625
 4457TIP3    H234863   5.826   2.580   1.164  0.1573  1.5673 -0.7146
 4458TIP3   OH234864   0.478   3.145  14.620 -0.3286  0.6087  0.5913
 4458TIP3    H134865   0.404   3.085  14.623  0.9201 -0.9616  1.6273
 4458TIP3    H234866   0.450   3.220  14.672 -1.5773  0.5537  0.0465
 4459TIP3   OH234867   0.882   6.490   3.801 -0.5662  0.1694  0.0709
 4459TIP3    H134868   0.926   6.512   3.718 -1.2448 -0.4313 -0.4669
 4459TIP3    H234869   0.839   6.406   3.783 -0.5829 -0.0471  1.0957
 4460TIP3   OH234870   4.458   5.388   4.083  0.3354 -0.4425 -0.5152
 4460TIP3    H134871   4.366   5.367   4.069  0.7211 -2.3822 -0.4424
 4460TIP3    H234872   4.498   5.382   3.996  0.2175  1.5316 -0.7386
 4461TIP3   OH234873   1.878   1.350  16.806  0.4754  0.5247  0.3568
 4461TIP3    H134874   1.959   1.374  16.850 -0.3208  3.0728  0.5623
 4461TIP3    H234875   1.809   1.376  16.866 -0.5538  0.3725 -0.7196
 4462TIP3   OH234876   5.510   6.289   4.498 -0.3859 -0.2600  0.0532
 4462TIP3    H134877   5.454   6.274   4.422  0.5430  0.4445 -0.8079
 4462TIP3    H234878   5.580   6.225   4.489  0.0771  0.2547 -0.0519
 4463TIP3   OH234879   6.840   3.074  13.196  0.0855 -0.0044 -0.3322
 4463TIP3    H134880   6.785   3.050  13.121 -1.2704 -1.2937  1.0069
 4463TIP3    H234881   6.778   3.106  13.261  1.2599  1.2368  0.2148
 4464TIP3   OH234882   4.196   3.398  13.507 -0.0923  0.3147 -0.1743
 4464TIP3    H134883   4.276   3.396  13.559 -0.7128  0.0447  0.7894
 4464TIP3    H234884   4.151   3.478  13.535 -0.4792  0.1160 -0.2254
 4465TIP3   OH234885   5.076   0.153   2.727 -0.0367 -0.2682  0.1881
 4465TIP3    H134886   4.991   0.196   2.728 -0.1507 -0.4888  0.0475
 4465TIP3    H234887   5.067   0.082   2.664 -0.8828 -2.5695  2.6918
 4466TIP3   OH234888   1.201   6.145  11.358 -0.0061 -0.1369 -0.2116
 4466TIP3    H134889   1.211   6.216  11.421  1.6260 -0.1559 -0.4173
 4466TIP3    H234890   1.124   6.097  11.389  0.3420  0.2706  1.3691
 4467TIP3   OH234891   6.334   5.016   0.169  0.4047 -0.3724  0.3364
 4467TIP3    H134892   6.349   4.949   0.103 -0.7235 -0.5173  0.2159
 4467TIP3    H234893   6.408   5.076   0.159 -0.1914  0.0801 -1.6387
 4468TIP3   OH234894   2.392   2.305  14.081 -0.4275  0.1376 -0.3263
 4468TIP3    H134895   2.338   2.227  14.090 -1.8164  0.9026 -1.7385
 4468TIP3    H234896   2.355   2.353  14.007  0.1873  2.2994  0.6761
 4469TIP3   OH234897   0.151   3.248   4.997 -0.5632  0.0957 -0.8821
 4469TIP3    H134898   0.125   3.340   5.003 -0.5324  0.0438  0.1711
 4469TIP3    H234899   0.243   3.248   5.023 -0.4237 -0.1744 -1.3674
 4470TIP3   OH234900   4.981   1.572   4.105 -0.3647  0.3717 -0.0292
 4470TIP3    H134901   5.059   1.517   4.103 -0.3612  0.3382  0.6692
 4470TIP3    H234902   4.923   1.534   4.038 -1.0059 -1.4781  1.4785
 4471TIP3   OH234903   1.243   0.618   0.843 -0.4715  0.1255 -0.2627
 4471TIP3    H134904   1.238   0.529   0.878  1.6659 -0.0229 -0.2224
 4471TIP3    H234905   1.180   0.619   0.771 -1.4141 -1.0281  0.5030
 4472TIP3   OH234906   2.739   2.390  11.845 -0.4473 -0.1057 -0.7203
 4472TIP3    H134907   2.746   2.402  11.750 -2.5859 -1.0235 -1.0525
 4472TIP3    H234908   2.754   2.296  11.858  1.3157  0.2534  0.0634
 4473TIP3   OH234909   2.487   3.272  14.886  0.1436 -0.3538 -0.1430
 4473TIP3    H134910   2.415   3.291  14.946  1.0476  0.4529  0.7134
 4473TIP3    H234911   2.450   3.285  14.799 -0.9455 -0.6773  0.2583
 4474TIP3   OH234912   2.635   1.493  11.800  0.3208  0.2164  0.1213
 4474TIP3    H134913   2.555   1.488  11.747 -1.1772  0.0966  2.2679
 4474TIP3    H234914   2.705   1.507  11.736 -1.4275  0.6204 -1.8230
 4475TIP3   OH234915   2.325   5.325   2.743 -0.2346 -0.3943  0.1881
 4475TIP3    H134916   2.283   5.277   2.672 -0.9155  1.0645 -0.4428
 4475TIP3    H234917   2.283   5.411   2.741 -0.2913 -0.3269  2.3934
 4476TIP3   OH234918   5.466   3.765  13.592 -0.5928 -0.0481  0.0411
 4476TIP3    H134919   5.559   3.779  13.574 -0.7478 -0.2367 -0.9530
 4476TIP3    H234920   5.443   3.836  13.652 -0.3480  1.4836 -1.5685
 4477TIP3   OH234921   0.413   1.361  14.517  0.0248 -0.5241 -0.1110
 4477TIP3    H134922   0.327   1.322  14.533 -0.8591  2.3313  3.5021
 4477TIP3    H234923   0.425   1.354  14.423 -3.2696 -2.7417 -0.5427
 4478TIP3   OH234924   4.170   0.811   5.394  0.3158  0.0354  0.0531
 4478TIP3    H134925   4.137   0.722   5.407 -1.2544  0.5891  0.0258
 4478TIP3    H234926   4.108   0.867   5.440  0.4987  1.2265 -1.0845
 4479TIP3   OH234927   1.475   2.706   0.484 -0.0587 -0.8427 -0.5478
 4479TIP3    H134928   1.444   2.724   0.395  0.2389 -0.3126 -0.5498
 4479TIP3    H234929   1.560   2.664   0.471  1.1354  1.3792 -0.5243
 4480TIP3   OH234930   3.980   4.636   3.050 -0.5654 -0.0561  0.3938
 4480TIP3    H134931   3.952   4.551   3.016 -1.6215  0.9512 -1.4217
 4480TIP3    H234932   4.023   4.679   2.976 -0.5158  1.2096  1.1174
 4481TIP3   OH234933   0.134   0.882   1.804  0.3102 -0.0148 -0.0097
 4481TIP3    H134934   0.116   0.974   1.819  1.7906  0.5561 -1.4895
 4481TIP3    H234935   0.099   0.838   1.882  0.4438  1.8790  1.1857
 4482TIP3   OH234936   0.673   3.919  11.248 -0.2388 -0.0654 -0.1640
 4482TIP3    H134937   0.615   3.844  11.239  1.2034 -1.3057  0.4302
 4482TIP3    H234938   0.710   3.933  11.161  0.0457 -0.5263 -0.1183
 4483TIP3   OH234939   2.608   2.563   1.873  0.2117  0.0894  0.0621
 4483TIP3    H134940   2.551   2.517   1.935 -0.6365  1.4229  0.3125
 4483TIP3    H234941   2.671   2.497   1.845 -0.3426 -0.9488  1.1683
 4484TIP3   OH234942   5.525   2.945   5.500  0.7041  0.1044 -0.5003
 4484TIP3    H134943   5.572   3.025   5.480  1.2147 -0.4329 -1.5756
 4484TIP3    H234944   5.560   2.881   5.437 -0.2185 -0.7544 -0.1643
 4485TIP3   OH234945   1.233   4.961   3.310 -0.5168 -0.5583 -0.0299
 4485TIP3    H134946   1.180   4.912   3.373  0.1418  0.1955  1.1439
 4485TIP3    H234947   1.175   5.032   3.281  0.0138  0.7276  1.8271
 4486TIP3   OH234948   6.340   1.935  12.433 -0.0365 -0.2610  0.0598
 4486TIP3    H134949   6.288   1.983  12.497 -1.8684 -0.3146 -1.2953
 4486TIP3    H234950   6.415   1.992  12.416 -1.2221  1.3186 -0.1648
 4487TIP3   OH234951   0.459   5.151   0.204 -0.3527  0.2792 -0.0314
 4487TIP3    H134952   0.372   5.178   0.232 -1.0382 -2.0952  0.3563
 4487TIP3    H234953   0.480   5.075   0.259  0.2293 -1.6874 -2.7469
 4488TIP3   OH234954   3.573   6.227   2.085  0.2480  0.3467 -0.4118
 4488TIP3    H134955   3.499   6.178   2.122 -0.1242  1.4809  0.4120
 4488TIP3    H234956   3.579   6.305   2.139  1.0097  1.0771 -1.5069
 4489TIP3   OH234957   5.180   6.532  11.650 -0.1284 -0.0209  0.2435
 4489TIP3    H134958   5.156   6.532  11.557  1.7504  0.2649 -0.2952
 4489TIP3    H234959   5.142   6.613  11.684 -0.5873  0.0252 -0.3435
 4490TIP3   OH234960   5.990   4.584   2.736 -0.2702  0.1454 -0.3855
 4490TIP3    H134961   6.033   4.555   2.655 -2.3178 -1.2945 -1.0514
 4490TIP3    H234962   6.047   4.653   2.769  1.1536  0.1392 -2.5376
 4491TIP3   OH234963   3.267   2.361   5.808  0.1601 -0.1092  0.3634
 4491TIP3    H134964   3.232   2.319   5.729 -1.6894 -0.6979  1.4489
 4491TIP3    H234965   3.219   2.444   5.814  1.6198  0.8006 -0.1052
 4492TIP3   OH234966   2.835   1.426  11.970 -0.4898 -0.4696 -0.0150
 4492TIP3    H134967   2.757   1.459  11.924 -0.4556  0.5667  0.6378
 4492TIP3    H234968   2.847   1.337  11.936 -0.0585  0.4709 -2.5285
 4493TIP3   OH234969   6.166   6.425  14.353  0.2413 -0.1993 -0.2229
 4493TIP3    H134970   6.084   6.434  14.401  0.4209  0.1950  0.0212
 4493TIP3    H234971   6.142   6.440  14.262 -0.0935 -0.9008 -0.2565
 4494TIP3   OH234972   2.624   2.785  15.806  0.3289 -0.0907 -0.2015
 4494TIP3    H134973   2.679   2.849  15.852  0.0879  0.0093 -0.0519
 4494TIP3    H234974   2.548   2.836  15.777 -0.4619 -0.5649  0.9795
 4495TIP3   OH234975   2.362   6.187  11.368  1.0871  0.8538 -0.3451
 4495TIP3    H134976   2.448   6.188  11.326  0.6971 -0.0461 -1.2030
 4495TIP3    H234977   2.308   6.245  11.314  1.3849  2.2114  0.7586
 4496TIP3   OH234978   5.280   1.847  11.489 -0.1800  0.0047 -0.2722
 4496TIP3    H134979   5.302   1.762  11.450 -0.2945  0.0096 -0.3463
 4496TIP3    H234980   5.192   1.835  11.526 -0.6502  0.4135 -1.2341
 4497TIP3   OH234981   3.768   0.939   3.509 -0.0873 -0.3873  0.5927
 4497TIP3    H134982   3.756   0.847   3.532  0.4380 -1.0512 -1.5680
 4497TIP3    H234983   3.827   0.938   3.434 -3.4747  1.3437 -2.4303
 4498TIP3   OH234984   6.014   1.099  11.650  0.3342 -0.3719  0.1106
 4498TIP3    H134985   6.092   1.118  11.597 -0.1237 -0.6899 -0.7070
 4498TIP3    H234986   6.029   1.010  11.682 -0.7237 -1.4048 -2.0383
 4499TIP3   OH234987   0.921   6.436   5.701  0.0916  0.6442 -0.1177
 4499TIP3    H134988   0.979   6.473   5.767  2.0570 -0.9917 -0.8349
 4499TIP3    H234989   0.884   6.358   5.743  2.7667 -1.4720 -1.3881
 4500TIP3   OH234990   1.940   5.203   5.339 -0.5126  0.0382 -0.1985
 4500TIP3    H134991   1.981   5.241   5.262 -0.2290 -0.0753 -0.1087
 4500TIP3    H234992   1.924   5.277   5.397 -3.0506  0.4894 -1.3763
 4501TIP3   OH234993   0.862   4.104   1.810  0.0223 -0.0889  0.2431
 4501TIP3    H134994   0.776   4.144   1.818  0.7634  1.1750  3.1697
 4501TIP3    H234995   0.921   4.177   1.790  0.7717 -0.4764  0.9742
 4502TIP3   OH234996   3.641   6.818   4.552 -0.0745 -0.8069 -0.2495
 4502TIP3    H134997   3.731   6.812   4.584 -0.7407 -0.2033  1.9559
 4502TIP3    H234998   3.605   6.894   4.597 -1.6973 -1.0487 -1.0691
 4503TIP3   OH234999   2.272   0.966   5.477  0.1903 -0.1653  0.2896
 4503TIP3    H135000   2.183   0.936   5.496  0.2804  0.4930  1.9286
 4503TIP3    H235001   2.266   1.061   5.474  0.6113 -0.1699 -0.9099
 4504TIP3   OH235002   1.551   5.661   0.825 -0.1634  0.2260 -0.0307
 4504TIP3    H135003   1.631   5.614   0.851 -0.7081  0.0795  1.4879
 4504TIP3    H235004   1.550   5.655   0.730  2.1470  1.0838 -0.1833
 4505TIP3   OH235005   2.969   5.370  15.282  0.0846 -1.0155  0.2763
 4505TIP3    H135006   2.909   5.420  15.337  0.4913  0.0150 -0.1824
 4505TIP3    H235007   3.056   5.397  15.311  0.3251  0.3062 -1.4574
 4506TIP3   OH235008   1.096   5.946   3.645  0.4262 -0.6391 -0.0240
 4506TIP3    H135009   1.021   5.888   3.634  1.6312 -2.4626  0.8660
 4506TIP3    H235010   1.069   6.007   3.715 -1.3882  0.9230 -1.9495
 4507TIP3   OH235011   2.364   5.729  13.775  0.3166 -0.3220  0.0595
 4507TIP3    H135012   2.436   5.771  13.821  0.2586 -0.6430  0.4499
 4507TIP3    H235013   2.392   5.638  13.764  1.8846  0.4185 -3.6738
 4508TIP3   OH235014   6.773   5.887  15.393  0.0392 -0.3570 -0.5622
 4508TIP3    H135015   6.828   5.963  15.413 -0.7821  0.4366 -1.2132
 4508TIP3    H235016   6.834   5.815  15.382  0.9887  0.5480 -1.4685
 4509TIP3   OH235017   2.912   0.599  13.680 -0.0725 -0.4189  0.1023
 4509TIP3    H135018   2.958   0.680  13.658 -0.3587 -0.6205 -1.3008
 4509TIP3    H235019   2.841   0.594  13.617  0.5476 -2.2856 -0.5017
 4510TIP3   OH235020   3.132   4.746   2.502  0.6580 -0.1978  0.1409
 4510TIP3    H135021   3.209   4.718   2.552  0.2940 -0.7626  0.3847
 4510TIP3    H235022   3.062   4.751   2.567  0.2226 -0.7645 -0.2839
 4511TIP3   OH235023   0.812   4.732   2.785  0.2421 -0.3252 -0.0129
 4511TIP3    H135024   0.855   4.778   2.857  0.9759 -0.6911 -0.2116
 4511TIP3    H235025   0.882   4.681   2.744 -0.3146 -0.6633 -0.5508
 4512TIP3   OH235026   5.598   5.642   2.358 -0.2709  0.0250 -0.0053
 4512TIP3    H135027   5.674   5.604   2.314  0.0301  0.7194 -0.0976
 4512TIP3    H235028   5.568   5.574   2.418 -1.3841 -1.4138 -2.0582
 4513TIP3   OH235029   1.303   6.352  15.863 -0.2916 -0.3119  0.0665
 4513TIP3    H135030   1.260   6.431  15.829 -2.1005 -1.0187  0.5766
 4513TIP3    H235031   1.266   6.342  15.951  0.8663 -1.0510  0.4863
 4514TIP3   OH235032   6.273   1.041  14.881  0.2262  0.2878 -0.1494
 4514TIP3    H135033   6.219   1.117  14.903 -0.9706 -1.4600  3.9203
 4514TIP3    H235034   6.346   1.045  14.943  0.1735 -1.7873  0.1082
 4515TIP3   OH235035   2.961   6.318   1.410  0.2348  0.3731 -0.3225
 4515TIP3    H135036   2.943   6.261   1.485 -0.2166  1.2837  0.2890
 4515TIP3    H235037   2.929   6.270   1.334 -0.4273 -0.0526  0.2184
 4516TIP3   OH235038   6.662   3.948   3.130 -0.0473 -0.2976 -0.5326
 4516TIP3    H135039   6.674   4.039   3.105 -0.7742 -0.0877 -0.1283
 4516TIP3    H235040   6.569   3.940   3.149  0.4245 -0.4719  2.0001
 4517TIP3   OH235041   3.128   1.829   5.030 -0.0771  0.1737 -0.4435
 4517TIP3    H135042   3.195   1.799   5.092 -1.4116 -1.3839  0.3055
 4517TIP3    H235043   3.090   1.907   5.071 -1.4233 -1.2384  1.1027
 4518TIP3   OH235044   3.921   3.368  11.896  0.0820  0.1425 -0.1464
 4518TIP3    H135045   3.951   3.405  11.813  1.5245  2.0111  1.1154
 4518TIP3    H235046   3.962   3.423  11.963 -2.0747 -0.4560  1.8053
 4519TIP3   OH235047   2.436   2.656  14.919  0.3915  0.1466 -0.3247
 4519TIP3    H135048   2.407   2.715  14.849 -0.3875  1.0233  0.7048
 4519TIP3    H235049   2.472   2.715  14.985 -1.0072 -0.4661  1.0189
 4520TIP3   OH235050   0.253   5.133   1.881 -0.0688  0.6697 -0.3581
 4520TIP3    H135051   0.198   5.058   1.858  1.4305  0.0479 -2.1299
 4520TIP3    H235052   0.330   5.095   1.923  0.0524  1.3579  0.0736
 4521TIP3   OH235053   0.571   6.761  16.108  0.5650 -0.4317 -0.0838
 4521TIP3    H135054   0.518   6.686  16.133  0.4092  0.6447  3.2758
 4521TIP3    H235055   0.607   6.738  16.022  0.3267 -4.1995  0.6787
 4522TIP3   OH235056   1.051   6.040  12.348 -0.4362 -0.1936  0.0883
 4522TIP3    H135057   0.965   6.010  12.376 -0.9826 -0.9811 -2.2346
 4522TIP3    H235058   1.037   6.131  12.322 -0.9423 -0.7179 -1.5991
 4523TIP3   OH235059   1.436   4.621  14.016  0.7387 -0.1441  0.1587
 4523TIP3    H135060   1.453   4.549  13.956 -0.7724 -0.5268  0.1466
 4523TIP3    H235061   1.379   4.582  14.084  0.2268  0.9351  0.3626
 4524TIP3   OH235062   3.852   5.466   0.486  0.8859 -0.2669  0.1311
 4524TIP3    H135063   3.828   5.559   0.483 -1.4573 -0.8122 -0.3383
 4524TIP3    H235064   3.854   5.444   0.579 -0.7303 -0.2112  0.2020
 4525TIP3   OH235065   6.564   2.214  16.378  0.2680 -0.1742  1.1096
 4525TIP3    H135066   6.509   2.201  16.456  1.6956  1.5857  2.5017
 4525TIP3    H235067   6.509   2.265  16.319 -1.3759 -2.7721  0.2186
 4526TIP3   OH235068   5.636   0.633   1.836  0.4102 -0.0132  0.1796
 4526TIP3    H135069   5.551   0.662   1.867 -0.3913  0.6607 -2.4579
 4526TIP3    H235070   5.696   0.703   1.861  0.2290 -0.4112  1.8862
 4527TIP3   OH235071   0.214   1.287   3.314  0.3428 -0.1476 -0.1591
 4527TIP3    H135072   0.140   1.275   3.374 -0.1597 -0.4095 -0.8127
 4527TIP3    H235073   0.253   1.200   3.306  0.9862  0.0687  0.5019
 4528TIP3   OH235074   5.696   3.254   3.112  0.2500  0.4092  0.0751
 4528TIP3    H135075   5.751   3.330   3.129  0.0251  0.5283  0.2807
 4528TIP3    H235076   5.607   3.286   3.128  0.2443 -0.2684  1.4729
 4529TIP3   OH235077   0.421   4.468   2.937  0.6945 -0.1473 -0.1781
 4529TIP3    H135078   0.366   4.521   2.879  0.6094 -1.4592 -1.3438
 4529TIP3    H235079   0.498   4.523   2.953 -0.7164  1.5750  1.1866
 4530TIP3   OH235080   0.247   5.572  15.204 -0.6112 -0.4798 -0.2895
 4530TIP3    H135081   0.307   5.646  15.199 -1.0033 -0.1468 -0.0849
 4530TIP3    H235082   0.175   5.603  15.258 -0.8594 -0.9552 -0.3444
 4531TIP3   OH235083   3.915   2.960  12.269  0.1002  0.2386 -0.3701
 4531TIP3    H135084   3.889   2.873  12.297 -2.1546  0.7587 -0.7022
 4531TIP3    H235085   3.868   3.020  12.328  0.6609  1.2500 -0.9151
 4532TIP3   OH235086   5.543   6.663   6.063 -0.4378  0.8601  0.2991
 4532TIP3    H135087   5.581   6.749   6.078 -0.1464  0.8154 -0.1559
 4532TIP3    H235088   5.572   6.610   6.137  0.1228  0.9117  0.1173
 4533TIP3   OH235089   0.185   0.563  12.785 -0.2968  0.1064  0.0364
 4533TIP3    H135090   0.251   0.630  12.765 -0.4924  0.7077  1.2758
 4533TIP3    H235091   0.118   0.575  12.719  0.0804  0.5784 -0.2696
 4534TIP3   OH235092   6.476   5.705  15.305 -0.1802  0.4734 -0.8606
 4534TIP3    H135093   6.501   5.745  15.222 -1.2151  2.3653 -0.3153
 4534TIP3    H235094   6.400   5.650  15.282 -1.0355  1.6933 -1.0582
 4535TIP3   OH235095   1.447   2.171   0.386 -0.0515 -0.5680 -0.5160
 4535TIP3    H135096   1.397   2.225   0.325 -0.1350  0.7174  0.6473
 4535TIP3    H235097   1.508   2.122   0.330 -1.2204 -0.6588 -1.7638
 4536TIP3   OH235098   5.733   0.207   3.009  1.0838  0.5109 -0.1259
 4536TIP3    H135099   5.672   0.171   3.073 -0.3344  1.7152 -0.7494
 4536TIP3    H235100   5.791   0.264   3.060  1.7286 -0.6432  0.4698
 4537TIP3   OH235101   1.937   2.933   1.528  0.4219  0.6124  0.1929
 4537TIP3    H135102   1.988   2.860   1.563  1.7314  1.5048  0.2553
 4537TIP3    H235103   1.962   3.007   1.584 -0.1163  1.3179 -0.4849
 4538TIP3   OH235104   3.262   3.153  16.177 -0.2939 -0.3386 -0.0868
 4538TIP3    H135105   3.223   3.236  16.204 -1.9176 -0.0273 -3.0023
 4538TIP3    H235106   3.339   3.178  16.126  0.1948 -0.7370  0.4317
 4539TIP3   OH235107   3.512   0.965  12.533  0.2611  0.4369  0.2172
 4539TIP3    H135108   3.601   0.939  12.553  0.4418  1.9109  1.5670
 4539TIP3    H235109   3.509   0.971  12.437  1.1314 -1.1098  0.0702
 4540TIP3   OH235110   6.084   1.132  13.817  0.3098 -0.5199 -0.1528
 4540TIP3    H135111   6.101   1.196  13.886 -1.3919 -1.1437  0.9016
 4540TIP3    H235112   6.158   1.142  13.757  0.6453  1.6551  0.5403
 4541TIP3   OH235113   3.099   4.948  14.534 -0.3447  0.0715 -0.3236
 4541TIP3    H135114   3.088   5.030  14.485  0.8632  0.9910  0.8645
 4541TIP3    H235115   3.042   4.886  14.489  1.5555  0.4906 -3.6720
 4542TIP3   OH235116   4.680   5.381   0.951 -0.6349  0.1924 -0.3689
 4542TIP3    H135117   4.617   5.324   0.907 -1.0385  1.1843 -1.1031
 4542TIP3    H235118   4.641   5.397   1.037 -1.9429  1.6559 -1.1911
 4543TIP3   OH235119   3.077   0.090  15.603  0.3899  0.0897  0.3298
 4543TIP3    H135120   3.074   0.109  15.697 -0.5226 -2.5099  0.9041
 4543TIP3    H235121   2.989   0.061  15.582  0.3774  1.3521 -1.5572
 4544TIP3   OH235122   0.818   5.107   3.662  0.5694  0.2064 -0.1388
 4544TIP3    H135123   0.850   5.023   3.631 -1.5198  0.2541 -2.8498
 4544TIP3    H235124   0.865   5.172   3.609  1.4187  0.7522  1.2160
 4545TIP3   OH235125   3.088   2.202  12.847 -0.0466 -0.4148  0.3705
 4545TIP3    H135126   3.121   2.113  12.836 -0.6459 -0.6350  0.2999
 4545TIP3    H235127   3.082   2.214  12.941 -1.8829 -1.1992  0.4030
 4546TIP3   OH235128   4.048   4.472  12.752 -0.4220  0.0446 -0.2249
 4546TIP3    H135129   4.088   4.430  12.676 -1.4106 -1.2525 -0.0795
 4546TIP3    H235130   4.055   4.406  12.822 -0.2626  0.8897  0.5735
 4547TIP3   OH235131   5.525   6.171  14.756 -0.1129  0.1251  0.6253
 4547TIP3    H135132   5.451   6.224  14.726  0.1279  0.8525  1.2876
 4547TIP3    H235133   5.602   6.221  14.729  0.1481 -0.6564 -0.1113
 4548TIP3   OH235134   2.486   2.519   3.956 -0.1968 -0.2130  0.1898
 4548TIP3    H135135   2.407   2.573   3.958 -1.2044 -1.6310  0.5792
 4548TIP3    H235136   2.512   2.512   4.048 -1.4579 -2.2641  0.4487
 4549TIP3   OH235137   2.864   1.522  12.414 -0.3370 -0.3389  0.4871
 4549TIP3    H135138   2.785   1.574  12.426 -0.0085 -0.0293  1.4685
 4549TIP3    H235139   2.835   1.431  12.423 -0.6625 -0.2524  0.3169
 4550TIP3   OH235140   1.324   5.866  11.076 -0.2254 -0.1283 -0.0206
 4550TIP3    H135141   1.267   5.823  11.140  0.3591 -2.5340 -1.0291
 4550TIP3    H235142   1.271   5.938  11.042 -2.9520 -2.5827 -1.3192
 4551TIP3   OH235143   2.063   3.677  13.093  0.4777 -0.3434  0.2236
 4551TIP3    H135144   2.128   3.674  13.022 -0.4127  1.0954 -0.6968
 4551TIP3    H235145   2.114   3.663  13.173  1.8025 -0.0633 -0.5453
 4552TIP3   OH235146   3.164   0.761   4.822 -0.0172 -0.3353 -0.5643
 4552TIP3    H135147   3.178   0.840   4.768  0.5119  1.2647  1.7711
 4552TIP3    H235148   3.074   0.734   4.801 -0.1226  0.7106 -1.6028
 4553TIP3   OH235149   6.406   6.215  15.199  0.8797 -0.6249 -0.1792
 4553TIP3    H135150   6.497   6.200  15.171  1.5647  1.1441  0.9606
 4553TIP3    H235151   6.369   6.270  15.130  1.4022  0.5419  0.4354
 4554TIP3   OH235152   5.998   4.972   5.085 -0.0056  0.3884  0.1621
 4554TIP3    H135153   6.005   4.987   5.180 -0.7900  1.8960  0.0044
 4554TIP3    H235154   6.087   4.987   5.053  0.5743 -1.4341  0.7913
 4555TIP3   OH235155   3.002   6.085   4.985  0.3226  0.4458  0.7494
 4555TIP3    H135156   2.998   6.098   4.890  0.3796 -0.7030  0.5810
 4555TIP3    H235157   3.026   6.171   5.020 -0.7545  1.1487 -0.1853
 4556TIP3   OH235158   0.618   3.653   0.771 -0.1485  0.5790 -0.1797
 4556TIP3    H135159   0.677   3.618   0.838 -2.7624 -1.1085  1.3758
 4556TIP3    H235160   0.618   3.587   0.702  1.4387  1.6565 -1.2890
 4557TIP3   OH235161   5.933   6.424  14.518 -0.1756  0.1389  0.3577
 4557TIP3    H135162   5.942   6.510  14.560  0.6334 -0.1835  0.8684
 4557TIP3    H235163   5.863   6.436  14.454  0.6840  1.5025 -0.3807
 4558TIP3   OH235164   1.998   4.185   1.849 -0.2376  0.4426 -0.4901
 4558TIP3    H135165   1.914   4.158   1.887  0.5194  1.5198  2.2263
 4558TIP3    H235166   1.976   4.257   1.790 -1.0918  2.4874  2.1331
 4559TIP3   OH235167   5.000   2.183  12.290 -0.3210 -0.1721  0.4329
 4559TIP3    H135168   5.070   2.169  12.354  1.0513  0.9525 -0.7591
 4559TIP3    H235169   5.031   2.141  12.210 -0.8697  0.5786 -0.1976
 4560TIP3   OH235170   4.273   3.811  11.747  0.1017 -0.2741 -0.6834
 4560TIP3    H135171   4.331   3.755  11.798  0.7596  0.9154 -0.0861
 4560TIP3    H235172   4.203   3.752  11.717  2.2565 -2.0660 -2.5677
 4561TIP3   OH235173   0.293   3.635   1.746 -0.3422 -0.6827  0.0421
 4561TIP3    H135174   0.234   3.563   1.765  0.4094 -1.4967 -0.6052
 4561TIP3    H235175   0.313   3.673   1.832 -2.2262 -0.0059  0.2290
 4562TIP3   OH235176   1.093   2.175   1.131  0.1419 -0.0096  0.4142
 4562TIP3    H135177   1.016   2.231   1.117  0.8044  0.6666 -0.7675
 4562TIP3    H235178   1.167   2.233   1.115  0.9190 -0.5903  1.7729
 4563TIP3   OH235179   0.751   4.836   5.799  0.2029 -0.0358  0.0982
 4563TIP3    H135180   0.659   4.812   5.804 -0.0307 -0.2895 -3.1650
 4563TIP3    H235181   0.751   4.931   5.786  0.2211 -0.2666 -1.8532
 4564TIP3   OH235182   6.438   6.420   3.792 -0.1242 -0.3097 -0.0896
 4564TIP3    H135183   6.480   6.392   3.873 -0.3513 -0.8065 -0.1396
 4564TIP3    H235184   6.428   6.515   3.801 -2.6919 -0.6467  1.6909
 4565TIP3   OH235185   1.002   0.414   4.890  0.1567 -0.4419  0.3563
 4565TIP3    H135186   1.073   0.358   4.922  0.9040  0.5379  0.4423
 4565TIP3    H235187   0.946   0.428   4.966  0.2481 -0.6396  0.4607
 4566TIP3   OH235188   1.353   6.364  15.216 -0.1386  0.1491  0.3059
 4566TIP3    H135189   1.392   6.277  15.204 -1.3468 -0.5290  0.9861
 4566TIP3    H235190   1.363   6.407  15.132 -0.3737 -1.0338 -0.3572
 4567TIP3   OH235191   5.812   5.264   2.755 -0.3263  0.1343 -0.3448
 4567TIP3    H135192   5.882   5.214   2.797 -0.9589 -0.3839  0.1260
 4567TIP3    H235193   5.732   5.237   2.802 -1.0481 -0.3714 -1.7912
 4568TIP3   OH235194   5.674   2.075  15.889 -0.3557 -0.0012  0.3821
 4568TIP3    H135195   5.763   2.043  15.879  0.3352  0.9617  2.7401
 4568TIP3    H235196   5.677   2.165  15.856 -1.5867 -1.1680 -3.4784
 4569TIP3   OH235197   4.283   5.641  12.331 -0.3018  0.0713 -0.3121
 4569TIP3    H135198   4.371   5.674  12.349 -1.2954  1.7950  1.8576
 4569TIP3    H235199   4.226   5.691  12.390 -2.5075 -2.4806 -0.0997
 4570TIP3   OH235200   5.093   4.806  13.856  0.1106 -0.0014  0.6398
 4570TIP3    H135201   5.049   4.779  13.776 -0.5966  1.0547  0.6569
 4570TIP3    H235202   5.174   4.755  13.857  0.2664  0.1728 -0.8868
 4571TIP3   OH235203   4.798   6.315   3.481  0.0219  0.0085  0.0178
 4571TIP3    H135204   4.765   6.244   3.536  1.7775  0.1970  1.4071
 4571TIP3    H235205   4.820   6.274   3.398 -0.1057 -0.8395  0.3950
 4572TIP3   OH235206   4.079   3.246  14.460 -0.3090 -0.2021 -0.7395
 4572TIP3    H135207   4.006   3.185  14.475 -0.5417  0.1723 -0.3181
 4572TIP3    H235208   4.146   3.218  14.522  0.1403 -0.8988 -1.5109
 4573TIP3   OH235209   5.194   0.072   2.049 -0.5866  0.3157  0.9887
 4573TIP3    H135210   5.283   0.069   2.084  0.9501  2.9017 -2.1721
 4573TIP3    H235211   5.189  -0.004   1.991 -0.4646  0.1317  1.2160
 4574TIP3   OH235212   2.710   4.396  15.676 -0.2156 -0.0879  0.3556
 4574TIP3    H135213   2.780   4.388  15.740 -0.8638  2.0778  1.4367
 4574TIP3    H235214   2.629   4.394  15.728 -1.0494 -2.6502 -0.8661
 4575TIP3   OH235215   1.641   4.549  16.080 -0.5067 -0.1885 -0.2936
 4575TIP3    H135216   1.609   4.504  16.159 -1.7746  2.4620  0.8220
 4575TIP3    H235217   1.590   4.511  16.009 -0.9719 -1.0599  0.4778
 4576TIP3   OH235218   3.244   0.165  16.312  0.3132  0.0472  0.5477
 4576TIP3    H135219   3.210   0.126  16.231  2.8281 -0.2514 -0.4389
 4576TIP3    H235220   3.322   0.213  16.286  1.9198 -1.0570  2.9487
 4577TIP3   OH235221   1.085   5.014   1.271  0.3344 -0.1509  0.1957
 4577TIP3    H135222   1.128   5.074   1.331  1.6661 -1.3930  0.5244
 4577TIP3    H235223   1.038   4.952   1.327  2.9548 -2.3636  0.1721
 4578TIP3   OH235224   0.396   2.781  13.066  0.1932  0.0873  0.4840
 4578TIP3    H135225   0.424   2.775  13.158 -1.3781  0.7670  1.0404
 4578TIP3    H235226   0.302   2.799  13.071  0.1871  0.6917 -1.2633
 4579TIP3   OH235227   1.745   4.623  13.532  0.4787 -0.3334  0.2872
 4579TIP3    H135228   1.727   4.646  13.440 -1.5223  0.4986  0.8252
 4579TIP3    H235229   1.840   4.634  13.541  0.5588  0.8089 -1.3716
 4580TIP3   OH235230   4.529   3.478   2.474 -0.1680 -0.3248  0.2009
 4580TIP3    H135231   4.488   3.467   2.560 -0.4386  0.7887  0.2302
 4580TIP3    H235232   4.504   3.566   2.448  0.7361 -0.3005 -0.5891
 4581TIP3   OH235233   5.243   3.346   1.897  0.2004 -0.2304 -0.7340
 4581TIP3    H135234   5.190   3.294   1.957 -1.1668 -0.1573 -1.8270
 4581TIP3    H235235   5.199   3.431   1.892  0.6484 -0.0191 -1.3430
 4582TIP3   OH235236   1.725   4.941   3.880  0.2949 -0.6600  0.2598
 4582TIP3    H135237   1.658   4.874   3.893  0.0733 -0.1136  2.2986
 4582TIP3    H235238   1.716   4.999   3.956  1.1409  1.1162 -0.9069
 4583TIP3   OH235239   2.770   1.041   2.613  0.3614 -0.0743  0.7381
 4583TIP3    H135240   2.766   1.129   2.651  0.1324 -0.1004  0.7756
 4583TIP3    H235241   2.692   1.037   2.556  1.2815  0.3837 -0.6189
 4584TIP3   OH235242   6.021   6.475  14.136 -0.4113 -0.0646 -0.1960
 4584TIP3    H135243   6.035   6.452  14.044 -0.2001  0.7295 -0.3758
 4584TIP3    H235244   5.940   6.528  14.134 -0.4276 -0.0811  0.0771
 4585TIP3   OH235245   2.430   1.311   4.567  0.0201 -0.7896  0.4218
 4585TIP3    H135246   2.383   1.234   4.536 -1.3397 -0.8341  2.3868
 4585TIP3    H235247   2.364   1.361   4.616  1.2653  0.7985  0.5624
 4586TIP3   OH235248   3.246   4.006  13.822 -0.2161  0.1850 -0.1327
 4586TIP3    H135249   3.326   4.059  13.829 -0.7096  0.8012  1.1319
 4586TIP3    H235250   3.205   4.036  13.741  1.2955 -0.8365 -1.3371
 4587TIP3   OH235251   4.431   5.665   6.611 -0.3725  0.3382 -0.1713
 4587TIP3    H135252   4.466   5.746   6.572 -0.3826  0.6063  0.3730
 4587TIP3    H235253   4.469   5.595   6.558  0.2345  0.6691 -0.1814
 4588TIP3   OH235254   3.563   4.801   0.071  0.5005  0.1043  0.2353
 4588TIP3    H135255   3.531   4.872   0.016  0.4360 -0.1957 -0.1210
 4588TIP3    H235256   3.509   4.725   0.045  1.2135 -0.3086 -0.0751
 4589TIP3   OH235257   6.429   0.990  11.276  0.9225  0.5392 -0.7130
 4589TIP3    H135258   6.427   1.080  11.244  1.4876  0.6651 -0.3979
 4589TIP3    H235259   6.519   0.977  11.306  0.3397  0.5350  1.1698
 4590TIP3   OH235260   0.550   4.319  14.691  0.1341 -0.0334 -0.0731
 4590TIP3    H135261   0.523   4.352  14.777 -2.4220 -0.5608 -0.5911
 4590TIP3    H235262   0.495   4.366  14.629  0.0925 -1.5113 -1.1994
 4591TIP3   OH235263   5.950   2.137   4.868  0.4928  0.4164  0.0292
 4591TIP3    H135264   5.862   2.172   4.853  0.6168  1.3811  1.3990
 4591TIP3    H235265   5.936   2.043   4.881 -0.5089  0.7207  1.4029
 4592TIP3   OH235266   5.390   1.579   3.955  0.0695  0.5383  1.2550
 4592TIP3    H135267   5.481   1.600   3.971  0.3603  0.0551  0.3203
 4592TIP3    H235268   5.380   1.586   3.860 -1.0185  1.1841  1.3955
 4593TIP3   OH235269   0.625   0.768   5.238 -0.5456 -0.0148  0.3486
 4593TIP3    H135270   0.643   0.815   5.319  0.0045  1.1631 -0.4263
 4593TIP3    H235271   0.552   0.816   5.198  1.5403  1.7669 -1.6130
 4594TIP3   OH235272   2.422   4.203  15.646  0.4497 -0.3350  0.3415
 4594TIP3    H135273   2.420   4.288  15.691  0.9746 -0.1535  0.0237
 4594TIP3    H235274   2.402   4.224  15.554  1.7590 -0.3981  0.0302
 4595TIP3   OH235275   1.203   0.376   2.609  0.6177 -0.2621 -0.2205
 4595TIP3    H135276   1.266   0.348   2.542  0.7792  1.8090 -0.9870
 4595TIP3    H235277   1.250   0.364   2.692  1.0336 -1.2266 -0.5772
 4596TIP3   OH235278   6.431   0.902   5.256 -0.2523  0.2087 -0.2130
 4596TIP3    H135279   6.437   0.986   5.301  0.4829 -0.8919  1.8555
 4596TIP3    H235280   6.485   0.843   5.307 -1.7547 -1.8657 -0.8695
 4597TIP3   OH235281   0.604   2.808   6.269 -0.1921  0.1573  0.2729
 4597TIP3    H135282   0.699   2.815   6.272 -0.0129 -1.8925  0.4754
 4597TIP3    H235283   0.582   2.744   6.336 -1.5452 -0.7652 -0.9981
 4598TIP3   OH235284   3.966   2.793   2.531 -0.1892 -0.0765 -0.5296
 4598TIP3    H135285   4.032   2.828   2.592 -1.0037 -0.4887  0.6186
 4598TIP3    H235286   4.017   2.743   2.468  0.6596  0.0714  0.0137
 4599TIP3   OH235287   3.089   5.880  11.813  0.1896  0.0219  0.4808
 4599TIP3    H135288   3.060   5.953  11.758  0.0055  0.5395  1.2516
 4599TIP3    H235289   3.019   5.815  11.807  0.4940 -0.2391 -0.4515
 4600TIP3   OH235290   2.955   0.785   2.745  0.0323 -0.3553 -0.1941
 4600TIP3    H135291   3.040   0.828   2.750 -0.6133  0.9838 -0.3669
 4600TIP3    H235292   2.943   0.767   2.652 -0.5237  0.8604 -0.3787
 4601TIP3   OH235293   2.727   4.887  13.234  0.2519 -0.0472 -0.0713
 4601TIP3    H135294   2.714   4.974  13.196  1.3514 -0.7120 -2.1546
 4601TIP3    H235295   2.791   4.900  13.304  0.5080  0.8080 -0.4511
 4602TIP3   OH235296   5.580   3.102   3.567  0.5474 -0.5260 -0.0282
 4602TIP3    H135297   5.554   3.128   3.479 -0.0047 -1.4394 -0.1365
 4602TIP3    H235298   5.630   3.177   3.600 -1.6266  1.0204 -0.0513
 4603TIP3   OH235299   3.388   3.241  11.052 -0.3630  0.2597 -0.0209
 4603TIP3    H135300   3.379   3.305  11.123  1.9739 -0.8485  1.4119
 4603TIP3    H235301   3.463   3.271  11.001 -0.6128 -0.1820 -0.6627
 4604TIP3   OH235302   1.479   3.210   3.653  0.0611  0.3904  0.4347
 4604TIP3    H135303   1.451   3.120   3.635  3.4906 -0.5380 -0.9942
 4604TIP3    H235304   1.477   3.216   3.749  2.0077 -2.1298  0.7481
 4605TIP3   OH235305   2.092   5.192   0.838  0.4088  0.2649  0.0294
 4605TIP3    H135306   2.025   5.160   0.778  0.7305 -2.0890  0.8015
 4605TIP3    H235307   2.173   5.190   0.787  0.2045  1.2671 -0.3450
 4606TIP3   OH235308   4.892   2.145   3.965  0.0372 -0.0295  0.5043
 4606TIP3    H135309   4.957   2.184   4.024 -1.2189  1.9665  0.6481
 4606TIP3    H235310   4.938   2.135   3.882  0.5864  1.2385  0.6351
 4607TIP3   OH235311   1.047   4.618   4.014  0.6012  0.1673 -0.2356
 4607TIP3    H135312   1.004   4.700   4.039 -0.7864 -0.7644  0.5451
 4607TIP3    H235313   1.103   4.597   4.090  1.7657  0.8939 -0.8632
 4608TIP3   OH235314   2.112   1.520  16.698  0.0594  0.4877 -0.4607
 4608TIP3    H135315   2.077   1.599  16.740  0.5105 -0.4775  1.8873
 4608TIP3    H235316   2.205   1.519  16.723 -0.0041 -0.9147 -0.2320
 4609TIP3   OH235317   2.665   2.676  16.373 -0.4535 -0.3125  0.0023
 4609TIP3    H135318   2.717   2.615  16.320 -0.3278 -0.8285  0.7026
 4609TIP3    H235319   2.616   2.619  16.432  0.0388  0.2902  1.0179
 4610TIP3   OH235320   2.255   2.869   1.549 -0.0985  0.1809  1.0654
 4610TIP3    H135321   2.288   2.922   1.622 -0.6497 -0.3815  1.7339
 4610TIP3    H235322   2.185   2.816   1.587 -1.1150  0.6303 -0.1012
 4611TIP3   OH235323   5.811   3.691  15.189 -0.1969  0.4450 -0.5842
 4611TIP3    H135324   5.857   3.758  15.240  1.4162 -0.8596 -0.2093
 4611TIP3    H235325   5.848   3.699  15.101 -0.0826  0.1315 -0.5653
 4612TIP3   OH235326   1.459   5.910   0.910 -0.8279 -0.1464 -0.2525
 4612TIP3    H135327   1.476   5.842   0.845 -0.0819  0.3760 -0.6282
 4612TIP3    H235328   1.532   5.903   0.972 -0.9495  0.0575 -0.0822
 4613TIP3   OH235329   0.002   5.748  13.927  1.1344 -0.3311  0.1353
 4613TIP3    H135330   0.024   5.839  13.949 -2.2171  0.9051 -1.1145
 4613TIP3    H235331  -0.032   5.752  13.838 -1.8091 -2.2717  1.0521
 4614TIP3   OH235332   3.070   4.419   5.340  0.2662  0.0524 -0.1866
 4614TIP3    H135333   3.160   4.452   5.347  0.8200 -1.1711 -1.0652
 4614TIP3    H235334   3.015   4.496   5.349  1.4457  0.9701 -0.5662
 4615TIP3   OH235335   5.728   2.131   1.858  0.5099 -0.1593 -0.0571
 4615TIP3    H135336   5.778   2.063   1.904 -0.9324 -0.9323  0.4222
 4615TIP3    H235337   5.638   2.120   1.889  0.2860  2.2483  0.3479
 4616TIP3   OH235338   5.470   4.718  14.489  0.1026  0.5363  0.5357
 4616TIP3    H135339   5.395   4.660  14.496 -0.8009  1.6791  0.6591
 4616TIP3    H235340   5.540   4.663  14.455 -0.3551 -0.9306  1.8390
 4617TIP3   OH235341   4.258   2.729  15.859 -0.3617 -0.2824 -0.4781
 4617TIP3    H135342   4.314   2.660  15.894  1.2600  1.2596  0.1110
 4617TIP3    H235343   4.172   2.713  15.898  0.0252 -1.8110 -0.1874
 4618TIP3   OH235344   0.709   6.786   5.441  0.4915 -0.3747 -0.1430
 4618TIP3    H135345   0.797   6.783   5.477  1.2982  0.9756 -1.8595
 4618TIP3    H235346   0.721   6.795   5.347 -1.4912 -0.4814 -0.4655
 4619TIP3   OH235347   6.736   6.336  10.995  0.1476  0.1769 -0.4527
 4619TIP3    H135348   6.788   6.261  10.966  3.3399  1.3821  1.5427
 4619TIP3    H235349   6.784   6.413  10.964 -0.0980  1.3939  1.8580
 4620TIP3   OH235350   0.190   3.727  14.939 -0.2399 -0.1079  0.3860
 4620TIP3    H135351   0.274   3.711  14.897  0.9398  0.5234  2.3861
 4620TIP3    H235352   0.133   3.757  14.868  1.7206  1.1661 -0.7332
 4621TIP3   OH235353   4.853   4.094   6.644  0.0818 -0.9132  0.1800
 4621TIP3    H135354   4.785   4.129   6.587  0.0759  0.6361  1.1087
 4621TIP3    H235355   4.920   4.162   6.647  0.6588 -1.4946  1.0350
 4622TIP3   OH235356   5.030   6.466   0.134 -0.2468  0.7449  0.3127
 4622TIP3    H135357   5.010   6.429   0.220  1.7529  1.1697  1.0022
 4622TIP3    H235358   5.026   6.391   0.074 -0.9476  0.3172  0.8805
 4623TIP3   OH235359   6.318   6.438  16.875  0.4032 -0.3963 -0.5207
 4623TIP3    H135360   6.264   6.506  16.914 -0.9449 -1.9044  0.3305
 4623TIP3    H235361   6.277   6.419  16.791  0.0345 -1.0105 -0.2087
 4624TIP3   OH235362   0.013   4.160   1.714 -0.2690 -0.0685  0.0173
 4624TIP3    H135363  -0.079   4.168   1.690 -0.4212  1.0110  0.9122
 4624TIP3    H235364   0.015   4.169   1.809  0.7540 -0.1152  0.0160
 4625TIP3   OH235365   5.021   2.542   3.174  0.2122  0.3340  0.1774
 4625TIP3    H135366   4.986   2.530   3.086  2.2606 -0.8747 -0.5355
 4625TIP3    H235367   5.032   2.636   3.183  0.3718  0.4516 -1.0498
 4626TIP3   OH235368   4.452   0.437   3.753  0.4206 -0.3568 -0.9264
 4626TIP3    H135369   4.544   0.461   3.756  0.6508 -0.7684 -2.9090
 4626TIP3    H235370   4.440   0.375   3.825  0.9154  1.9901  1.2846
 4627TIP3   OH235371   4.776   0.809  15.077 -0.9860  0.0829 -0.7578
 4627TIP3    H135372   4.833   0.797  15.153 -1.5011 -0.1074 -0.3928
 4627TIP3    H235373   4.724   0.886  15.098 -1.3547 -0.1604 -0.7717
 4628TIP3   OH235374   3.630   6.506   2.248  0.5452  0.1680 -0.6535
 4628TIP3    H135375   3.690   6.456   2.303  1.1074  1.4177 -0.0728
 4628TIP3    H235376   3.684   6.540   2.177 -0.0409 -0.8803 -1.6194
 4629TIP3   OH235377   2.249   6.814   6.152  0.1407  0.6215  0.2116
 4629TIP3    H135378   2.214   6.750   6.215  1.0276  0.3125  0.4079
 4629TIP3    H235379   2.192   6.890   6.162 -1.2602 -0.2967 -0.3845
 4630TIP3   OH235380   1.516   6.618   2.809 -0.2837 -0.0581 -0.2377
 4630TIP3    H135381   1.465   6.694   2.780  0.7257  1.4452  1.6257
 4630TIP3    H235382   1.606   6.650   2.814 -0.0588 -0.8285  2.1379
 4631TIP3   OH235383   6.681   2.518   4.068  0.3725 -0.2563 -0.2665
 4631TIP3    H135384   6.704   2.574   3.994 -2.7550 -0.1213 -1.2957
 4631TIP3    H235385   6.701   2.570   4.146  1.1535  0.6950 -1.0877
 4632TIP3   OH235386   3.274   2.014  16.474  0.2839  0.1341  0.0503
 4632TIP3    H135387   3.329   1.947  16.515  0.0718 -0.7826 -1.1200
 4632TIP3    H235388   3.202   1.965  16.434 -0.5028  1.1765  0.1595
 4633TIP3   OH235389   3.198   3.022  13.600 -0.1399 -0.4487  0.0271
 4633TIP3    H135390   3.148   2.968  13.660 -0.6970  0.2414  0.1924
 4633TIP3    H235391   3.136   3.045  13.530 -0.6410  1.9128  1.1525
 4634TIP3   OH235392   6.581   1.281  16.232  0.3112 -0.6868 -0.3858
 4634TIP3    H135393   6.641   1.206  16.226  1.8991  0.4538  0.3249
 4634TIP3    H235394   6.634   1.356  16.203 -0.8343  0.3537  0.1152
 4635TIP3   OH235395   6.298   1.726  14.830  0.3083 -0.3919  0.1031
 4635TIP3    H135396   6.326   1.706  14.741  2.2096  0.6189  0.4298
 4635TIP3    H235397   6.252   1.810  14.823  0.2221 -0.4471  0.0226
 4636TIP3   OH235398   1.071   5.683   2.353 -0.5644  0.0155 -0.7963
 4636TIP3    H135399   1.051   5.776   2.339  1.0509  0.5393  0.1352
 4636TIP3    H235400   0.993   5.648   2.395 -1.2275  0.9204 -1.2308
 4637TIP3   OH235401   1.266   3.950  11.881  0.6859 -0.3882  0.4126
 4637TIP3    H135402   1.285   3.866  11.924 -0.4497 -0.6083  0.5216
 4637TIP3    H235403   1.349   3.996  11.881  1.3157 -1.4867  0.4310
 4638TIP3   OH235404   1.343   5.740   4.789 -0.1089 -0.2734 -0.1419
 4638TIP3    H135405   1.265   5.684   4.787  0.8487 -1.6680 -2.0798
 4638TIP3    H235406   1.320   5.815   4.734 -0.4987 -0.0532  0.3161
 4639TIP3   OH235407   1.853   0.106  16.517 -0.4669 -0.1695 -0.3936
 4639TIP3    H135408   1.850   0.010  16.523 -0.6086 -0.1305  0.2476
 4639TIP3    H235409   1.761   0.133  16.518 -0.4108  0.0349  0.7276
 4640TIP3   OH235410   1.644   1.362  16.641  0.2949  0.2746  0.2879
 4640TIP3    H135411   1.725   1.359  16.691  1.1034 -2.1221 -1.0183
 4640TIP3    H235412   1.665   1.319  16.558 -2.4728 -1.1371  0.1975
 4641TIP3   OH235413   4.180   3.317  15.555 -0.0305  0.5869 -0.2471
 4641TIP3    H135414   4.128   3.392  15.583 -0.4515 -0.5691  2.3472
 4641TIP3    H235415   4.141   3.242  15.601  3.2320 -0.5013  0.9870
 4642TIP3   OH235416   1.761   5.163   4.044  0.2807  0.7075 -0.2763
 4642TIP3    H135417   1.830   5.186   4.107 -1.0488  1.0661  1.0851
 4642TIP3    H235418   1.680   5.191   4.085 -1.0945 -2.7340 -0.3024
 4643TIP3   OH235419   1.075   6.374  12.559 -0.2034 -0.3354  0.1990
 4643TIP3    H135420   1.049   6.365  12.467  0.5557 -0.1631 -0.0393
 4643TIP3    H235421   1.049   6.463  12.582  0.0330 -0.2137  0.0051
 4644TIP3   OH235422   4.812   4.870   1.077 -0.1085  0.0031  0.0718
 4644TIP3    H135423   4.893   4.820   1.077  0.3145  0.6610  1.0452
 4644TIP3    H235424   4.840   4.962   1.085 -0.8258  0.5017 -2.3773
 4645TIP3   OH235425   4.511   5.200   1.359 -0.4700 -0.0625  0.3411
 4645TIP3    H135426   4.494   5.119   1.311 -1.3092  0.4626 -0.2861
 4645TIP3    H235427   4.453   5.196   1.435  2.0294 -1.6584  2.3294
 4646TIP3   OH235428   6.341   3.424   0.595  0.2774 -0.0218  0.0867
 4646TIP3    H135429   6.365   3.504   0.548 -0.1550  0.1104  0.0900
 4646TIP3    H235430   6.319   3.453   0.683 -1.3403  0.0656 -0.3197
 4647TIP3   OH235431   4.772   3.778   3.985  0.3438  0.3794 -0.1366
 4647TIP3    H135432   4.687   3.806   4.018  0.2988 -1.4979  1.5824
 4647TIP3    H235433   4.835   3.834   4.030  0.0612  1.8222 -1.4703
 4648TIP3   OH235434   6.539   6.437   3.446 -0.0042 -0.2972  0.7164
 4648TIP3    H135435   6.449   6.421   3.472 -0.0031  0.4001  1.1655
 4648TIP3    H235436   6.534   6.508   3.382  0.1105 -1.1394 -0.2481
 4649TIP3   OH235437   2.771   5.350   1.322  0.0752  0.3223  0.5224
 4649TIP3    H135438   2.769   5.375   1.230 -1.9809 -1.0799  0.1218
 4649TIP3    H235439   2.714   5.413   1.366 -0.0385  0.1652  0.6012
 4650TIP3   OH235440   2.320   3.213   3.542 -0.0103 -0.5228 -0.3440
 4650TIP3    H135441   2.413   3.226   3.522 -0.6111  1.0881 -2.5002
 4650TIP3    H235442   2.292   3.144   3.481 -1.0232  1.7715 -2.6680
 4651TIP3   OH235443   4.244   5.893  15.910 -0.3081  0.1850  0.4659
 4651TIP3    H135444   4.265   5.826  15.845  0.4275 -0.3207  1.2005
 4651TIP3    H235445   4.155   5.919  15.890 -0.3277 -0.4549 -0.3184
 4652TIP3   OH235446   2.305   5.279   2.311 -0.0595 -0.2718  0.2883
 4652TIP3    H135447   2.338   5.319   2.231  0.0400 -0.9643 -0.0151
 4652TIP3    H235448   2.232   5.336   2.338 -0.2788 -0.2041 -0.4434
 4653TIP3   OH235449   0.558   5.301   4.835 -0.1119 -0.6103  0.1554
 4653TIP3    H135450   0.621   5.353   4.885 -0.6386 -0.3301  0.5417
 4653TIP3    H235451   0.480   5.356   4.831  0.3393 -0.0131 -2.1634
 4654TIP3   OH235452   5.123   2.276  14.351 -0.3227 -0.3095 -0.8631
 4654TIP3    H135453   5.168   2.350  14.310 -0.1557 -0.0679 -0.2551
 4654TIP3    H235454   5.182   2.248  14.422 -1.6276  0.7398  0.6989
 4655TIP3   OH235455   6.629   6.731   3.648 -0.5549  0.1473 -0.1444
 4655TIP3    H135456   6.669   6.736   3.735 -0.7762  0.9015 -0.0835
 4655TIP3    H235457   6.569   6.657   3.653  0.6972 -0.9139 -0.1865
 4656TIP3   OH235458   0.885   0.459  10.570  0.3756 -0.0696  0.0076
 4656TIP3    H135459   0.830   0.466  10.647 -1.3985  4.1925 -1.3689
 4656TIP3    H235460   0.829   0.417  10.504  1.0903 -1.5759  0.3197
 4657TIP3   OH235461   0.135   2.741  11.153 -0.7172 -0.3930  0.0335
 4657TIP3    H135462   0.055   2.774  11.112 -0.5044  0.3538  0.2093
 4657TIP3    H235463   0.135   2.778  11.241  0.4848  0.7387 -0.4057
 4658TIP3   OH235464   3.705   4.123  12.105  0.0111 -0.0724 -0.3710
 4658TIP3    H135465   3.641   4.163  12.165 -0.0851  0.6132 -0.9190
 4658TIP3    H235466   3.783   4.110  12.159 -0.4398 -0.4862  0.1858
 4659TIP3   OH235467   1.268   5.929  15.983  0.2160  0.6086  0.2973
 4659TIP3    H135468   1.228   5.878  16.054  1.4878  0.3300  0.8516
 4659TIP3    H235469   1.316   5.999  16.028 -2.3083  3.0137 -0.4689
 4660TIP3   OH235470   4.043   6.687  12.539 -0.1206  0.2098  0.0709
 4660TIP3    H135471   4.129   6.690  12.498  0.2061  2.4946  0.7786
 4660TIP3    H235472   4.046   6.756  12.605 -1.9913 -0.6862  1.1536
 4661TIP3   OH235473   3.516   3.540  14.948 -0.1149 -0.0114  0.2493
 4661TIP3    H135474   3.539   3.570  14.860 -0.6863 -1.7158 -0.5279
 4661TIP3    H235475   3.454   3.469  14.933  0.2271 -0.7272  2.0119
 4662TIP3   OH235476   5.637   0.160  13.491 -0.3245  0.0845 -0.2190
 4662TIP3    H135477   5.711   0.105  13.465  0.6486  2.0317 -1.8120
 4662TIP3    H235478   5.590   0.176  13.409 -0.9541  1.1089  0.3316
 4663TIP3   OH235479   5.711   6.484  12.774 -0.2317  0.5659 -0.6817
 4663TIP3    H135480   5.798   6.445  12.778  0.2850  1.7027 -0.5287
 4663TIP3    H235481   5.717   6.563  12.829 -1.0267  1.2689 -1.5665
 4664TIP3   OH235482   3.852   1.671  14.936  0.0169 -0.1422  0.2638
 4664TIP3    H135483   3.870   1.689  14.844  0.3215 -0.6006  0.2342
 4664TIP3    H235484   3.761   1.642  14.937 -0.7917  2.1535  0.4115
 4665TIP3   OH235485   1.625   2.985   4.524 -0.7112 -0.3818 -0.7841
 4665TIP3    H135486   1.671   2.901   4.515 -0.0710 -0.0744 -0.4636
 4665TIP3    H235487   1.603   2.990   4.617 -2.1507 -0.8996 -1.0589
 4666TIP3   OH235488   6.646   0.783   0.305 -0.1876 -0.0393 -0.0210
 4666TIP3    H135489   6.606   0.697   0.289 -0.8188  0.0369  1.0792
 4666TIP3    H235490   6.731   0.764   0.344 -0.2906 -0.1700  0.1413
 4667TIP3   OH235491   6.052   5.750   0.630 -0.7459  0.2978 -0.6974
 4667TIP3    H135492   5.982   5.699   0.669 -1.3776 -1.4884 -3.8172
 4667TIP3    H235493   6.046   5.732   0.536  3.9191 -0.0492 -1.1814
 4668TIP3   OH235494   3.017   0.976  13.922 -0.2757  0.1561 -0.9449
 4668TIP3    H135495   2.966   0.946  13.847 -0.1802  0.0963 -0.9849
 4668TIP3    H235496   3.104   0.995  13.887 -0.5568  1.2720 -1.0890
 4669TIP3   OH235497   4.763   6.312  13.118  0.2443 -0.0145  0.3662
 4669TIP3    H135498   4.742   6.375  13.049  0.1316 -0.4623 -0.0184
 4669TIP3    H235499   4.855   6.328  13.137  0.1207  0.5141  0.5375
 4670TIP3   OH235500   2.729   2.515   2.764  0.3729  0.6198  0.0439
 4670TIP3    H135501   2.725   2.574   2.839 -2.0796 -1.1663  1.4678
 4670TIP3    H235502   2.722   2.427   2.802  0.4320 -0.4162 -2.1911
 4671TIP3   OH235503   1.862   3.514   4.342 -0.1711 -0.1672  0.5248
 4671TIP3    H135504   1.780   3.555   4.312  0.8046  0.4254 -1.4608
 4671TIP3    H235505   1.923   3.526   4.270  1.8417 -0.1900  2.1262
 4672TIP3   OH235506   1.663   6.585   0.442 -0.8228  0.3076  0.2880
 4672TIP3    H135507   1.709   6.545   0.368 -1.3433  1.0327 -0.4463
 4672TIP3    H235508   1.572   6.591   0.414 -1.0637  0.4326  1.0577
 4673TIP3   OH235509   2.538   2.938  10.675 -0.2582 -0.2789  0.3524
 4673TIP3    H135510   2.584   2.932  10.758 -0.7868 -2.5522  0.5507
 4673TIP3    H235511   2.603   2.975  10.614 -0.0151  1.8402  1.7936
 4674TIP3   OH235512   0.783   2.174  11.768 -0.2661 -0.2199 -0.7715
 4674TIP3    H135513   0.734   2.189  11.849 -1.2341  0.1068 -1.4076
 4674TIP3    H235514   0.730   2.111  11.719  0.7463 -1.0912 -0.7950
 4675TIP3   OH235515   6.419   1.686  15.487 -0.2335 -0.5516  0.6674
 4675TIP3    H135516   6.452   1.620  15.548  1.3321 -0.4012  0.0419
 4675TIP3    H235517   6.495   1.742  15.468 -0.6737 -0.5361 -1.3309
 4676TIP3   OH235518   5.687   4.984  15.627 -0.0996  0.3249  0.1235
 4676TIP3    H135519   5.667   5.042  15.553 -0.0482  1.1100  0.7161
 4676TIP3    H235520   5.603   4.948  15.652 -0.4841  1.8247  1.1226
 4677TIP3   OH235521   0.846   3.831   3.176 -0.4781 -0.1624 -0.5324
 4677TIP3    H135522   0.936   3.819   3.209 -0.4400 -1.6506 -1.0782
 4677TIP3    H235523   0.798   3.868   3.250  0.5138  0.3969 -0.1422
 4678TIP3   OH235524   1.050   2.601   4.683 -0.3006 -0.0426  0.3136
 4678TIP3    H135525   1.051   2.542   4.608  0.2518  0.3073  0.0333
 4678TIP3    H235526   1.141   2.601   4.714  1.0864  4.3837 -2.7048
 4679TIP3   OH235527   3.214   5.447  11.762  0.1095 -0.0882  0.4957
 4679TIP3    H135528   3.205   5.395  11.682  0.0637  1.2105 -0.3633
 4679TIP3    H235529   3.286   5.405  11.810 -0.0678 -1.0657 -0.0625
 4680TIP3   OH235530   2.144   6.501  15.229 -0.3896 -0.4450  0.2360
 4680TIP3    H135531   2.156   6.542  15.143  0.8011 -0.8385  0.1872
 4680TIP3    H235532   2.231   6.505  15.269 -1.1239  0.5635  1.8215
 4681TIP3   OH235533   3.126   4.497  13.357  0.3956 -0.5886  0.2915
 4681TIP3    H135534   3.146   4.405  13.375  0.2729 -0.9309 -1.2009
 4681TIP3    H235535   3.058   4.494  13.290  0.8189  0.5817 -0.2109
 4682TIP3   OH235536   1.586   1.825  12.635 -0.4620 -0.1835 -0.2403
 4682TIP3    H135537   1.568   1.736  12.666 -0.8741 -0.4376 -1.1704
 4682TIP3    H235538   1.515   1.843  12.573 -0.4041  0.8128 -0.0312
 4683TIP3   OH235539   4.831   6.420   4.381  0.0282 -0.7627  0.2150
 4683TIP3    H135540   4.785   6.365   4.318 -1.5405  3.0570 -2.3041
 4683TIP3    H235541   4.920   6.426   4.346 -0.3615 -0.0510 -0.6625
 4684TIP3   OH235542   0.904   1.524   4.903  0.3244  0.0361 -0.1923
 4684TIP3    H135543   0.976   1.463   4.888  0.7967  0.2528  1.0909
 4684TIP3    H235544   0.915   1.591   4.835 -0.9815 -1.9215 -2.4905
 4685TIP3   OH235545   6.815   5.487  11.810 -0.2367  0.0149 -0.0954
 4685TIP3    H135546   6.857   5.566  11.776  0.4892 -0.0423  0.6277
 4685TIP3    H235547   6.773   5.516  11.891 -1.3091 -0.0062 -0.6370
 4686TIP3   OH235548   4.351   2.617  11.363  0.9616 -0.5374 -0.2742
 4686TIP3    H135549   4.395   2.642  11.444  0.5449 -1.7651  0.3677
 4686TIP3    H235550   4.275   2.674  11.358 -0.7536 -2.4361  1.8907
 4687TIP3   OH235551   0.154   0.286   6.000  0.0084  0.4402  0.6836
 4687TIP3    H135552   0.141   0.374   5.966 -1.4582 -0.0055 -0.0099
 4687TIP3    H235553   0.065   0.254   6.016  0.5643 -0.0491  3.2292
 4688TIP3   OH235554   1.071   1.198   3.718  0.0511  0.1784 -0.3134
 4688TIP3    H135555   0.998   1.137   3.702  0.3644 -0.3035  0.0736
 4688TIP3    H235556   1.032   1.284   3.709 -0.6053 -0.0750  0.0188
 4689TIP3   OH235557   2.779   5.726  16.777 -0.1499  0.1856 -0.5680
 4689TIP3    H135558   2.862   5.703  16.819 -0.1213 -1.1047 -1.2819
 4689TIP3    H235559   2.778   5.675  16.696  0.3574  3.4572 -2.8451
 4690TIP3   OH235560   3.020   0.716  16.989 -0.1786  0.1463  0.0882
 4690TIP3    H135561   2.948   0.780  16.995 -0.2262  0.0218  1.1136
 4690TIP3    H235562   3.091   0.756  17.040 -0.0015 -0.3548  0.2318
 4691TIP3   OH235563   2.879   4.793   6.093 -0.0738  0.1444  0.0609
 4691TIP3    H135564   2.900   4.850   6.167 -1.0186  1.5433 -0.6868
 4691TIP3    H235565   2.959   4.790   6.042  1.3732 -2.7203  2.1976
 4692TIP3   OH235566   6.517   5.894  13.005 -0.0665  0.0073  0.0576
 4692TIP3    H135567   6.446   5.941  12.960  0.1510  0.8619  0.5740
 4692TIP3    H235568   6.556   5.960  13.063  0.3861 -0.7651  0.6562
 4693TIP3   OH235569   0.535   0.477  13.371 -0.1353 -0.3343  0.2290
 4693TIP3    H135570   0.520   0.561  13.327  0.6955  0.8940  2.1488
 4693TIP3    H235571   0.447   0.442  13.384 -0.5707  0.6880  0.2068
 4694TIP3   OH235572   4.738   0.544   2.555 -0.7222 -0.3336  0.0502
 4694TIP3    H135573   4.668   0.554   2.489 -1.2829  1.0275  0.7923
 4694TIP3    H235574   4.819   0.546   2.504 -0.9999  3.1605 -0.5467
 4695TIP3   OH235575   4.193   1.936  11.432  0.1704 -0.2932  0.0399
 4695TIP3    H135576   4.119   1.988  11.401 -0.1781  0.3846  1.8984
 4695TIP3    H235577   4.157   1.848  11.446  0.2549 -0.5217 -1.0894
 4696TIP3   OH235578   5.957   2.959  12.143  0.5113 -0.0969  0.0702
 4696TIP3    H135579   5.998   2.903  12.077  0.5950 -0.9462  0.8162
 4696TIP3    H235580   5.866   2.967  12.114  0.8964  0.8353 -0.9676
 4697TIP3   OH235581   4.549   5.693   5.988 -0.1152  0.3858  0.6147
 4697TIP3    H135582   4.520   5.618   5.938  0.4966  0.1591  0.5928
 4697TIP3    H235583   4.601   5.656   6.060  0.2455  0.7850  0.5662
 4698TIP3   OH235584   3.962   4.471   4.966  0.0121  0.1080 -0.1824
 4698TIP3    H135585   3.951   4.379   4.943 -2.3944  0.6613 -1.5087
 4698TIP3    H235586   3.874   4.508   4.963  1.0500  2.7974 -1.2784
 4699TIP3   OH235587   3.261   5.126   4.128  0.3269 -0.7044  0.0984
 4699TIP3    H135588   3.192   5.154   4.068  1.3546  1.5894 -0.1298
 4699TIP3    H235589   3.226   5.147   4.215 -0.6808 -2.9408  0.2991
 4700TIP3   OH235590   4.646   2.169  15.208  0.4363  0.0176 -0.2443
 4700TIP3    H135591   4.620   2.239  15.149  0.1562  0.3160  0.2298
 4700TIP3    H235592   4.695   2.108  15.153 -1.0324 -0.4277 -1.1117
 4701TIP3   OH235593   6.335   3.856   1.752 -0.5234 -0.8002 -0.7678
 4701TIP3    H135594   6.366   3.792   1.816  1.1224  0.3649 -0.3362
 4701TIP3    H235595   6.310   3.803   1.675 -1.9562 -2.1639  0.5530
 4702TIP3   OH235596   4.336   2.401   4.400 -0.0407 -0.3589 -0.0599
 4702TIP3    H135597   4.300   2.442   4.478 -0.1711  0.2086 -0.4115
 4702TIP3    H235598   4.429   2.392   4.418 -0.0914 -0.3491  0.2114
 4703TIP3   OH235599   2.541   4.819   5.008  0.0211 -0.7115  0.3140
 4703TIP3    H135600   2.518   4.908   4.982 -0.8076 -0.7961  0.7224
 4703TIP3    H235601   2.508   4.764   4.937 -0.8862 -0.8173  0.8086
 4704TIP3   OH235602   6.115   5.784  10.764 -0.4897  0.1254 -0.8314
 4704TIP3    H135603   6.190   5.725  10.754 -0.0561  0.3651  0.7087
 4704TIP3    H235604   6.040   5.734  10.731 -0.6184 -2.4346  2.7594
 4705TIP3   OH235605   4.594   2.879   0.180  0.2917 -0.0242 -0.3108
 4705TIP3    H135606   4.516   2.922   0.146 -0.6358  0.0820  1.8118
 4705TIP3    H235607   4.666   2.935   0.152 -0.6860  1.6033  0.3038
 4706TIP3   OH235608   6.291   5.354   2.791 -0.7877  0.2769  0.2529
 4706TIP3    H135609   6.294   5.309   2.875  2.1460  0.2643  0.2164
 4706TIP3    H235610   6.265   5.286   2.729 -1.6685 -0.0292  0.9299
 4707TIP3   OH235611   3.671   6.354  16.326  0.3112 -0.4355 -0.2126
 4707TIP3    H135612   3.579   6.365  16.302 -0.3713  0.3050  2.4375
 4707TIP3    H235613   3.706   6.443  16.330  0.4361 -0.5160  1.1479
 4708TIP3   OH235614   1.364   5.640  14.107  0.2627 -0.3916 -0.4724
 4708TIP3    H135615   1.381   5.709  14.172 -1.1577 -0.0443 -0.4287
 4708TIP3    H235616   1.390   5.679  14.024 -1.1417  0.4927 -0.5398
 4709TIP3   OH235617   2.001   2.217  14.852 -0.0849 -0.0390 -0.8013
 4709TIP3    H135618   2.049   2.169  14.920  0.2226  1.6786  0.2727
 4709TIP3    H235619   2.067   2.233  14.784  0.0204 -0.3952 -0.7890
 4710TIP3   OH235620   5.205   3.506   3.745 -0.3002 -0.1192 -0.1644
 4710TIP3    H135621   5.241   3.498   3.656 -3.0664  0.5286 -1.4536
 4710TIP3    H235622   5.201   3.416   3.778 -1.6770 -0.7153 -1.8037
 4711TIP3   OH235623   4.604   4.775   3.016 -0.0160 -0.7234 -0.4196
 4711TIP3    H135624   4.592   4.713   2.943  0.6936 -1.6822  0.2388
 4711TIP3    H235625   4.651   4.724   3.082 -0.2521  0.2664  0.5319
 4712TIP3   OH235626   3.916   5.101  16.930 -0.0851 -0.5935 -0.5808
 4712TIP3    H135627   4.001   5.145  16.938 -1.0816  1.4533 -0.5739
 4712TIP3    H235628   3.937   5.012  16.903  2.0432  0.0140 -1.0954
 4713TIP3   OH235629   0.806   0.435  10.863 -0.6278 -0.1367 -0.1381
 4713TIP3    H135630   0.736   0.371  10.846 -0.1158 -0.5014 -0.8956
 4713TIP3    H235631   0.882   0.382  10.885 -0.1294  0.1979 -1.0223
 4714TIP3   OH235632   4.426   2.656   5.854 -0.2185 -0.3035 -0.1617
 4714TIP3    H135633   4.421   2.704   5.937  1.6615  1.1501 -0.8130
 4714TIP3    H235634   4.503   2.599   5.864  0.9538  0.9904 -1.3959
 4715TIP3   OH235635   2.049   6.112  15.845 -0.2473 -0.1817  0.0599
 4715TIP3    H135636   2.013   6.078  15.927  0.2135  1.6477  1.0776
 4715TIP3    H235637   2.042   6.207  15.853  0.8312  0.0808 -1.5530
 4716TIP3   OH235638   6.206   1.527   6.079 -0.5717  0.4021 -0.5095
 4716TIP3    H135639   6.163   1.487   6.004  1.4932 -2.2981 -0.4091
 4716TIP3    H235640   6.144   1.515   6.151 -0.9047 -0.7464 -0.9593
 4717TIP3   OH235641   0.113   2.872   1.360 -0.4098  0.2327 -0.2282
 4717TIP3    H135642   0.062   2.893   1.438 -0.7784 -0.4794 -0.2733
 4717TIP3    H235643   0.145   2.783   1.374  0.2331  0.4059 -0.5199
 4718TIP3   OH235644   4.895   3.963   3.788  0.0308 -0.3901  0.1592
 4718TIP3    H135645   4.832   3.955   3.860 -1.2776  1.7995 -0.6372
 4718TIP3    H235646   4.965   3.901   3.810 -0.3058  0.1945  3.2797
 4719TIP3   OH235647   1.925   6.283  15.641 -0.6567  0.5926 -0.9786
 4719TIP3    H135648   1.938   6.371  15.607  1.0952  0.3241 -1.1065
 4719TIP3    H235649   1.984   6.228  15.589  0.3500 -0.2157  0.9243
 4720TIP3   OH235650   5.581   5.083  11.095 -0.3156  0.7213 -0.4521
 4720TIP3    H135651   5.661   5.135  11.098 -1.7183  3.1131 -1.7924
 4720TIP3    H235652   5.549   5.084  11.185 -0.8491  3.2139 -0.5915
 4721TIP3   OH235653   6.020   3.363  14.342  0.1900  0.1825 -0.1660
 4721TIP3    H135654   6.095   3.396  14.292 -0.3908  1.2987 -0.3321
 4721TIP3    H235655   5.970   3.441  14.365 -0.8298 -0.5249  0.1045
 4722TIP3   OH235656   4.473   4.357   2.936 -0.0972  0.1845  0.3390
 4722TIP3    H135657   4.390   4.331   2.897  0.8960  0.4410 -2.1247
 4722TIP3    H235658   4.465   4.333   3.028 -1.9837 -1.9846 -0.3061
 4723TIP3   OH235659   6.359   4.080   0.143  0.1463 -0.0092  0.6608
 4723TIP3    H135660   6.313   4.130   0.076 -1.4930  0.6465  2.1884
 4723TIP3    H235661   6.403   4.146   0.196  0.4847 -0.4347  0.9189
 4724TIP3   OH235662   2.707   6.115   3.035 -1.1176  0.1965  0.5692
 4724TIP3    H135663   2.764   6.145   3.107  0.1561  0.4220 -0.4941
 4724TIP3    H235664   2.645   6.186   3.022 -0.4083  0.8109  0.4637
 4725TIP3   OH235665   3.697   1.146  15.613 -0.0868  0.4656  0.5348
 4725TIP3    H135666   3.757   1.135  15.539  0.1882  1.9227  0.5171
 4725TIP3    H235667   3.610   1.133  15.575  0.1434 -1.1136  0.4508
 4726TIP3   OH235668   1.538   5.311   3.114  0.2808 -0.1945  0.3224
 4726TIP3    H135669   1.589   5.251   3.060 -0.2972 -0.2169 -0.2062
 4726TIP3    H235670   1.593   5.327   3.190  1.9129  1.2599 -1.0888
 4727TIP3   OH235671   3.615   6.217   0.215 -0.3959  0.5214 -0.0163
 4727TIP3    H135672   3.565   6.211   0.296 -0.7440  1.7426 -0.1082
 4727TIP3    H235673   3.552   6.193   0.147 -0.1636 -0.2949  0.0496
 4728TIP3   OH235674   6.140   5.612   5.132  0.4881 -0.5439  0.0069
 4728TIP3    H135675   6.052   5.649   5.123  0.1606 -0.8282  1.7129
 4728TIP3    H235676   6.171   5.644   5.216  1.2673 -1.9840  0.2929
 4729TIP3   OH235677   5.722   2.795   1.359 -0.6519  0.2459  0.3386
 4729TIP3    H135678   5.677   2.826   1.437 -1.6506  1.0734 -0.5365
 4729TIP3    H235679   5.674   2.717   1.332  1.6346 -1.9862  2.3255
 4730TIP3   OH235680   3.298   3.624  13.248 -0.3740  0.4137  0.6284
 4730TIP3    H135681   3.247   3.681  13.304 -1.8321 -0.8203  0.6066
 4730TIP3    H235682   3.249   3.620  13.166 -0.6171 -1.2929  0.8175
 4731TIP3   OH235683   2.177   2.460   6.138  0.2189 -0.8079  0.0611
 4731TIP3    H135684   2.135   2.523   6.079  0.8823 -0.0529  0.3771
 4731TIP3    H235685   2.152   2.375   6.103  0.4601 -0.3784 -1.2207
 4732TIP3   OH235686   4.626   0.094   5.389  0.4668 -0.2862  0.3226
 4732TIP3    H135687   4.540   0.052   5.392  0.5145 -0.6976 -2.1570
 4732TIP3    H235688   4.687   0.026   5.416  0.1234 -0.2955  1.1017
 4733TIP3   OH235689   2.654   2.727  13.479 -0.8074  0.3379 -0.2887
 4733TIP3    H135690   2.667   2.792  13.548  0.2522 -0.2303  0.0815
 4733TIP3    H235691   2.563   2.701  13.487 -0.8709  0.7642  0.4741
 4734TIP3   OH235692   1.226   5.672   5.072  0.7017  0.2450 -0.3573
 4734TIP3    H135693   1.312   5.631   5.083  0.8849  0.8164  0.5202
 4734TIP3    H235694   1.178   5.648   5.151 -1.2241 -2.9188 -2.3153
 4735TIP3   OH235695   5.248   3.699  12.123  0.6588 -0.4339  1.0288
 4735TIP3    H135696   5.179   3.759  12.151  1.2620 -0.1363  1.9392
 4735TIP3    H235697   5.323   3.755  12.104  0.3056 -0.6341 -1.1975
 4736TIP3   OH235698   2.686   6.859   4.650 -0.1137  0.8025  0.0217
 4736TIP3    H135699   2.761   6.905   4.686  0.6707 -0.9218  0.7179
 4736TIP3    H235700   2.651   6.809   4.724 -1.1492  0.5721 -0.6040
 4737TIP3   OH235701   0.250   4.246   2.790  0.4985 -0.1915 -0.0064
 4737TIP3    H135702   0.317   4.310   2.814  0.9775 -1.6078  2.8035
 4737TIP3    H235703   0.167   4.287   2.814  0.6595  0.0682  0.0996
 4738TIP3   OH235704   4.850   4.024  14.698 -0.2812 -0.0387 -0.1232
 4738TIP3    H135705   4.848   3.943  14.748  1.6617  0.1235  0.3067
 4738TIP3    H235706   4.803   4.087  14.752 -0.7319 -0.5645  0.1123
 4739TIP3   OH235707   3.911   0.915  11.301 -0.8854 -0.4499 -0.2680
 4739TIP3    H135708   3.835   0.939  11.247 -0.6974  0.1270 -0.2760
 4739TIP3    H235709   3.919   0.986  11.364  0.2182 -0.0190 -0.8626
 4740TIP3   OH235710   3.124   4.969   2.181  0.0970 -0.8996 -0.3756
 4740TIP3    H135711   3.197   4.924   2.223  0.0783 -0.3993  0.2122
 4740TIP3    H235712   3.123   4.936   2.091 -0.4383 -2.6809  0.2542
 4741TIP3   OH235713   2.082   4.936   3.491 -0.3278  0.0709  0.4363
 4741TIP3    H135714   2.025   4.928   3.567 -2.0814  1.3592 -0.6637
 4741TIP3    H235715   2.095   5.031   3.481 -0.0920 -0.0781 -0.8353
 4742TIP3   OH235716   0.902   1.684   0.980  0.1736 -0.1923  0.2535
 4742TIP3    H135717   0.957   1.711   0.906 -0.7709  0.6121 -0.1784
 4742TIP3    H235718   0.964   1.645   1.042  1.4662  1.8858  0.3759
 4743TIP3   OH235719   0.899   0.457  13.951  0.7493 -0.4071 -0.4166
 4743TIP3    H135720   0.851   0.458  14.034 -0.9687  1.1633 -1.3628
 4743TIP3    H235721   0.886   0.369  13.917  0.0573 -0.5537  0.2081
 4744TIP3   OH235722   5.665   0.240   1.769  0.3969 -0.3279  0.2750
 4744TIP3    H135723   5.695   0.157   1.730  0.7140 -0.0060 -0.1691
 4744TIP3    H235724   5.740   0.270   1.821  0.1807 -0.4585  0.6692
 4745TIP3   OH235725   5.305   5.572   2.113  0.3014 -0.2917  0.0226
 4745TIP3    H135726   5.237   5.622   2.158  1.7635  1.8197  0.0313
 4745TIP3    H235727   5.260   5.529   2.041 -1.4365 -0.8615  1.3629
 4746TIP3   OH235728   1.521   4.198  13.114  0.1016  0.3484 -0.2897
 4746TIP3    H135729   1.514   4.240  13.029  0.2339 -0.8281 -0.9031
 4746TIP3    H235730   1.597   4.140  13.106  0.3304  0.4856  0.7466
 4747TIP3   OH235731   5.281   4.072  15.546  0.3235  0.6264 -0.3045
 4747TIP3    H135732   5.258   4.101  15.457 -0.7370 -0.4342 -0.4076
 4747TIP3    H235733   5.206   4.018  15.573  2.0587 -1.8072 -0.0649
 4748TIP3   OH235734   1.564   6.234   5.491 -0.0303 -0.0525 -0.1730
 4748TIP3    H135735   1.568   6.325   5.462 -0.1271  0.4314  1.2893
 4748TIP3    H235736   1.603   6.185   5.419 -3.0765  0.7281 -2.5814
 4749TIP3   OH235737   0.403   1.920   4.161 -0.0225  0.0572 -0.0325
 4749TIP3    H135738   0.472   1.957   4.215  1.5933  0.4314 -2.1947
 4749TIP3    H235739   0.376   1.992   4.103 -1.6313 -0.3288  0.1741
 4750TIP3   OH235740   5.731   5.180   4.750 -0.1702  0.2939 -0.0077
 4750TIP3    H135741   5.765   5.223   4.828 -1.0687  0.9096  0.0600
 4750TIP3    H235742   5.728   5.249   4.684 -1.1812  0.2284 -0.0371
 4751TIP3   OH235743   1.920   0.936   4.147 -0.1640 -0.3330 -0.0605
 4751TIP3    H135744   1.831   0.968   4.132  0.2373  0.0881 -1.8977
 4751TIP3    H235745   1.937   0.878   4.072  1.2016 -0.1649  0.0999
 4752TIP3   OH235746   1.670   1.685  14.423  0.3773 -0.1034  0.8658
 4752TIP3    H135747   1.762   1.712  14.411  0.4892 -1.1393 -1.0353
 4752TIP3    H235748   1.626   1.717  14.344 -0.4622 -1.3945  0.7916
 4753TIP3   OH235749   5.222   3.862   1.775  0.1516  0.5620 -0.2963
 4753TIP3    H135750   5.309   3.876   1.738  0.5436 -0.7047  0.0889
 4753TIP3    H235751   5.168   3.838   1.700  0.8140 -1.4367 -0.2126
 4754TIP3   OH235752   0.965   0.542   3.445 -0.2233  0.1874  0.1583
 4754TIP3    H135753   0.912   0.463   3.454 -0.7653  0.4785 -0.4177
 4754TIP3    H235754   1.048   0.519   3.486  0.5568 -1.5561 -2.2361
 4755TIP3   OH235755   5.115   3.678  14.890  0.0704  0.5368 -0.8132
 4755TIP3    H135756   5.142   3.664  14.980  0.2736  2.0181 -0.6289
 4755TIP3    H235757   5.099   3.590  14.856  0.1837 -0.0509  0.5975
 4756TIP3   OH235758   3.493   5.497   0.222  0.3625  0.0941  0.0789
 4756TIP3    H135759   3.521   5.421   0.172  0.7283  1.0363 -1.1811
 4756TIP3    H235760   3.575   5.543   0.242  0.2298 -0.2639  1.5817
 4757TIP3   OH235761   1.878   4.792   3.337  0.6882  0.3295  0.8355
 4757TIP3    H135762   1.947   4.839   3.385  0.3833 -1.4697  3.2086
 4757TIP3    H235763   1.878   4.704   3.376 -0.8151 -0.7043 -1.3282
 4758TIP3   OH235764   4.656   0.205   1.921 -0.4672 -0.2383  0.4412
 4758TIP3    H135765   4.635   0.243   2.007  0.2779 -0.6000  0.7921
 4758TIP3    H235766   4.625   0.270   1.858 -0.4357  0.3372  1.0024
 4759TIP3   OH235767   6.045   5.611  14.734  0.2305 -0.0756 -0.1437
 4759TIP3    H135768   6.135   5.578  14.727  0.0947 -0.2490 -1.2464
 4759TIP3    H235769   6.018   5.624  14.643 -1.6651 -2.1605  0.0498
 4760TIP3   OH235770   0.298   1.068   2.058 -0.1093  0.7340  0.5608
 4760TIP3    H135771   0.331   1.124   1.987  0.7981  1.0599  1.2177
 4760TIP3    H235772   0.206   1.052   2.036  0.3740  0.1031 -1.1479
 4761TIP3   OH235773   2.337   1.396  12.530 -0.1727 -0.3119 -0.1854
 4761TIP3    H135774   2.306   1.322  12.583 -1.4671  0.4064  0.1017
 4761TIP3    H235775   2.345   1.468  12.593 -2.8723  0.8861 -1.0618
 4762TIP3   OH235776   6.014   2.149  10.028 -0.7092  0.4020 -0.3416
 4762TIP3    H135777   6.048   2.100   9.953  1.9712 -0.0682  1.0832
 4762TIP3    H235778   6.070   2.226  10.034 -0.9804  0.5180  1.0605
 4763TIP3   OH235779   0.197   1.756   0.963 -0.1591  0.2014  0.5414
 4763TIP3    H135780   0.236   1.834   0.924  0.5859  0.7336  2.2449
 4763TIP3    H235781   0.269   1.713   1.009 -0.6120 -1.3773 -0.1598
 4764TIP3   OH235782   1.814   4.077  14.899  0.0756 -0.0327  0.0453
 4764TIP3    H135783   1.821   4.034  14.814 -1.2437  2.0995 -1.2179
 4764TIP3    H235784   1.720   4.074  14.920  0.3763 -0.5200  1.4406
 4765TIP3   OH235785   6.759   4.518  16.519 -0.0933  0.2099 -0.1449
 4765TIP3    H135786   6.732   4.529  16.610 -3.4520 -0.1587 -0.9731
 4765TIP3    H235787   6.821   4.445  16.521  1.4032  1.4615  2.0181
 4766TIP3   OH235788   3.566   4.619   4.662 -0.7554 -0.0593 -0.2150
 4766TIP3    H135789   3.545   4.530   4.687 -0.3661 -0.1005 -0.0235
 4766TIP3    H235790   3.482   4.659   4.641 -1.2635  0.3528  2.3335
 4767TIP3   OH235791   5.731   3.760   1.833  0.7065  0.4525 -0.5739
 4767TIP3    H135792   5.692   3.846   1.844  0.5100  0.6858 -2.6807
 4767TIP3    H235793   5.794   3.752   1.905 -2.5054  0.3736  2.5112
 4768TIP3   OH235794   6.055   4.985  14.465  0.3417 -0.0948 -0.5485
 4768TIP3    H135795   6.072   4.900  14.505  1.7856  0.4315  0.0248
 4768TIP3    H235796   6.133   5.004  14.414 -0.1631  0.6833 -1.0552
 4769TIP3   OH235797   3.569   2.053  13.445  0.3477  0.4921 -0.4033
 4769TIP3    H135798   3.570   1.982  13.382  2.6335  0.6170 -0.5950
 4769TIP3    H235799   3.514   2.021  13.517 -0.2205 -0.6651 -1.3324
 4770TIP3   OH235800   0.433   1.240  12.226 -0.1251 -0.2011 -0.1105
 4770TIP3    H135801   0.375   1.166  12.237 -0.5259  0.1691  0.2861
 4770TIP3    H235802   0.520   1.207  12.249 -0.1768 -0.7486 -0.6949
 4771TIP3   OH235803   1.275   1.435  12.589  0.5544 -0.0337  0.5202
 4771TIP3    H135804   1.297   1.346  12.563 -0.4232 -0.7635  2.0107
 4771TIP3    H235805   1.179   1.435  12.594  0.4688  1.4479 -0.5475
 4772TIP3   OH235806   1.196   4.838  11.186 -0.0223  0.5665  0.6605
 4772TIP3    H135807   1.122   4.897  11.177 -0.9537 -0.8117 -1.4802
 4772TIP3    H235808   1.253   4.880  11.251 -1.0254  3.3434 -0.1417
 4773TIP3   OH235809   6.698   3.802   5.096 -0.1927 -0.0666 -0.2611
 4773TIP3    H135810   6.773   3.772   5.148 -0.4929  1.0364  0.8579
 4773TIP3    H235811   6.717   3.893   5.076 -1.0888  0.1422 -0.2267
 4774TIP3   OH235812   3.236   5.515  16.194 -0.3824 -0.1457 -0.6857
 4774TIP3    H135813   3.156   5.495  16.243  0.1249  0.0044  0.2252
 4774TIP3    H235814   3.259   5.433  16.151 -0.4617 -0.4736 -0.1182
 4775TIP3   OH235815   3.425   5.872   4.361  0.2471  0.1117 -0.5230
 4775TIP3    H135816   3.441   5.782   4.333  1.8775  0.4431 -0.7469
 4775TIP3    H235817   3.510   5.916   4.352  0.2214  0.9550  2.3275
 4776TIP3   OH235818   0.320   5.130  15.045 -0.1556 -0.0519  0.2243
 4776TIP3    H135819   0.259   5.082  14.989 -0.8247  0.2882  0.6487
 4776TIP3    H235820   0.296   5.222  15.033  0.1393  0.0707  0.5646
 4777TIP3   OH235821   3.595   5.989  13.778  0.6930  0.4364  0.9073
 4777TIP3    H135822   3.551   6.072  13.798 -0.5645 -0.0891  0.4061
 4777TIP3    H235823   3.652   6.010  13.704 -0.6273  0.5850 -0.1090
 4778TIP3   OH235824   0.217   3.012  13.576 -0.1890 -1.1668  0.0932
 4778TIP3    H135825   0.256   2.993  13.661  0.9402 -1.3898 -0.4531
 4778TIP3    H235826   0.140   3.065  13.596 -0.4989 -2.0298  1.3082
 4779TIP3   OH235827   2.026   4.350   1.591  0.2929  0.1368 -0.1091
 4779TIP3    H135828   2.010   4.271   1.540 -0.1033  0.1374  0.0074
 4779TIP3    H235829   2.072   4.409   1.531  1.2248 -0.4449  0.0314
 4780TIP3   OH235830   2.928   4.555  13.191 -0.4321  0.0747  0.1662
 4780TIP3    H135831   2.949   4.543  13.098  1.7103 -1.1732  0.7199
 4780TIP3    H235832   2.836   4.533  13.198 -0.6836  0.3523 -1.6876
 4781TIP3   OH235833   5.111   3.972   6.046  0.0130  0.0267  0.2504
 4781TIP3    H135834   5.175   4.040   6.021 -0.2336  0.0729 -0.2868
 4781TIP3    H235835   5.093   3.989   6.138  1.2405 -0.3685  0.5841
 4782TIP3   OH235836   0.730   1.191  16.894 -0.3628  0.2104 -0.2259
 4782TIP3    H135837   0.801   1.178  16.958 -2.1213 -0.4815  1.7162
 4782TIP3    H235838   0.737   1.283  16.869 -0.9670  1.2147  2.8267
 4783TIP3   OH235839   2.611   6.076  15.560  0.1464  0.0377 -0.1393
 4783TIP3    H135840   2.694   6.029  15.567  0.3854  0.1437 -1.9642
 4783TIP3    H235841   2.633   6.155  15.511 -0.6365  1.1213  1.1910
 4784TIP3   OH235842   6.024   6.548  13.036 -0.1004  0.5713  0.3791
 4784TIP3    H135843   6.007   6.469  13.087  0.7208  0.9244  1.2112
 4784TIP3    H235844   6.114   6.572  13.056 -0.0539  1.2382 -0.5362
 4785TIP3   OH235845   4.428   6.280  11.177 -0.2235 -0.3845 -0.0452
 4785TIP3    H135846   4.384   6.231  11.108 -0.4833 -0.1210 -0.0714
 4785TIP3    H235847   4.377   6.361  11.185 -0.0315 -0.2910  0.2632
 4786TIP3   OH235848   5.019   5.808  13.573 -0.0855 -0.3596  0.0817
 4786TIP3    H135849   5.074   5.872  13.529 -0.0762  0.0662  0.7002
 4786TIP3    H235850   5.032   5.825  13.667 -0.9828 -0.4890  0.2417
 4787TIP3   OH235851   4.517   1.351   2.728  0.5306 -0.2581 -0.0339
 4787TIP3    H135852   4.525   1.336   2.823  1.0741  1.2660  0.1840
 4787TIP3    H235853   4.598   1.314   2.692  0.7003 -0.1038  0.1885
 4788TIP3   OH235854   1.266   5.646   3.871  0.3080  0.7923  0.2575
 4788TIP3    H135855   1.265   5.550   3.879  0.7437  0.7508 -0.1722
 4788TIP3    H235856   1.353   5.672   3.899  0.0526  1.1132  0.7896
 4789TIP3   OH235857   1.995   6.227   0.759  0.4008 -0.6117 -0.3032
 4789TIP3    H135858   1.944   6.257   0.684 -1.2517 -1.6017  0.3637
 4789TIP3    H235859   1.991   6.132   0.756 -1.0356 -0.7028  1.8313
 4790TIP3   OH235860   3.019   0.370   3.282 -0.0995 -0.3587  0.1721
 4790TIP3    H135861   2.991   0.430   3.213 -0.8312 -1.1245 -0.2055
 4790TIP3    H235862   2.990   0.412   3.363 -1.0752 -0.4421 -0.1233
 4791TIP3   OH235863   1.840   5.564   5.301  0.4996  0.1218  0.0133
 4791TIP3    H135864   1.851   5.658   5.310  2.3379  0.0326 -0.8736
 4791TIP3    H235865   1.882   5.527   5.378  1.1506 -0.0101 -0.3953
 4792TIP3   OH235866   0.377   4.150   1.491  0.3128  0.1632  0.2490
 4792TIP3    H135867   0.352   4.081   1.552  0.6666 -0.6931 -0.5514
 4792TIP3    H235868   0.438   4.205   1.541 -0.4520  0.2656  1.0883
 4793TIP3   OH235869   6.788   1.562  15.514 -0.3767 -0.3323 -0.0614
 4793TIP3    H135870   6.860   1.508  15.546 -0.0599 -1.1040 -1.9720
 4793TIP3    H235871   6.826   1.614  15.443 -1.0843  1.2535  0.6532
 4794TIP3   OH235872   0.820   5.551  16.592  0.2071  0.2888 -0.3032
 4794TIP3    H135873   0.832   5.462  16.559 -0.3530  1.0304 -2.7793
 4794TIP3    H235874   0.769   5.541  16.672  0.9844 -1.6450 -0.0052
 4795TIP3   OH235875   3.267   4.000  13.190  0.4998  0.6436 -0.5255
 4795TIP3    H135876   3.177   3.996  13.158  0.3641  1.9583 -0.3858
 4795TIP3    H235877   3.287   4.094  13.193  1.1805  0.4799  1.3485
 4796TIP3   OH235878   0.229   1.760  16.438  0.0589  0.1741  0.2075
 4796TIP3    H135879   0.255   1.850  16.414 -2.2322  0.7893 -0.1929
 4796TIP3    H235880   0.261   1.749  16.527  0.1212  1.5218  0.3744
 4797TIP3   OH235881   1.567   6.269  11.911 -0.0407 -0.0582  0.0807
 4797TIP3    H135882   1.501   6.274  11.979  1.8970 -0.5525  2.1007
 4797TIP3    H235883   1.608   6.183  11.923 -0.4208 -0.6993 -2.5209
 4798TIP3   OH235884   2.810   1.673  14.315 -0.2150 -0.4630 -0.5197
 4798TIP3    H135885   2.724   1.694  14.351  0.0973  2.4059 -1.2540
 4798TIP3    H235886   2.830   1.587  14.352 -2.6087 -0.4372  1.0856
 4799TIP3   OH235887   4.644   5.547   5.265  0.2074 -0.0201 -0.2498
 4799TIP3    H135888   4.645   5.467   5.317 -0.3695  0.8154  1.0938
 4799TIP3    H235889   4.552   5.569   5.255  0.3655  0.5403 -0.5319
 4800TIP3   OH235890   1.383   6.389  16.644 -0.5255  0.2843  0.3351
 4800TIP3    H135891   1.406   6.376  16.553 -3.2065  1.8102 -0.6779
 4800TIP3    H235892   1.440   6.330  16.693  1.2972 -0.2275 -2.2586
 4801TIP3   OH235893   3.182   0.735   1.574 -0.5056  0.0195  0.0137
 4801TIP3    H135894   3.144   0.659   1.530 -0.8229  0.6859 -0.8987
 4801TIP3    H235895   3.207   0.794   1.503  0.9633  0.2114  0.6581
 4802TIP3   OH235896   4.093   2.482  12.837 -0.0799 -0.6560 -0.1061
 4802TIP3    H135897   4.151   2.504  12.910  0.8841  1.2093 -1.3566
 4802TIP3    H235898   4.130   2.401  12.802  1.5020  0.1852 -0.5200
 4803TIP3   OH235899   0.673   1.007  15.310 -0.0174  0.0430  0.9399
 4803TIP3    H135900   0.766   0.999  15.332  0.1740  2.3228  1.2279
 4803TIP3    H235901   0.667   1.090  15.262 -1.4645 -1.5036 -1.8274
 4804TIP3   OH235902   0.117   5.672   4.394 -0.4284  0.0268 -0.0990
 4804TIP3    H135903   0.187   5.616   4.428 -1.7373 -2.3381 -1.0417
 4804TIP3    H235904   0.117   5.656   4.299 -2.1924 -0.0139 -0.1289
 4805TIP3   OH235905   5.728   3.504   2.018 -0.0333  0.1291 -0.4928
 4805TIP3    H135906   5.799   3.476   1.960 -0.3642 -0.7606 -0.4823
 4805TIP3    H235907   5.648   3.482   1.971 -0.3028  0.4915 -0.2101
 4806TIP3   OH235908   1.160   6.512  13.668 -0.0743  0.2932  0.0046
 4806TIP3    H135909   1.245   6.512  13.623 -0.0134  1.8376  0.0675
 4806TIP3    H235910   1.182   6.511  13.761 -0.1994 -2.7646  0.1176
 4807TIP3   OH235911   1.719   4.475  12.278  0.2706 -0.1385 -0.2616
 4807TIP3    H135912   1.732   4.435  12.364 -0.1725 -1.0469 -0.6011
 4807TIP3    H235913   1.688   4.403  12.222  0.7728  0.3795 -1.2406
 4808TIP3   OH235914   5.374   0.964  11.704 -0.4287 -0.0484  0.4159
 4808TIP3    H135915   5.365   0.919  11.788  1.5668 -1.5476 -0.1166
 4808TIP3    H235916   5.416   1.047  11.726 -1.9591  0.5887  1.1112
 4809TIP3   OH235917   6.512   1.903   3.223  0.0936  0.1703  0.0858
 4809TIP3    H135918   6.459   1.974   3.259 -0.0103  0.1220  0.0254
 4809TIP3    H235919   6.452   1.830   3.214  0.1594  0.1311 -0.0299
 4810TIP3   OH235920   6.567   3.033  14.281 -0.0259 -0.2206 -0.1108
 4810TIP3    H135921   6.575   3.094  14.355  1.9992 -1.0939  0.4635
 4810TIP3    H235922   6.507   3.077  14.220 -0.4083  1.2949  1.2748
 4811TIP3   OH235923   6.419   3.798  13.667 -0.4163  0.3132 -0.1510
 4811TIP3    H135924   6.344   3.748  13.634 -1.2056  1.0470  0.4680
 4811TIP3    H235925   6.479   3.804  13.593  0.1677 -2.3636  0.0188
 4812TIP3   OH235926   2.855   3.965  14.590  0.3920  0.0438  0.5079
 4812TIP3    H135927   2.900   3.888  14.623 -1.4814 -1.1149  0.4723
 4812TIP3    H235928   2.828   4.013  14.669  2.7488  1.4882  0.5472
 4813TIP3   OH235929   1.045   5.413  15.153 -0.2445  0.5909 -0.2710
 4813TIP3    H135930   1.098   5.477  15.201 -1.0029  1.5590 -0.6913
 4813TIP3    H235931   0.965   5.405  15.204 -1.2766  2.0159 -1.5769
 4814TIP3   OH235932   1.617   4.447   4.940 -0.5240  0.2574 -0.1465
 4814TIP3    H135933   1.644   4.365   4.983 -0.4933 -0.5042 -1.5745
 4814TIP3    H235934   1.699   4.489   4.914 -0.4882  1.2786  1.4764
 4815TIP3   OH235935   3.445   1.859  12.401  0.0910  0.0470  0.0863
 4815TIP3    H135936   3.508   1.814  12.344  0.6385 -3.9503  3.4211
 4815TIP3    H235937   3.499   1.903  12.466 -0.5604  0.4469  0.3639
 4816TIP3   OH235938   4.186   1.387   6.206  0.1016 -0.2507  0.1722
 4816TIP3    H135939   4.239   1.342   6.141  1.5755  0.3201  0.9420
 4816TIP3    H235940   4.152   1.317   6.262  0.1242 -0.6091 -0.2580
 4817TIP3   OH235941   3.588   3.934  11.474  0.3725  0.1259 -0.1858
 4817TIP3    H135942   3.647   3.997  11.431  3.8510 -2.0995  0.8366
 4817TIP3    H235943   3.559   3.877  11.402  3.0529 -1.2675 -0.3047
 4818TIP3   OH235944   0.819   5.882   1.365 -0.4118  0.2580 -0.7323
 4818TIP3    H135945   0.833   5.831   1.445 -2.2974 -1.7531 -1.5810
 4818TIP3    H235946   0.849   5.970   1.387  0.6336 -0.6185  1.6431
 4819TIP3   OH235947   2.913   1.263   3.754 -0.1680  0.3845  0.3041
 4819TIP3    H135948   2.914   1.178   3.710 -1.1266  0.6722 -0.3048
 4819TIP3    H235949   2.992   1.307   3.725  0.4502 -0.3756  0.7964
 4820TIP3   OH235950   5.682   1.194  15.383 -0.0440  0.0027 -0.2474
 4820TIP3    H135951   5.762   1.184  15.435  0.0528  0.1898 -0.3592
 4820TIP3    H235952   5.616   1.145  15.432  0.2117 -0.4271 -0.3189
 4821TIP3   OH235953   0.090   5.532   3.173 -0.1003  0.7862 -0.1285
 4821TIP3    H135954   0.104   5.603   3.235  1.3417  0.3972  0.0296
 4821TIP3    H235955   0.170   5.528   3.122  0.5671 -1.7098  0.9222
 4822TIP3   OH235956   5.737   1.050   4.689  0.0537  0.0985 -0.1725
 4822TIP3    H135957   5.666   1.010   4.739 -0.7780 -1.2847 -2.3149
 4822TIP3    H235958   5.810   1.057   4.751 -0.9413 -1.4442  1.2350
 4823TIP3   OH235959   2.370   3.387  15.952 -0.0142  0.4946  0.2663
 4823TIP3    H135960   2.369   3.358  16.043 -1.7033 -0.4556 -0.0275
 4823TIP3    H235961   2.371   3.483  15.958 -0.4049  0.4493  1.2751
 4824TIP3   OH235962   4.296   2.977  16.720  0.1392  0.1198  0.1204
 4824TIP3    H135963   4.294   2.941  16.631  2.7184  1.4333 -0.5560
 4824TIP3    H235964   4.373   2.938  16.760 -0.6188  0.0697  1.5987
 4825TIP3   OH235965   1.020   3.016  15.173  0.3094  0.0653  0.2159
 4825TIP3    H135966   0.985   3.091  15.125  0.2613  0.0246  0.1876
 4825TIP3    H235967   1.071   2.967  15.108  0.7100  0.3138  0.3372
 4826TIP3   OH235968   5.436   2.797   3.363  0.1511  0.1679 -0.0861
 4826TIP3    H135969   5.484   2.874   3.335  0.7189 -1.0812 -2.9845
 4826TIP3    H235970   5.385   2.771   3.285 -2.3944 -0.6692  1.7231
 4827TIP3   OH235971   6.112   6.293  12.272  0.4965 -0.3219 -0.3926
 4827TIP3    H135972   6.110   6.341  12.355 -0.8812 -1.8398  0.5157
 4827TIP3    H235973   6.151   6.355  12.210 -1.5901  2.1576  0.5725
 4828TIP3   OH235974   0.815   1.049   3.309 -0.0654  0.5147 -0.1787
 4828TIP3    H135975   0.812   0.979   3.244 -0.9087 -0.0511  0.4545
 4828TIP3    H235976   0.730   1.045   3.353  0.3157  1.1939  0.6446
 4829TIP3   OH235977   6.249   4.652  15.601  0.5692  0.7835  0.2407
 4829TIP3    H135978   6.285   4.603  15.675 -0.4870  1.1143  0.9912
 4829TIP3    H235979   6.172   4.697  15.637  0.2556  1.2440 -0.9681
 4830TIP3   OH235980   4.395   4.133   0.262  0.4044 -0.2911 -0.0100
 4830TIP3    H135981   4.398   4.222   0.228 -0.9644 -0.2006  0.0632
 4830TIP3    H235982   4.322   4.133   0.324 -0.5161 -1.7909 -1.0193
 4831TIP3   OH235983   2.083   4.879   1.783  0.4715 -0.1565  0.2169
 4831TIP3    H135984   2.010   4.903   1.840  1.0106  0.0277  0.8405
 4831TIP3    H235985   2.159   4.922   1.822  0.9057 -0.2828 -0.4683
 4832TIP3   OH235986   3.314   0.241  15.573 -0.4763 -0.0623  0.4193
 4832TIP3    H135987   3.235   0.197  15.543  0.0252 -1.0802  0.5353
 4832TIP3    H235988   3.340   0.195  15.652 -0.3922  0.9975  1.0301
 4833TIP3   OH235989   3.329   4.041  12.304  0.2227  0.2411  0.0806
 4833TIP3    H135990   3.273   4.088  12.366 -0.7889 -0.7253 -0.0554
 4833TIP3    H235991   3.362   3.966  12.355 -0.6110 -0.5578 -0.5122
 4834TIP3   OH235992   4.360   3.243  13.322 -0.1146 -0.0135 -0.0622
 4834TIP3    H135993   4.278   3.274  13.284 -0.3314  0.2061  0.5789
 4834TIP3    H235994   4.336   3.207  13.407  0.5307  0.5924  0.3843
 4835TIP3   OH235995   2.482   3.231   0.268  0.2816 -0.5620 -0.5694
 4835TIP3    H135996   2.515   3.258   0.182  0.4643  0.9159 -0.0715
 4835TIP3    H235997   2.535   3.154   0.291  0.9625 -0.3376 -1.3257
 4836TIP3   OH235998   4.285   2.880   3.766 -0.2570  0.2703  0.0083
 4836TIP3    H135999   4.251   2.948   3.825 -2.6844 -0.8827  0.0852
 4836TIP3    H236000   4.207   2.829   3.741  1.3425 -2.0656 -0.5718
 4837TIP3   OH236001   5.989   1.843  10.874 -0.0712  0.0572 -0.2490
 4837TIP3    H136002   6.022   1.759  10.907  1.1952  0.8883  0.6990
 4837TIP3    H236003   5.898   1.845  10.903  0.1825 -0.5405  0.6561
 4838TIP3   OH236004   4.869   4.083   2.027  0.2635 -0.2822  0.2147
 4838TIP3    H136005   4.916   4.129   1.957 -0.6331  0.9500  0.3740
 4838TIP3    H236006   4.827   4.009   1.983  2.2128 -1.3645  0.0578
 4839TIP3   OH236007   2.225   5.904  15.917  0.3946  0.4559  0.1164
 4839TIP3    H136008   2.199   5.846  15.988  1.4207  1.0470  1.0111
 4839TIP3    H236009   2.168   5.981  15.927 -0.4351 -0.0540 -0.5931
 4840TIP3   OH236010   2.763   2.126  11.806  0.2040 -0.2877 -0.3828
 4840TIP3    H136011   2.677   2.110  11.766 -0.0312 -0.0511  0.0305
 4840TIP3    H236012   2.821   2.064  11.761 -0.3745 -1.1348  0.0178
 4841TIP3   OH236013   2.732   2.743  10.501  0.1501  0.3398 -0.5117
 4841TIP3    H136014   2.660   2.806  10.504  0.3637  0.5348  1.0839
 4841TIP3    H236015   2.811   2.797  10.504  0.3650  0.0675 -1.0403
 4842TIP3   OH236016   1.961   2.594   1.266  0.3974 -0.6394  0.2669
 4842TIP3    H136017   1.953   2.507   1.227 -2.2627  0.9551 -3.3549
 4842TIP3    H236018   1.875   2.609   1.307 -0.2894  1.2178 -1.6836
 4843TIP3   OH236019   4.966   0.288   2.475 -0.1474 -0.3997  0.1091
 4843TIP3    H136020   4.976   0.374   2.434 -0.0725  0.4268  1.7878
 4843TIP3    H236021   4.956   0.227   2.401 -0.0561  1.0169 -1.1129
 4844TIP3   OH236022   4.919   2.199  13.119  0.2035 -0.0967  0.4137
 4844TIP3    H136023   5.005   2.157  13.114  0.4044  0.4428 -1.0721
 4844TIP3    H236024   4.933   2.277  13.173  0.4270 -0.5108  0.9577
 4845TIP3   OH236025   3.203   2.399   5.209  0.0507 -0.4048 -0.3209
 4845TIP3    H136026   3.212   2.304   5.199 -1.0200 -0.9847  2.9572
 4845TIP3    H236027   3.284   2.426   5.252  0.8265  0.4211 -2.2203
 4846TIP3   OH236028   1.246   5.069   3.665  0.1734  0.3712  0.0492
 4846TIP3    H136029   1.185   5.083   3.738 -0.3141 -1.2554 -0.0104
 4846TIP3    H236030   1.325   5.115   3.691  0.4928 -1.2678  2.2829
 4847TIP3   OH236031   1.928   5.361   5.616  0.3388  0.0269  0.3876
 4847TIP3    H136032   1.839   5.357   5.580 -0.9455  0.4076  3.2341
 4847TIP3    H236033   1.920   5.321   5.702  3.0625 -0.2274  0.5970
 4848TIP3   OH236034   5.741   6.081   2.620  0.9602 -0.4665  0.0389
 4848TIP3    H136035   5.664   6.053   2.670 -1.1287 -0.8626 -3.1700
 4848TIP3    H236036   5.815   6.047   2.670 -0.9224 -0.8054  2.8352
 4849TIP3   OH236037   2.775   1.319   5.409  0.2019  0.1209  0.1877
 4849TIP3    H136038   2.825   1.240   5.388 -0.3224  0.2944 -1.8701
 4849TIP3    H236039   2.736   1.299   5.495  2.6257 -0.5347  1.2357
 4850TIP3   OH236040   2.332   2.477   1.990  0.3071  0.3274 -0.0304
 4850TIP3    H136041   2.323   2.553   1.933 -1.1306 -0.3430 -0.7410
 4850TIP3    H236042   2.289   2.406   1.943  1.6476 -0.9621  0.5972
 4851TIP3   OH236043   3.763   4.685  16.439  0.1114  0.4668  0.5169
 4851TIP3    H136044   3.671   4.705  16.422 -0.0833 -1.7496 -1.7064
 4851TIP3    H236045   3.811   4.732  16.371  0.2230 -1.0606 -0.5302
 4852TIP3   OH236046   0.706   5.330  15.580  0.4188  0.4030 -0.1389
 4852TIP3    H136047   0.797   5.360  15.572 -0.0347  1.5936 -1.1785
 4852TIP3    H236048   0.691   5.278  15.502  0.1267  0.4564 -0.1189
 4853TIP3   OH236049   1.679   6.607  10.857  0.0323  0.1434  0.5874
 4853TIP3    H136050   1.722   6.523  10.838 -1.2207 -0.2682 -0.6130
 4853TIP3    H236051   1.689   6.657  10.776 -1.4108  0.1538  0.3849
 4854TIP3   OH236052   5.916   5.083   5.748  0.3005 -0.1543  0.5912
 4854TIP3    H136053   5.855   5.019   5.785 -1.9279  1.2974 -0.3131
 4854TIP3    H236054   5.930   5.146   5.818 -0.8296  0.5221  0.2428
 4855TIP3   OH236055   4.718   3.661  12.908 -0.3856 -0.2788  0.0252
 4855TIP3    H136056   4.785   3.649  12.841  1.5157  0.5701  1.6755
 4855TIP3    H236057   4.687   3.751  12.894 -0.8262 -0.4921 -0.4060
 4856TIP3   OH236058   0.560   3.651   2.106  0.0689  0.3485  0.3234
 4856TIP3    H136059   0.634   3.592   2.124 -0.2549 -0.0011  0.5318
 4856TIP3    H236060   0.530   3.678   2.193 -1.5924 -1.4480  0.3939
 4857TIP3   OH236061   0.773   1.334  14.382  0.1120  0.1120  0.0846
 4857TIP3    H136062   0.724   1.255  14.407 -0.6444  0.3415 -0.6410
 4857TIP3    H236063   0.777   1.331  14.287  2.0746 -0.2107  0.1415
 4858TIP3   OH236064   3.428   6.155   5.834 -0.0567 -0.7385  0.4489
 4858TIP3    H136065   3.375   6.160   5.914 -1.0086 -0.9081 -0.1527
 4858TIP3    H236066   3.393   6.224   5.779 -1.7181 -2.6928 -1.1359
 4859TIP3   OH236067   1.052   0.712   0.146  0.1386 -0.2451  0.6654
 4859TIP3    H136068   1.003   0.704   0.064 -2.4805  0.2719  2.0936
 4859TIP3    H236069   1.066   0.806   0.156  2.7227 -0.4380 -0.3550
 4860TIP3   OH236070   3.610   6.690  13.566 -0.0520 -0.3647  0.2113
 4860TIP3    H136071   3.540   6.664  13.625 -1.1325  1.7441 -0.0517
 4860TIP3    H236072   3.683   6.633  13.589 -0.6828 -0.1810  3.0306
 4861TIP3   OH236073   2.991   3.146   3.816 -0.1415 -0.0172 -0.2368
 4861TIP3    H136074   3.023   3.227   3.856 -1.3003  1.0086 -1.2994
 4861TIP3    H236075   3.041   3.138   3.735  1.6180 -1.6529  0.9309
 4862TIP3   OH236076   5.200   2.178   2.413  0.4192 -0.1482  0.0017
 4862TIP3    H136077   5.239   2.139   2.491  0.9037 -1.3480 -0.8146
 4862TIP3    H236078   5.172   2.103   2.360  0.1841  0.6442 -1.0255
 4863TIP3   OH236079   5.339   2.490  15.811 -0.6928 -0.2616 -0.0636
 4863TIP3    H136080   5.251   2.527  15.805 -0.6620 -0.0469  0.7397
 4863TIP3    H236081   5.369   2.513  15.899  0.9751  1.4678 -1.0078
 4864TIP3   OH236082   2.373   1.405   1.490 -0.1612 -0.5380  1.0421
 4864TIP3    H136083   2.320   1.344   1.439  0.3176 -1.2767  1.4040
 4864TIP3    H236084   2.460   1.366   1.491  0.5020  0.8407  0.1508
 4865TIP3   OH236085   6.071   4.385  11.191  0.0049  0.5187  0.2713
 4865TIP3    H136086   5.976   4.369  11.194 -0.2409  1.6890 -0.5360
 4865TIP3    H236087   6.091   4.393  11.098  1.0237 -0.3735  0.4041
 4866TIP3   OH236088   1.536   1.924  15.611  0.3999  0.3669 -0.3178
 4866TIP3    H136089   1.615   1.933  15.664 -0.3649 -1.3858  1.2486
 4866TIP3    H236090   1.566   1.889  15.527  1.1930 -1.5940  0.7316
 4867TIP3   OH236091   3.143   4.745  12.579  0.7682 -0.3749  0.0735
 4867TIP3    H136092   3.132   4.831  12.540 -0.4124 -1.2629 -1.6550
 4867TIP3    H236093   3.096   4.685  12.521  0.6116 -2.0513  1.8150
 4868TIP3   OH236094   0.355   5.284   1.675 -0.0747  0.3466  0.4683
 4868TIP3    H136095   0.304   5.247   1.747  0.6792  1.2537  1.5058
 4868TIP3    H236096   0.416   5.215   1.650  0.1285  0.2609  1.1832
 4869TIP3   OH236097   1.426   3.944  10.452 -0.3682 -0.0998  0.4095
 4869TIP3    H136098   1.334   3.929  10.433 -0.2060  2.1232 -3.3302
 4869TIP3    H236099   1.433   4.039  10.462  1.6531  0.0330 -1.3316
 4870TIP3   OH236100   0.928   0.587  13.089  0.0233  0.4561 -0.0508
 4870TIP3    H136101   1.020   0.610  13.077  0.6647 -0.9906  1.6770
 4870TIP3    H236102   0.915   0.508  13.037 -0.6819  1.4726 -1.4853
 4871TIP3   OH236103   5.515   5.506   2.563  0.6977  0.3713 -0.4978
 4871TIP3    H136104   5.563   5.457   2.629 -0.1297  1.5005  0.9936
 4871TIP3    H236105   5.423   5.488   2.581  0.4544 -0.0340 -1.9559
 4872TIP3   OH236106   4.594   4.964   6.181 -0.4033 -0.1468 -0.0946
 4872TIP3    H136107   4.563   5.039   6.233 -1.0282  0.0142 -0.6836
 4872TIP3    H236108   4.528   4.896   6.198 -0.9786  0.1239 -1.1851
 4873TIP3   OH236109   4.635   1.438  13.570  0.1714  0.2081  0.4864
 4873TIP3    H136110   4.597   1.413  13.486 -2.4452  1.5744  1.1360
 4873TIP3    H236111   4.663   1.356  13.610 -1.4640 -0.8524 -0.4377
 4874TIP3   OH236112   1.507   2.382  14.200 -0.4174 -0.1632 -0.7267
 4874TIP3    H136113   1.602   2.398  14.206 -0.5876  0.9143 -0.7858
 4874TIP3    H236114   1.468   2.468  14.205 -1.3459 -0.4703 -2.0968
 4875TIP3   OH236115   0.716   0.029  10.871  0.0043  0.6362 -0.1629
 4875TIP3    H136116   0.717   0.111  10.822  0.3587  0.9917  0.4295
 4875TIP3    H236117   0.770  -0.030  10.819 -1.2176  0.3938 -1.2108
 4876TIP3   OH236118   5.117   1.296   3.137 -0.2526 -0.8940 -0.2299
 4876TIP3    H136119   5.112   1.310   3.043 -0.2586  1.9577  0.0946
 4876TIP3    H236120   5.033   1.328   3.171  0.1381 -0.9335  0.8185
 4877TIP3   OH236121   3.073   1.800  11.544 -0.0064  0.2132 -0.1298
 4877TIP3    H136122   3.034   1.789  11.631 -0.0263  1.1499 -0.0130
 4877TIP3    H236123   3.160   1.763  11.552  0.0689  0.4875  0.3521
 4878TIP3   OH236124   4.281   3.777   3.420  0.2039  0.1376  0.3167
 4878TIP3    H136125   4.187   3.763   3.406  0.1711  0.1950  0.4760
 4878TIP3    H236126   4.304   3.846   3.357  0.3224 -0.4798 -0.3228
 4879TIP3   OH236127   3.669   5.745  16.237 -0.5129 -0.2015  0.1819
 4879TIP3    H136128   3.609   5.784  16.300 -0.3755  0.0453  0.1614
 4879TIP3    H236129   3.666   5.804  16.161  0.5587  0.4086  0.5886
 4880TIP3   OH236130   2.611   0.503   0.419 -0.4068  0.4594  0.0881
 4880TIP3    H136131   2.706   0.516   0.417 -0.4693  0.8270 -1.0136
 4880TIP3    H236132   2.599   0.408   0.419 -0.0360  0.3882 -1.2115
 4881TIP3   OH236133   6.081   0.595   5.107  0.5690 -0.6252  0.2939
 4881TIP3    H136134   6.173   0.578   5.087  1.0779  2.1826 -0.2215
 4881TIP3    H236135   6.054   0.521   5.162  2.7407 -2.1554 -0.5723
 4882TIP3   OH236136   4.793   6.203  16.337  0.3734  0.2215  0.0424
 4882TIP3    H136137   4.755   6.199  16.425 -0.8363  1.1877 -0.4139
 4882TIP3    H236138   4.756   6.282  16.298  1.6480  0.3359 -1.0058
 4883TIP3   OH236139   1.628   0.540   3.921  0.1340 -0.4970 -0.0643
 4883TIP3    H136140   1.703   0.520   3.977  0.7630  0.5092 -0.5252
 4883TIP3    H236141   1.664   0.541   3.832 -0.1761  1.0737 -0.2015
 4884TIP3   OH236142   3.796   4.185  15.756 -0.1842 -0.3532 -0.1777
 4884TIP3    H136143   3.847   4.264  15.774 -1.3740 -0.0300  2.1708
 4884TIP3    H236144   3.833   4.151  15.675  1.9423  1.3042 -0.0015
 4885TIP3   OH236145   6.724   5.359   0.052 -0.6881  0.1131 -0.2550
 4885TIP3    H136146   6.810   5.374   0.013  0.1179 -1.5414  0.7705
 4885TIP3    H236147   6.725   5.411   0.133 -0.7386  0.2358 -0.3321
 4886TIP3   OH236148   0.772   5.486  13.123 -0.6597 -0.5117  0.2943
 4886TIP3    H136149   0.711   5.482  13.049 -1.2476 -1.3853  0.8173
 4886TIP3    H236150   0.837   5.417  13.104  0.6047  0.8605 -0.6099
 4887TIP3   OH236151   5.002   6.697   3.814 -0.1306 -0.5689 -0.4716
 4887TIP3    H136152   5.029   6.782   3.848  1.3765 -1.0299 -0.4755
 4887TIP3    H236153   4.984   6.645   3.893 -1.5159 -0.1331 -0.4709
 4888TIP3   OH236154   6.383   4.741   3.410 -0.3068 -0.4053  0.4900
 4888TIP3    H136155   6.327   4.776   3.479 -1.9326  2.5101 -2.0033
 4888TIP3    H236156   6.470   4.773   3.432 -0.9984  1.5170  0.6585
 4889TIP3   OH236157   3.538   3.063   4.017 -0.3749  0.4477 -0.5946
 4889TIP3    H136158   3.501   3.140   3.975 -1.7867  0.2790  0.2972
 4889TIP3    H236159   3.629   3.087   4.035  0.2537  0.6070 -3.4797
 4890TIP3   OH236160   4.072   3.879   0.325 -0.6789 -0.2900 -0.2785
 4890TIP3    H136161   4.115   3.965   0.324  0.2358 -0.6840  1.8696
 4890TIP3    H236162   4.131   3.823   0.274  2.0110 -1.0285  3.2972
 4891TIP3   OH236163   0.996   5.356  11.418 -0.4956  0.2028 -0.1086
 4891TIP3    H136164   0.947   5.438  11.422 -0.8370 -0.0195  2.9853
 4891TIP3    H236165   1.065   5.366  11.485 -0.0802 -1.7297 -0.1958
 4892TIP3   OH236166   1.749   5.425  11.249 -0.4059  0.1385 -0.0084
 4892TIP3    H136167   1.705   5.399  11.330  0.5068 -0.8221  0.2117
 4892TIP3    H236168   1.789   5.510  11.270 -1.4856  0.6467  0.0303
 4893TIP3   OH236169   3.863   3.265   1.996  0.4444  0.3726 -0.4855
 4893TIP3    H136170   3.888   3.188   1.945 -0.6767 -0.6231  0.4087
 4893TIP3    H236171   3.940   3.284   2.050  0.4707 -0.6011 -0.1580
 4894TIP3   OH236172   5.924   5.555  11.705  0.5399  0.3523  0.2842
 4894TIP3    H136173   5.860   5.508  11.759  1.6122  0.5142  1.7301
 4894TIP3    H236174   5.873   5.626  11.665 -0.8228 -1.2257 -0.9508
 4895TIP3   OH236175   6.361   1.008   1.419 -0.8346  0.3657 -0.0125
 4895TIP3    H136176   6.312   0.990   1.338 -0.2355  1.5098 -0.6472
 4895TIP3    H236177   6.436   0.948   1.415  0.1878  1.6720 -1.2352
 4896TIP3   OH236178   5.722   2.084   3.020  0.1393  0.4841 -0.0021
 4896TIP3    H136179   5.810   2.074   3.057  0.6087  1.1510 -0.9040
 4896TIP3    H236180   5.688   2.164   3.060 -1.0039 -0.9606  2.1165
 4897TIP3   OH236181   4.057   2.689   3.812 -0.3272 -0.1351 -0.2366
 4897TIP3    H136182   4.140   2.646   3.831  0.1162  0.3064 -1.0963
 4897TIP3    H236183   3.997   2.618   3.788 -0.5499 -0.5755  1.4712
 4898TIP3   OH236184   0.744   4.696   1.293  0.1831 -0.0680  0.5737
 4898TIP3    H136185   0.790   4.613   1.298  0.5843  0.2073  3.6790
 4898TIP3    H236186   0.810   4.758   1.259  0.7714 -0.5097  0.8873
 4899TIP3   OH236187   0.245   6.270  13.609  0.1865  0.0389 -0.0384
 4899TIP3    H136188   0.300   6.263  13.531  0.3635 -1.0995  0.1713
 4899TIP3    H236189   0.304   6.251  13.681 -0.0709  0.6862  0.3540
 4900TIP3   OH236190   4.992   4.226   6.316 -0.1863  0.0778  0.4005
 4900TIP3    H136191   4.986   4.227   6.411 -1.8431  0.4529  0.3139
 4900TIP3    H236192   5.075   4.270   6.297  1.0573 -1.5532  1.6891
 4901TIP3   OH236193   6.505   5.203  13.097  0.2216  0.2853  0.0437
 4901TIP3    H136194   6.488   5.147  13.173  1.3545 -1.0806 -0.6604
 4901TIP3    H236195   6.520   5.290  13.134 -1.2177  0.0775  1.1997
 4902TIP3   OH236196   2.088   3.682   2.774  0.1346 -0.4038  0.1975
 4902TIP3    H136197   2.083   3.660   2.867  1.3033  0.4843  0.4969
 4902TIP3    H236198   2.060   3.773   2.769  2.8791  0.5462  0.1649
 4903TIP3   OH236199   5.199   1.821  13.065 -0.7950 -0.5210 -0.0444
 4903TIP3    H136200   5.201   1.745  13.124 -0.9798 -0.6274 -0.1739
 4903TIP3    H236201   5.107   1.830  13.041 -0.5879 -1.0586 -1.0630
 4904TIP3   OH236202   3.374   4.631  13.332 -0.1674 -0.1299 -0.0188
 4904TIP3    H136203   3.437   4.566  13.365 -1.2809 -0.7901  0.9096
 4904TIP3    H236204   3.289   4.587  13.340 -0.7981  0.9296 -0.7412
 4905TIP3   OH236205   5.829   1.372   4.037 -0.1156 -0.1072 -0.0647
 4905TIP3    H136206   5.878   1.446   4.073  1.0742 -0.8541 -0.0935
 4905TIP3    H236207   5.871   1.355   3.953 -0.2028 -0.9803  0.0663
 4906TIP3   OH236208   3.424   3.130   3.686 -0.7496 -0.3812  0.3563
 4906TIP3    H136209   3.404   3.088   3.770  0.3272 -0.0631  0.8063
 4906TIP3    H236210   3.493   3.076   3.648 -0.0741  0.3751  0.4623
 4907TIP3   OH236211   5.210   4.867  15.542  0.4585 -0.6622  0.4086
 4907TIP3    H136212   5.208   4.912  15.458 -1.3042  0.5524  1.0505
 4907TIP3    H236213   5.214   4.774  15.519  2.7095 -0.3091 -0.9387
 4908TIP3   OH236214   5.060   4.788  15.016  0.0058 -0.8046  0.0426
 4908TIP3    H136215   5.065   4.872  14.971  0.9354 -0.7794  0.1677
 4908TIP3    H236216   5.074   4.723  14.947  2.1510 -0.7433  0.3555
 4909TIP3   OH236217   4.431   3.272  13.705  0.3397  0.2971  0.1612
 4909TIP3    H136218   4.456   3.187  13.742 -0.2026  0.2373  0.3967
 4909TIP3    H236219   4.512   3.306  13.668  0.1117 -1.4664 -2.2094
 4910TIP3   OH236220   5.754   3.276  14.285 -0.2590  0.4882  0.2610
 4910TIP3    H136221   5.764   3.328  14.205  0.9293  0.0469  0.1075
 4910TIP3    H236222   5.836   3.289  14.332 -0.3016 -0.5477  0.6414
 4911TIP3   OH236223   1.860   0.507   4.049  0.2423 -0.0263 -0.9833
 4911TIP3    H136224   1.839   0.541   4.137  1.0436 -0.6436 -0.5411
 4911TIP3    H236225   1.931   0.445   4.064 -0.6938 -1.3453 -1.8778
 4912TIP3   OH236226   1.994   1.436   3.998  0.0033  0.1173 -0.0256
 4912TIP3    H136227   2.063   1.484   3.952  1.8467 -0.6361  1.7767
 4912TIP3    H236228   1.994   1.349   3.958  2.1021 -0.7717  1.6851
 4913TIP3   OH236229   0.123   3.014  12.883  0.3369  0.1174  0.4123
 4913TIP3    H136230   0.081   3.061  12.811  0.5433  0.1116  0.2875
 4913TIP3    H236231   0.198   3.070  12.907  0.2227  0.1574  0.6719
 4914TIP3   OH236232   4.665   1.523   4.270  0.3306  0.6480 -0.1876
 4914TIP3    H136233   4.629   1.560   4.190 -2.4679  2.8524  1.8648
 4914TIP3    H236234   4.715   1.595   4.309  0.5994  0.0350  0.6236
 4915TIP3   OH236235   3.727   6.573  11.162  0.2501  0.8185  0.0316
 4915TIP3    H136236   3.759   6.635  11.097 -0.3459 -0.1487 -1.2429
 4915TIP3    H236237   3.631   6.581  11.157  0.1384 -0.5057 -0.5148
 4916TIP3   OH236238   3.433   0.385  13.842  0.4774 -0.0337  0.6183
 4916TIP3    H136239   3.514   0.340  13.867  0.0034  0.0470  2.4170
 4916TIP3    H236240   3.368   0.315  13.838  0.7425 -0.2123 -1.5493
 4917TIP3   OH236241   0.203   3.375   4.675 -1.0817 -0.2585 -0.0279
 4917TIP3    H136242   0.209   3.334   4.762 -0.2915 -0.7403 -0.2979
 4917TIP3    H236243   0.182   3.466   4.694  0.8616  0.0671  0.7827
 4918TIP3   OH236244   5.706   5.375  12.946 -0.1029 -0.3245 -0.0054
 4918TIP3    H136245   5.673   5.458  12.981 -2.6637 -1.3140  0.1646
 4918TIP3    H236246   5.797   5.372  12.973 -0.2313  1.9234  0.9378
 4919TIP3   OH236247   0.603   6.459   6.267  0.0262  0.1024 -0.4291
 4919TIP3    H136248   0.676   6.470   6.206 -0.1882 -0.3360 -0.7708
 4919TIP3    H236249   0.609   6.368   6.295 -0.7168 -0.0978 -0.8905
 4920TIP3   OH236250   3.760   4.695  10.651 -0.1110 -0.2055 -0.3711
 4920TIP3    H136251   3.841   4.736  10.680  0.0999 -0.1708 -0.9967
 4920TIP3    H236252   3.779   4.663  10.562 -1.0532  0.6214 -0.8903
 4921TIP3   OH236253   2.734   1.329  14.753 -0.0522  0.0671  0.5047
 4921TIP3    H136254   2.768   1.242  14.732 -0.1322  0.2128 -0.2568
 4921TIP3    H236255   2.648   1.331  14.709 -0.0437  0.5317  0.5147
 4922TIP3   OH236256   1.712   2.118  16.428 -0.6377 -0.1176  0.1747
 4922TIP3    H136257   1.675   2.053  16.487  2.1065 -0.5818  1.5523
 4922TIP3    H236258   1.741   2.189  16.486  1.0461 -0.0453 -0.6818
 4923TIP3   OH236259   1.822   0.456  11.248 -0.4672  0.4803 -0.1335
 4923TIP3    H136260   1.916   0.437  11.252 -0.4804  0.4871  0.1989
 4923TIP3    H236261   1.813   0.545  11.282 -0.3763  1.2210 -1.9401
 4924TIP3   OH236262   1.991   2.621  15.390 -0.0539  0.4511 -0.5657
 4924TIP3    H136263   2.069   2.627  15.446 -0.3274 -1.2669  0.0683
 4924TIP3    H236264   2.013   2.552  15.327 -1.5036 -1.0067  0.4474
 4925TIP3   OH236265   6.203   3.200   5.307  0.1879 -0.1897  0.1862
 4925TIP3    H136266   6.143   3.223   5.378  1.7553  2.5851  0.7552
 4925TIP3    H236267   6.190   3.267   5.241  1.4602 -0.4882 -0.4117
 4926TIP3   OH236268   2.378   4.850   0.294  0.6236  0.2286  1.1411
 4926TIP3    H136269   2.339   4.831   0.379  1.2634 -0.8499  1.2074
 4926TIP3    H236270   2.464   4.809   0.297  0.9998  0.9185  0.2852
 4927TIP3   OH236271   3.219   6.452   1.204  0.8047  0.5763 -0.3580
 4927TIP3    H136272   3.232   6.501   1.286  1.2196  0.8673 -0.5915
 4927TIP3    H236273   3.132   6.477   1.174  0.2175 -0.3440  0.5352
 4928TIP3   OH236274   6.373   1.499  10.229  0.2103  0.5315  0.1438
 4928TIP3    H136275   6.320   1.425  10.202  0.0384  0.1116  1.5331
 4928TIP3    H236276   6.394   1.545  10.148  0.6414 -1.2360 -0.7844
 4929TIP3   OH236277   1.908   1.920   4.389 -0.2744 -0.1315 -0.2299
 4929TIP3    H136278   1.951   1.987   4.442 -0.7084  0.2058 -0.3049
 4929TIP3    H236279   1.825   1.904   4.433 -0.2033 -0.5792 -0.2479
 4930TIP3   OH236280   0.993   6.170   0.906  0.0946  0.5382  0.2210
 4930TIP3    H136281   1.010   6.127   0.822  2.0996 -0.6806  1.1890
 4930TIP3    H236282   1.058   6.239   0.911  0.4315  0.1683  1.0580
 4931TIP3   OH236283   0.108   1.677   1.377 -0.3937 -0.1077  0.3415
 4931TIP3    H136284   0.025   1.655   1.334  0.3035 -0.4729 -0.8809
 4931TIP3    H236285   0.155   1.594   1.380  0.1484  0.2059  0.5187
 4932TIP3   OH236286   0.768   0.177   5.020 -0.3328  0.0293 -0.0528
 4932TIP3    H136287   0.744   0.154   4.930 -2.6090  0.4226  0.3907
 4932TIP3    H236288   0.768   0.272   5.022  4.3900  0.2799 -0.6956
 4933TIP3   OH236289   5.059   6.135   2.632  0.5098  0.1626 -0.4938
 4933TIP3    H136290   4.974   6.108   2.596 -0.7020  2.8957  0.0757
 4933TIP3    H236291   5.083   6.212   2.581  3.6747 -1.5213 -1.8824
 4934TIP3   OH236292   5.431   5.800   2.184 -0.1387 -0.1175  0.0134
 4934TIP3    H136293   5.498   5.765   2.242  0.8667  1.0953 -0.3737
 4934TIP3    H236294   5.373   5.726   2.167  1.7143 -1.5209 -0.5300
 4935TIP3   OH236295   0.498   5.633   5.599 -0.3380  0.0571 -0.0528
 4935TIP3    H136296   0.528   5.622   5.509  1.6620 -0.6841  0.6559
 4935TIP3    H236297   0.483   5.727   5.608 -1.6247  0.0193 -1.4452
 4936TIP3   OH236298   1.617   1.971   6.297  0.3907  0.0250  0.1002
 4936TIP3    H136299   1.633   1.884   6.333 -0.6608 -0.2684 -0.0831
 4936TIP3    H236300   1.640   2.031   6.368  4.1596 -0.1507 -0.7610
 4937TIP3   OH236301   2.354   2.252  13.029 -0.0099  0.0015  0.2661
 4937TIP3    H136302   2.271   2.292  13.004  0.4000 -0.2964 -1.7225
 4937TIP3    H236303   2.414   2.325  13.041  0.1953  0.0982 -1.2710
 4938TIP3   OH236304   5.482   3.941   1.486  0.4289  0.7308 -0.2967
 4938TIP3    H136305   5.525   3.907   1.407 -2.2419 -0.4608 -1.3527
 4938TIP3    H236306   5.419   4.005   1.454 -0.7142  0.2122  0.8266
 4939TIP3   OH236307   3.535   1.871   2.624  0.7278  0.1103  0.0454
 4939TIP3    H136308   3.605   1.807   2.636  0.0717 -0.5530  0.4195
 4939TIP3    H236309   3.576   1.943   2.576  1.3847 -0.7668 -0.7463
 4940TIP3   OH236310   5.345   2.661  16.029  0.0426  0.6681  0.3668
 4940TIP3    H136311   5.275   2.723  16.009 -0.3128  0.2819  0.4200
 4940TIP3    H236312   5.318   2.617  16.109 -0.1469 -0.2070 -0.1610
 4941TIP3   OH236313   4.956   5.062  13.410 -0.0615 -0.2158 -0.2494
 4941TIP3    H136314   4.909   4.990  13.369 -0.6051 -0.2262  0.3761
 4941TIP3    H236315   4.969   5.034  13.500 -0.0484  0.3547 -0.0690
 4942TIP3   OH236316   4.856   3.804  12.308 -0.4175  0.0148  0.1666
 4942TIP3    H136317   4.915   3.852  12.366  0.8998 -0.1193 -0.9949
 4942TIP3    H236318   4.864   3.849  12.224  1.2587 -2.4286 -1.1183
 4943TIP3   OH236319   4.165   2.390  15.152 -0.2586  0.3147  0.3514
 4943TIP3    H136320   4.113   2.390  15.071  0.7896 -0.8709 -0.3633
 4943TIP3    H236321   4.109   2.434  15.216 -1.2960  0.9004 -0.9036
 4944TIP3   OH236322   3.435   1.160   4.870  0.1320  0.1242  0.4343
 4944TIP3    H136323   3.401   1.185   4.956 -1.0742  0.1899 -0.0412
 4944TIP3    H236324   3.470   1.241   4.834 -0.2236  0.2993  0.4808
 4945TIP3   OH236325   2.292   3.931   5.751 -0.6343  0.0513  0.1069
 4945TIP3    H136326   2.377   3.974   5.761 -0.1663 -0.6002 -0.8773
 4945TIP3    H236327   2.232   4.002   5.728 -0.1709  0.3962 -0.0618
 4946TIP3   OH236328   0.603   2.399   5.322  0.4510  0.1560  0.2744
 4946TIP3    H136329   0.672   2.460   5.349 -0.3995  0.6688  1.3660
 4946TIP3    H236330   0.591   2.342   5.398  0.7500 -0.9442 -0.4839
 4947TIP3   OH236331   2.262   4.423   4.795  0.4096  0.1392 -0.4711
 4947TIP3    H136332   2.233   4.515   4.795  0.8592  0.3037  0.8656
 4947TIP3    H236333   2.307   4.412   4.711  0.8927  1.3270 -0.3908
 4948TIP3   OH236334   0.534   5.322  15.262 -0.0858 -0.5417  0.2537
 4948TIP3    H136335   0.563   5.273  15.339 -0.0551 -1.1313 -0.1244
 4948TIP3    H236336   0.439   5.328  15.271  0.0937  1.3342  1.4624
 4949TIP3   OH236337   4.817   0.803  11.060 -0.6280  0.1285 -0.2889
 4949TIP3    H136338   4.742   0.797  11.120  0.5168  1.4890  1.3892
 4949TIP3    H236339   4.866   0.721  11.074 -0.4785  0.3458  0.5277
 4950TIP3   OH236340   0.885   0.805   5.099  0.5621 -0.1280  0.3797
 4950TIP3    H136341   0.793   0.785   5.085  0.3328  0.2763  1.2211
 4950TIP3    H236342   0.916   0.838   5.015 -0.0269 -0.3843  0.0606
 4951TIP3   OH236343   6.092   0.875   0.362 -0.0492 -0.6713  0.5177
 4951TIP3    H136344   6.059   0.816   0.295 -0.0051  1.3854 -1.4251
 4951TIP3    H236345   6.021   0.882   0.426 -1.7774  0.4225 -1.4204
 4952TIP3   OH236346   2.460   6.053   2.881 -0.0196 -0.0540  0.0689
 4952TIP3    H136347   2.464   6.148   2.867  0.1826 -0.3655 -2.6232
 4952TIP3    H236348   2.399   6.042   2.953  1.1393  2.1548  1.5295
 4953TIP3   OH236349   6.164   0.722   3.621  0.6983  0.3928 -0.3063
 4953TIP3    H136350   6.257   0.708   3.638  0.1615 -1.2167  1.6418
 4953TIP3    H236351   6.153   0.700   3.529  1.7815 -2.1909  0.1131
 4954TIP3   OH236352   2.453   6.474  15.342 -0.6764 -0.5334  0.2964
 4954TIP3    H136353   2.477   6.414  15.271  1.6421  0.3997  0.1832
 4954TIP3    H236354   2.518   6.458  15.410 -0.7464  0.9745  0.7588
 4955TIP3   OH236355   6.674   5.597   1.012  0.1524  0.3612  0.1255
 4955TIP3    H136356   6.676   5.682   1.055  0.2445  0.2101  0.4237
 4955TIP3    H236357   6.750   5.596   0.955  1.6716 -0.5090  2.0416
 4956TIP3   OH236358   0.190   1.118  12.598 -0.0512 -0.1189 -0.1079
 4956TIP3    H136359   0.200   1.063  12.520 -1.4002  1.2238 -1.3034
 4956TIP3    H236360   0.112   1.171  12.580  1.0286  2.0005  1.0610
 4957TIP3   OH236361   6.471   6.276   6.123 -0.2383  0.4980  0.0088
 4957TIP3    H136362   6.511   6.360   6.101  0.3624  0.2917  0.3006
 4957TIP3    H236363   6.544   6.215   6.129 -0.7362 -0.2597 -1.1030
 4958TIP3   OH236364   1.286   1.711  16.726  0.1762 -0.4968 -0.3725
 4958TIP3    H136365   1.277   1.788  16.783 -0.2872 -0.1143 -0.9421
 4958TIP3    H236366   1.209   1.657  16.746 -0.9121  0.4454 -1.8018
 4959TIP3   OH236367   5.013   5.245   4.602 -0.0541  0.5982 -0.2904
 4959TIP3    H136368   5.007   5.201   4.517 -2.7374 -0.2437  0.2434
 4959TIP3    H236369   5.007   5.174   4.665  0.1981  1.3679  0.6143
 4960TIP3   OH236370   6.460   4.262   5.201  0.2848 -0.2181 -0.1803
 4960TIP3    H136371   6.513   4.201   5.254  1.6395  2.2125  1.4606
 4960TIP3    H236372   6.370   4.231   5.213  0.7157 -0.7827  2.2499
 4961TIP3   OH236373   6.068   6.113   5.108 -0.1776 -0.4146 -0.4751
 4961TIP3    H136374   6.145   6.057   5.117 -0.2920 -0.5264 -0.1910
 4961TIP3    H236375   6.093   6.176   5.040 -0.6935 -1.9029 -2.1077
 4962TIP3   OH236376   5.659   3.047  16.628 -0.4691 -0.1091 -0.2190
 4962TIP3    H136377   5.594   3.105  16.668  0.6684  1.9769 -1.2616
 4962TIP3    H236378   5.728   3.040  16.694 -0.8057 -0.6767  0.0841
 4963TIP3   OH236379   2.778   4.626   0.787  0.2197 -0.2962 -0.0348
 4963TIP3    H136380   2.771   4.641   0.881  1.4035 -0.2450  0.0651
 4963TIP3    H236381   2.857   4.572   0.777 -0.6085 -1.4211 -0.8920
 4964TIP3   OH236382   1.371   0.807   6.036  0.3437  0.3109  0.3578
 4964TIP3    H136383   1.326   0.874   6.088  1.2290  0.4334  1.0038
 4964TIP3    H236384   1.449   0.786   6.088  0.7731 -0.2422 -0.4943
 4965TIP3   OH236385   3.261   6.452   3.042 -0.4509 -0.4034 -0.0459
 4965TIP3    H136386   3.325   6.406   3.096  0.5651  0.9566 -0.0362
 4965TIP3    H236387   3.267   6.543   3.071 -2.2366 -0.1958 -0.2205
 4966TIP3   OH236388   0.223   1.636  14.633  0.4892 -0.5215 -0.2315
 4966TIP3    H136389   0.165   1.699  14.676  0.3855 -1.1210  0.5235
 4966TIP3    H236390   0.258   1.684  14.558  0.7892  0.6162  0.5921
 4967TIP3   OH236391   4.488   3.880  14.835  0.9608  0.4070 -0.5950
 4967TIP3    H136392   4.467   3.872  14.928  1.6666  0.7039 -0.4086
 4967TIP3    H236393   4.497   3.790  14.804  0.2661  0.2922 -0.4902
 4968TIP3   OH236394   3.693   2.535  11.525 -0.3276  0.3461  0.3508
 4968TIP3    H136395   3.775   2.570  11.491  0.1514 -1.0291  0.0125
 4968TIP3    H236396   3.684   2.449  11.483 -1.2901 -0.0690  1.3448
 4969TIP3   OH236397   0.090   0.103  14.707 -0.3263 -0.4727 -0.6142
 4969TIP3    H136398   0.175   0.110  14.751 -0.7129 -0.2630  0.1228
 4969TIP3    H236399   0.026   0.114  14.777 -0.9725 -1.4742 -1.0271
 4970TIP3   OH236400   5.343   5.979  14.575 -0.1584 -0.2067 -0.0914
 4970TIP3    H136401   5.259   6.023  14.566  0.4728  0.9719 -0.3787
 4970TIP3    H236402   5.376   5.972  14.485  0.3488 -0.0550  0.0784
 4971TIP3   OH236403   4.321   4.960   0.597 -0.4172 -0.4716  0.1969
 4971TIP3    H136404   4.262   5.007   0.538  2.5449  2.9361 -0.3914
 4971TIP3    H236405   4.348   4.883   0.548  0.4188  1.2252 -2.2256
 4972TIP3   OH236406   4.721   2.914   1.898 -0.0290 -0.3185 -0.0506
 4972TIP3    H136407   4.716   3.001   1.938 -1.9920 -0.4952  0.2116
 4972TIP3    H236408   4.814   2.899   1.883  0.4551  1.2420  1.1769
 4973TIP3   OH236409   6.512   2.759  13.710 -0.4579 -0.1704  0.4928
 4973TIP3    H136410   6.559   2.838  13.738  0.6617 -1.7358  3.4439
 4973TIP3    H236411   6.574   2.715  13.652 -0.4105  0.2578  0.2064
 4974TIP3   OH236412   6.699   3.976  11.354 -0.0465 -0.1685 -0.6044
 4974TIP3    H136413   6.613   3.945  11.325 -0.7765 -0.0631  1.2587
 4974TIP3    H236414   6.718   3.923  11.431  1.8043 -0.4903 -1.2471
 4975TIP3   OH236415   5.216   0.817  10.747  0.0481 -0.2073  0.4623
 4975TIP3    H136416   5.144   0.822  10.810 -1.7583  0.3565 -1.4867
 4975TIP3    H236417   5.196   0.740  10.694  0.7118  0.1162 -0.2810
 4976TIP3   OH236418   6.051   3.252   4.245  0.3442  0.6772  0.6789
 4976TIP3    H136419   6.076   3.180   4.189 -1.9912  0.7498 -0.5954
 4976TIP3    H236420   6.055   3.330   4.189  1.5499  1.3676  1.6674
 4977TIP3   OH236421   3.080   2.468  10.951  0.2529  0.7161 -0.9695
 4977TIP3    H136422   3.035   2.515  10.881 -1.0420 -1.0658 -1.3839
 4977TIP3    H236423   3.044   2.505  11.031  0.6067  1.6897 -1.2418
 4978TIP3   OH236424   0.474   3.508  13.915  0.4248 -0.1709  0.1331
 4978TIP3    H136425   0.497   3.589  13.960 -0.3188  0.1852 -0.1022
 4978TIP3    H236426   0.380   3.499  13.929 -0.0188  0.4551 -2.1265
 4979TIP3   OH236427   0.334   6.626  14.228  0.5067  0.0013 -0.1392
 4979TIP3    H136428   0.322   6.711  14.187 -0.6547  0.0606  0.2947
 4979TIP3    H236429   0.331   6.643  14.322 -0.2546 -0.5761 -0.0474
 4980TIP3   OH236430   0.200   4.419  16.094  0.3484  0.3061 -0.4898
 4980TIP3    H136431   0.148   4.374  16.027  1.4393 -1.3590 -0.2622
 4980TIP3    H236432   0.258   4.352  16.129  2.5174  2.0225 -0.5718
 4981TIP3   OH236433   4.202   3.641   5.810 -0.2134  0.6531  0.0265
 4981TIP3    H136434   4.238   3.594   5.885  1.7741 -0.1494 -1.3058
 4981TIP3    H236435   4.195   3.732   5.839  1.0969  0.4756  1.0167
 4982TIP3   OH236436   4.766   5.062   6.524 -0.4717  0.3796  0.1490
 4982TIP3    H136437   4.688   5.107   6.494  0.1917  0.1160 -2.1297
 4982TIP3    H236438   4.732   4.983   6.567 -1.4586  0.0877 -1.1107
 4983TIP3   OH236439   4.585   5.958   3.523  0.0714 -0.0583 -0.3547
 4983TIP3    H136440   4.625   5.965   3.436 -0.7112  1.1540 -0.6294
 4983TIP3    H236441   4.497   5.924   3.507 -0.3914  0.9958 -0.1418
 4984TIP3   OH236442   4.912   2.852   2.640 -0.6286  0.0072  0.0810
 4984TIP3    H136443   4.943   2.764   2.622  2.0000  0.6728  0.8803
 4984TIP3    H236444   4.824   2.840   2.677 -1.6637 -1.9860 -2.7199
 4985TIP3   OH236445   1.319   1.487   1.257 -0.1683  0.4958 -0.0012
 4985TIP3    H136446   1.381   1.418   1.236 -0.2951  1.2354 -3.2725
 4985TIP3    H236447   1.298   1.473   1.350  2.8044 -1.3641  0.5247
 4986TIP3   OH236448   6.692   4.789  16.149  0.1316  0.0453 -0.6726
 4986TIP3    H136449   6.766   4.798  16.209 -0.1212  0.0071 -0.3470
 4986TIP3    H236450   6.631   4.731  16.196 -1.3510  2.2486  0.2890
 4987TIP3   OH236451   0.891   1.263  12.862 -0.0963  0.0607  0.2423
 4987TIP3    H136452   0.924   1.336  12.913  2.5562 -1.4086  0.7992
 4987TIP3    H236453   0.960   1.197  12.866 -1.9351 -2.1165 -1.0460
 4988TIP3   OH236454   6.230   6.477   6.082 -0.3688 -0.2885 -0.4489
 4988TIP3    H136455   6.190   6.561   6.103 -2.9410 -1.7648  0.9767
 4988TIP3    H236456   6.317   6.500   6.048  0.3815  2.7913  2.9278
 4989TIP3   OH236457   2.009   4.202  15.037 -0.7176  0.8061 -0.5437
 4989TIP3    H136458   1.980   4.292  15.050  0.9991  1.4338 -0.8749
 4989TIP3    H236459   1.942   4.163  14.982  0.0407  2.8224 -3.0517
 4990TIP3   OH236460   0.228   5.321   3.648 -0.2312  0.2396  0.0012
 4990TIP3    H136461   0.164   5.376   3.605  1.2933  1.5157 -0.7106
 4990TIP3    H236462   0.278   5.380   3.704 -0.4987 -0.9479  1.5854
 4991TIP3   OH236463   0.978   6.509  15.866  0.2539 -0.2861  0.2041
 4991TIP3    H136464   1.030   6.575  15.819 -0.5690  0.6748  0.6024
 4991TIP3    H236465   1.012   6.425  15.834  0.9744  0.3230 -0.7089
 4992TIP3   OH236466   2.061   3.390   4.601 -0.3230 -0.2653 -0.2201
 4992TIP3    H136467   2.049   3.365   4.510 -0.0485  2.8932 -1.2492
 4992TIP3    H236468   2.125   3.461   4.598 -1.7024  1.2225  2.2077
 4993TIP3   OH236469   5.552   3.755   5.324  0.4538 -0.4106  0.0407
 4993TIP3    H136470   5.554   3.676   5.271  0.0052 -0.1948 -0.3095
 4993TIP3    H236471   5.476   3.804   5.292  0.3156 -0.1590  0.7205
 4994TIP3   OH236472   4.036   6.502  11.591 -0.1200 -0.4630  0.1592
 4994TIP3    H136473   4.055   6.416  11.552  0.8680  0.6060 -1.9133
 4994TIP3    H236474   3.971   6.541  11.532 -0.1432  0.4329  0.7585
 4995TIP3   OH236475   0.934   4.061   1.380 -0.0858  0.1825  0.0808
 4995TIP3    H136476   0.991   3.998   1.334  1.6077 -0.1657  2.4774
 4995TIP3    H236477   0.858   4.009   1.407  0.3569 -0.3559  0.3161
 4996TIP3   OH236478   1.672   2.766   4.687 -0.2692  0.1348  0.1946
 4996TIP3    H136479   1.702   2.796   4.772 -0.0710  0.6790 -0.0588
 4996TIP3    H236480   1.688   2.672   4.687  1.9303  0.4537 -0.1053
 4997TIP3   OH236481   4.845   3.258   2.547 -0.1390  0.3112  0.5189
 4997TIP3    H136482   4.783   3.191   2.517  1.4118 -0.5474 -0.9840
 4997TIP3    H236483   4.910   3.210   2.599 -0.4059  1.1041  1.6274
 4998TIP3   OH236484   0.333   2.847  14.934 -0.3355 -0.5375  0.6661
 4998TIP3    H136485   0.414   2.887  14.901 -1.1324  0.1905 -0.4984
 4998TIP3    H236486   0.342   2.849  15.029  0.5919  0.4323  0.5748
 4999TIP3   OH236487   5.891   5.687   1.799 -0.3454 -0.1788  0.9640
 4999TIP3    H136488   5.841   5.633   1.737  0.8393 -1.2554  0.9174
 4999TIP3    H236489   5.826   5.716   1.863 -1.7685  1.5838 -1.1360
 5000TIP3   OH236490   6.577   0.625  16.197 -0.2995 -0.3797 -0.0063
 5000TIP3    H136491   6.597   0.546  16.246  2.1442  0.0769 -0.1719
 5000TIP3    H236492   6.566   0.595  16.107 -0.2726 -0.6321  0.0738
 5001TIP3   OH236493   3.757   5.367   2.104 -0.4782 -0.1942  0.2468
 5001TIP3    H136494   3.802   5.395   2.024  1.6251 -3.0917  0.2491
 5001TIP3    H236495   3.809   5.405   2.175  0.3294 -1.2250  0.2258
 5002TIP3   OH236496   2.303   3.764  11.821 -0.2897  0.3267  0.1439
 5002TIP3    H136497   2.349   3.683  11.797  0.7571  0.8474  0.3328
 5002TIP3    H236498   2.327   3.826  11.752 -0.5979  0.6582  0.3324
 5003TIP3   OH236499   3.667   2.076   5.210 -0.0688  0.2240 -0.7321
 5003TIP3    H136500   3.592   2.019   5.193 -0.8281  0.7917  0.5967
 5003TIP3    H236501   3.740   2.016   5.226 -0.7740 -0.3859  0.3049
 5004TIP3   OH236502   0.805   1.448  15.683 -0.2681  0.7837  0.2543
 5004TIP3    H136503   0.799   1.379  15.617  0.2925  1.3333 -0.3825
 5004TIP3    H236504   0.875   1.505  15.652  0.0058  1.0541  1.3311
 5005TIP3   OH236505   6.009   2.805  15.671 -0.3018  0.3010  0.8791
 5005TIP3    H136506   5.931   2.751  15.683 -0.3714  0.5328  1.5186
 5005TIP3    H236507   5.990   2.886  15.720 -0.2684  0.9762 -0.1985
 5006TIP3   OH236508   1.536   4.320  11.812 -0.5903 -0.1252  0.3405
 5006TIP3    H136509   1.632   4.311  11.810 -0.1268  3.3371 -2.0985
 5006TIP3    H236510   1.519   4.379  11.885 -0.7650 -0.0563  0.2434
 5007TIP3   OH236511   3.316   5.716   0.181  0.5528  0.3640  0.1084
 5007TIP3    H136512   3.248   5.671   0.131 -0.2040  1.4615  0.1114
 5007TIP3    H236513   3.368   5.646   0.219  2.1895 -0.6177 -3.4935
 5008TIP3   OH236514   4.942   3.752   4.447  0.1619 -0.5018 -0.0966
 5008TIP3    H136515   4.990   3.762   4.530  1.6140 -0.9600 -0.8553
 5008TIP3    H236516   4.906   3.663   4.451 -1.3707  0.1221  0.8259
 5009TIP3   OH236517   2.545   4.901   2.010 -0.0189 -0.8569  0.2665
 5009TIP3    H136518   2.566   4.834   2.075  1.5000  1.0445  1.8534
 5009TIP3    H236519   2.605   4.973   2.029 -1.0730  0.6807 -1.8333
 5010TIP3   OH236520   0.906   0.726  12.329 -0.5434  0.2644 -0.3156
 5010TIP3    H136521   0.994   0.703  12.297 -0.0611  1.7660 -0.1594
 5010TIP3    H236522   0.872   0.645  12.366  0.7976 -0.3395 -0.3387
 5011TIP3   OH236523   1.009   1.421  12.617 -0.2140 -0.3874  0.1059
 5011TIP3    H136524   0.959   1.395  12.694 -0.2546  2.3999  1.1523
 5011TIP3    H236525   0.981   1.511  12.600  3.7488  1.0938  0.2623
 5012TIP3   OH236526   6.328   1.242  13.637 -0.0402  0.3651 -0.1956
 5012TIP3    H136527   6.344   1.148  13.645 -0.0633  0.3398 -0.4332
 5012TIP3    H236528   6.415   1.282  13.646 -0.0068  0.3097 -0.2720
 5013TIP3   OH236529   5.933   1.908   4.598  0.3729 -0.8494 -0.1327
 5013TIP3    H136530   6.017   1.870   4.571  0.9679 -1.1699  2.0035
 5013TIP3    H236531   5.875   1.893   4.524  2.3063 -0.1508 -1.9033
 5014TIP3   OH236532   6.739   2.634  16.542  0.5196 -0.3581 -0.1446
 5014TIP3    H136533   6.663   2.580  16.523 -0.8466  1.8733 -1.4599
 5014TIP3    H236534   6.708   2.698  16.607  1.4150  0.2744 -0.3191
 5015TIP3   OH236535   2.712   5.483   3.030  0.9255 -0.1617 -0.3513
 5015TIP3    H136536   2.716   5.396   2.991  0.1335 -0.0400 -0.7410
 5015TIP3    H236537   2.707   5.467   3.124 -0.7846 -0.6295 -0.4808
 5016TIP3   OH236538   6.751   1.912  16.583 -0.3622  0.3884  0.3504
 5016TIP3    H136539   6.739   1.825  16.545  1.2942  0.4994 -0.5206
 5016TIP3    H236540   6.843   1.933  16.567 -0.5615  2.0369  1.1252
 5017TIP3   OH236541   2.838   3.708   0.404 -0.6592 -0.3891  0.9818
 5017TIP3    H136542   2.752   3.726   0.365 -0.6761 -1.6259  0.3953
 5017TIP3    H236543   2.844   3.769   0.477 -1.8617  0.0056  0.7796
 5018TIP3   OH236544   1.954   4.647   1.945  0.8280 -0.4591  0.2884
 5018TIP3    H136545   2.028   4.612   1.994  0.8418 -1.3773 -0.3664
 5018TIP3    H236546   1.991   4.674   1.861  0.2690 -1.8987 -0.4538
 5019TIP3   OH236547   2.924   2.223   3.501 -0.4067 -0.5512  0.0329
 5019TIP3    H136548   2.841   2.232   3.455 -0.2171  1.2985 -0.0219
 5019TIP3    H236549   2.933   2.304   3.550  0.9825 -1.0756  0.6950
 5020TIP3   OH236550   3.873   1.092  14.089 -0.3290 -0.2673 -0.0490
 5020TIP3    H136551   3.885   0.997  14.094 -1.4157 -0.3761  1.0384
 5020TIP3    H236552   3.905   1.124  14.173 -2.1623  0.0382  0.5667
 5021TIP3   OH236553   0.227   1.668   4.146  0.1417 -0.4371 -0.4466
 5021TIP3    H136554   0.141   1.689   4.182  1.2294 -0.2849  2.3533
 5021TIP3    H236555   0.282   1.742   4.171  1.0237 -0.2324 -2.7197
 5022TIP3   OH236556   5.298   5.003   3.244  0.2119 -0.2559 -0.2534
 5022TIP3    H136557   5.323   5.059   3.170  1.1578 -1.1636 -0.6564
 5022TIP3    H236558   5.335   5.046   3.321 -1.2662  1.0003 -0.1997
 5023TIP3   OH236559   3.085   5.862  16.885 -0.1122 -0.2018  0.4746
 5023TIP3    H136560   3.175   5.893  16.887 -0.1758 -0.0042  0.3920
 5023TIP3    H236561   3.091   5.767  16.875  0.0969 -0.3110  1.5790
 5024TIP3   OH236562   6.350   1.912   5.619 -0.2641 -0.6593 -0.0892
 5024TIP3    H136563   6.410   1.914   5.544 -0.2473 -0.2341 -0.0681
 5024TIP3    H236564   6.383   1.979   5.678 -1.2069  0.1357 -0.4390
 5025TIP3   OH236565   5.396   5.255  12.164  0.7382  0.0797 -0.1437
 5025TIP3    H136566   5.465   5.217  12.110 -0.0697 -0.7352 -0.6461
 5025TIP3    H236567   5.394   5.347  12.139  2.2405  0.3210  0.5478
 5026TIP3   OH236568   4.445   5.766   1.095  0.5883 -0.1536  0.0844
 5026TIP3    H136569   4.425   5.774   1.002  0.8923  0.4487  0.0669
 5026TIP3    H236570   4.467   5.673   1.107 -2.1776 -0.8989  0.1074
 5027TIP3   OH236571   6.239   2.366  11.025  0.4315 -0.1013  0.0866
 5027TIP3    H136572   6.297   2.308  11.075 -1.9448 -0.6020  2.4613
 5027TIP3    H236573   6.244   2.333  10.935  2.2177 -1.4041  0.6174
 5028TIP3   OH236574   0.246   3.699  16.586  0.3975  0.0122  0.0747
 5028TIP3    H136575   0.221   3.738  16.670  2.2193 -2.0316  1.6741
 5028TIP3    H236576   0.165   3.699  16.535 -0.9663  0.6307  2.0983
 5029TIP3   OH236577   4.676   2.382   0.741 -0.7144 -0.4226 -0.1131
 5029TIP3    H136578   4.748   2.327   0.710 -0.5931  0.2823 -1.1552
 5029TIP3    H236579   4.712   2.429   0.816  0.2983  0.7215 -1.2663
 5030TIP3   OH236580   0.832   4.126  12.263  0.0947 -0.2733  0.1894
 5030TIP3    H136581   0.796   4.061  12.203  3.2314 -0.4682 -1.7188
 5030TIP3    H236582   0.875   4.075  12.331  0.6378 -0.1869 -0.0797
 5031TIP3   OH236583   2.456   3.379  15.162 -0.5047  0.8389  0.5064
 5031TIP3    H136584   2.483   3.299  15.207  0.0856  0.2838 -0.7709
 5031TIP3    H236585   2.461   3.448  15.229 -1.2303 -0.2125  1.6834
 5032TIP3   OH236586   0.184   0.403  10.755  0.1946 -0.0052  0.0413
 5032TIP3    H136587   0.103   0.369  10.715  0.8182  0.3092 -1.5811
 5032TIP3    H236588   0.204   0.481  10.703  1.9789 -0.5400 -0.1175
 5033TIP3   OH236589   0.979   1.029  15.944  0.2146 -0.2008 -0.8350
 5033TIP3    H136590   0.975   1.087  15.868 -0.3200 -0.6745 -1.1785
 5033TIP3    H236591   0.895   0.983  15.944  0.3813 -0.5228 -0.2083
 5034TIP3   OH236592   2.286   6.342   5.221 -0.4397 -0.4837  0.1158
 5034TIP3    H136593   2.342   6.388   5.284  0.1496 -0.0032 -0.7375
 5034TIP3    H236594   2.348   6.298   5.162 -0.9869 -1.2549  0.1096
 5035TIP3   OH236595   6.328   1.797  10.941 -0.0063 -0.0772  0.0809
 5035TIP3    H136596   6.309   1.880  10.984 -2.4039  0.3357 -1.6014
 5035TIP3    H236597   6.421   1.801  10.920 -0.4182  3.0899 -1.7013
 5036TIP3   OH236598   6.528   6.794   2.021  0.4765  0.2260  0.1188
 5036TIP3    H136599   6.566   6.753   1.944 -0.1892  0.1890 -0.1940
 5036TIP3    H236600   6.570   6.750   2.095  1.3486  0.4821 -0.2111
 5037TIP3   OH236601   4.940   3.255   3.966  0.4408 -0.0746  0.0970
 5037TIP3    H136602   5.030   3.259   3.932 -0.5275 -1.0599 -2.9597
 5037TIP3    H236603   4.911   3.346   3.965  1.2991  0.2208  0.8383
 5038TIP3   OH236604   4.279   6.323  14.345  0.5831  0.3072 -0.0837
 5038TIP3    H136605   4.325   6.248  14.308  1.2912  1.0738 -0.7870
 5038TIP3    H236606   4.238   6.289  14.424  4.4933  0.1602  2.1197
 5039TIP3   OH236607   2.650   4.427   3.156  0.5293 -0.1730 -0.2160
 5039TIP3    H136608   2.705   4.503   3.172  0.8560 -0.1886 -1.2334
 5039TIP3    H236609   2.620   4.401   3.243 -0.0783  1.4728  0.1093
 5040TIP3   OH236610   1.326   2.323   1.099 -0.9837 -0.0641 -0.3359
 5040TIP3    H136611   1.394   2.355   1.158 -0.2582 -1.3206 -0.4557
 5040TIP3    H236612   1.371   2.306   1.017 -1.4344 -0.8636 -0.4347
 5041TIP3   OH236613   2.880   3.000  11.116 -0.4318 -0.1009 -0.4626
 5041TIP3    H136614   2.945   3.060  11.079 -1.3638  0.3509 -1.4268
 5041TIP3    H236615   2.872   2.931  11.050  0.6136 -1.3214  0.6230
 5042TIP3   OH236616   4.177   5.463  16.099  0.1995  0.2361  0.3921
 5042TIP3    H136617   4.094   5.474  16.053  1.3768  0.5527 -1.7951
 5042TIP3    H236618   4.207   5.552  16.116  1.0312  0.1863 -0.6976
 5043TIP3   OH236619   1.435   5.965   0.389 -0.5521  0.3307  0.1490
 5043TIP3    H136620   1.406   6.053   0.366 -0.1062  0.4322 -0.0272
 5043TIP3    H236621   1.431   5.963   0.485 -0.4248  0.5857  0.1592
 5044TIP3   OH236622   5.986   3.111   1.703 -0.2015  0.2057 -0.2734
 5044TIP3    H136623   5.978   3.200   1.737 -0.8825  0.6678 -1.5680
 5044TIP3    H236624   6.056   3.117   1.638  0.8474 -0.5822  0.7396
 5045TIP3   OH236625   0.810   1.643   1.269  0.0499 -0.2946 -0.4285
 5045TIP3    H136626   0.839   1.658   1.179 -0.1891 -0.1375 -0.4799
 5045TIP3    H236627   0.724   1.686   1.275 -1.0332 -2.3137 -0.8167
 5046TIP3   OH236628   4.217   3.304  12.186 -0.2750 -0.0980  0.0724
 5046TIP3    H136629   4.257   3.312  12.272  1.1345  0.2481 -0.5882
 5046TIP3    H236630   4.193   3.211  12.179 -0.2737 -0.1558  0.7708
 5047TIP3   OH236631   2.758   2.380   1.231  0.0259 -0.8018  0.9208
 5047TIP3    H136632   2.665   2.359   1.242 -0.1566 -0.0709  0.8129
 5047TIP3    H236633   2.804   2.320   1.290 -0.6026 -0.3447  1.9023
 5048TIP3   OH236634   0.203   0.986  13.108  0.8030 -0.1695 -0.0614
 5048TIP3    H136635   0.185   0.939  13.190  0.8467  0.9225  0.5982
 5048TIP3    H236636   0.119   0.991  13.064 -0.0825  2.4031  1.6585
 5049TIP3   OH236637   6.184   1.345  15.114  0.1201  0.0717 -0.6900
 5049TIP3    H136638   6.248   1.376  15.050 -0.9740  3.1017 -0.5022
 5049TIP3    H236639   6.211   1.388  15.196 -1.8998  1.2299 -0.5551
 5050TIP3   OH236640   0.289   5.302   5.700  0.3663 -0.4067 -0.2990
 5050TIP3    H136641   0.248   5.288   5.614  1.1606 -1.8676 -0.4648
 5050TIP3    H236642   0.215   5.303   5.761 -0.1839  0.3438 -0.9527
 5051TIP3   OH236643   2.174   2.880  16.622 -0.3276  0.0945 -0.1513
 5051TIP3    H136644   2.193   2.969  16.653  0.4202 -0.7077  1.9077
 5051TIP3    H236645   2.236   2.825  16.669 -2.5275 -1.8058  0.7303
 5052TIP3   OH236646   5.442   4.818   1.034 -0.1564  0.2127  0.4279
 5052TIP3    H136647   5.444   4.744   0.973  0.6867  0.6614 -0.1245
 5052TIP3    H236648   5.413   4.892   0.981 -1.9815  0.0955  1.2166
 5053TIP3   OH236649   2.271   2.765   0.114  0.2426  0.0475 -0.1843
 5053TIP3    H136650   2.273   2.860   0.124  1.7454  0.1317 -0.9212
 5053TIP3    H236651   2.233   2.733   0.196  0.8094  1.2450  0.5817
 5054TIP3   OH236652   1.817   2.064   1.270 -0.1534  0.1040  0.5640
 5054TIP3    H136653   1.780   2.013   1.198  0.6202 -0.0303  0.2469
 5054TIP3    H236654   1.886   2.008   1.306  0.4512  0.7619  0.4591
 5055TIP3   OH236655   1.768   5.615  15.569  0.0076 -0.2758 -0.0315
 5055TIP3    H136656   1.778   5.553  15.497  1.2333 -0.1793  0.0447
 5055TIP3    H236657   1.721   5.689  15.531  0.7403 -0.1784 -0.7698
 5056TIP3   OH236658   6.291   2.929   2.745 -0.3300  0.8083  0.0745
 5056TIP3    H136659   6.321   3.019   2.759  4.3622 -0.6150  0.9097
 5056TIP3    H236660   6.331   2.904   2.662  1.7998 -1.5252  1.6502
 5057TIP3   OH236661   4.178   3.730  15.273 -0.3193 -0.2499 -0.2896
 5057TIP3    H136662   4.185   3.701  15.181  0.0034 -0.2267 -0.2752
 5057TIP3    H236663   4.258   3.696  15.314  0.5793  1.4959 -0.5000
 5058TIP3   OH236664   5.603   2.495   5.645  0.3640  0.2238 -0.1056
 5058TIP3    H136665   5.547   2.441   5.589  0.1347  1.9051 -1.6147
 5058TIP3    H236666   5.566   2.485   5.732 -0.9104 -0.4888 -0.6943
 5059TIP3   OH236667   4.375   2.786   6.089 -0.0688  0.4400 -0.4366
 5059TIP3    H136668   4.371   2.730   6.167 -0.7288  0.1098 -0.6989
 5059TIP3    H236669   4.387   2.875   6.124  0.2383  0.2229  0.0152
 5060TIP3   OH236670   0.523   6.622   5.864  0.5263  0.3968  0.4151
 5060TIP3    H136671   0.543   6.715   5.858  2.6634  0.1006  1.9033
 5060TIP3    H236672   0.527   6.590   5.774  0.3413  1.6075 -0.0419
 5061TIP3   OH236673   3.860   4.933  12.350  0.3821 -0.0097  0.0690
 5061TIP3    H136674   3.793   4.932  12.418 -1.1851 -0.0115 -1.3928
 5061TIP3    H236675   3.891   4.842  12.345 -1.6991 -0.7275 -1.2168
 5062TIP3   OH236676   1.912   0.648  12.491  0.0154 -0.0426  0.0367
 5062TIP3    H136677   2.005   0.628  12.489 -0.1396 -0.7701  0.0899
 5062TIP3    H236678   1.898   0.687  12.577  0.4715  1.1220 -0.3854
 5063TIP3   OH236679   0.233   4.875   0.341  0.0166  0.4927 -0.0320
 5063TIP3    H136680   0.214   4.804   0.403  1.4089 -0.0759 -0.2222
 5063TIP3    H236681   0.328   4.886   0.345 -0.2666  3.0828  0.7462
 5064TIP3   OH236682   4.345   0.932   5.726 -0.1784  0.5546  0.3597
 5064TIP3    H136683   4.356   1.025   5.745  0.9229  0.6120 -0.4565
 5064TIP3    H236684   4.251   0.917   5.733 -0.4950  1.9666 -0.5069
 5065TIP3   OH236685   5.627   5.557   1.363 -0.0824 -0.3477  0.0067
 5065TIP3    H136686   5.653   5.516   1.281 -0.9111  0.5790 -0.7606
 5065TIP3    H236687   5.546   5.512   1.387  0.8414 -1.5193  1.0501
 5066TIP3   OH236688   0.341   3.925  15.655 -0.1939  0.3185  0.8591
 5066TIP3    H136689   0.266   3.978  15.684 -1.6132 -1.1232 -0.0110
 5066TIP3    H236690   0.408   3.989  15.632 -0.5718  1.6206  3.0934
 5067TIP3   OH236691   5.261   6.598  16.786 -0.4908  0.0565 -0.1205
 5067TIP3    H136692   5.322   6.629  16.719 -0.0347  0.9644  0.7025
 5067TIP3    H236693   5.201   6.671  16.799  1.4059  1.2709  2.8158
 5068TIP3   OH236694   0.085   1.004   2.651  0.3191 -0.3621 -0.4161
 5068TIP3    H136695   0.031   1.080   2.628  0.1974 -0.3371 -0.0575
 5068TIP3    H236696   0.139   0.988   2.574  0.4878  0.2155 -0.4239
 5069TIP3   OH236697   1.140   3.086   4.704 -0.0518 -0.0038 -0.2829
 5069TIP3    H136698   1.064   3.074   4.761  1.2816  0.7547  1.7674
 5069TIP3    H236699   1.141   3.179   4.683 -0.2491 -0.1906 -1.1570
 5070TIP3   OH236700   2.031   0.976   0.832 -0.0203  0.1910 -0.1880
 5070TIP3    H136701   2.039   1.034   0.756 -0.8722  0.3838 -0.1336
 5070TIP3    H236702   2.090   0.903   0.813  1.2489  1.1803 -0.1523
 5071TIP3   OH236703   1.183   2.425  13.004 -0.4417  0.5537 -0.3653
 5071TIP3    H136704   1.134   2.396  12.927 -0.3462  1.6023 -0.8447
 5071TIP3    H236705   1.268   2.452  12.968  0.2111 -0.4759  0.3433
 5072TIP3   OH236706   6.225   6.211  15.984  0.0094 -0.0802 -0.3396
 5072TIP3    H136707   6.212   6.117  15.968  1.6063 -0.3152 -0.4927
 5072TIP3    H236708   6.242   6.247  15.897  2.5435 -0.2659 -0.0268
 5073TIP3   OH236709   2.437   1.741   3.621 -0.2948  0.3348  0.5668
 5073TIP3    H136710   2.516   1.792   3.639 -1.2215  2.1855 -0.3528
 5073TIP3    H236711   2.462   1.685   3.548 -0.0124  1.4543 -0.2263
 5074TIP3   OH236712   3.547   6.679   2.759 -0.1318 -0.1036 -0.1192
 5074TIP3    H136713   3.544   6.693   2.664  0.1338 -2.1636 -0.4887
 5074TIP3    H236714   3.623   6.730   2.788  1.0531 -1.0747 -1.3778
 5075TIP3   OH236715   6.833   2.186  16.312  0.1016  0.7955  0.3101
 5075TIP3    H136716   6.831   2.251  16.382 -0.5745 -0.4743  1.5187
 5075TIP3    H236717   6.741   2.164  16.297  0.3236  0.0983 -0.0721
 5076TIP3   OH236718   4.725   2.819   0.710  1.1101  0.1251  1.0429
 5076TIP3    H136719   4.773   2.846   0.788  2.5838 -1.3247  0.6882
 5076TIP3    H236720   4.782   2.756   0.667 -0.7112 -0.9512  0.0677
 5077TIP3   OH236721   2.384   3.399  16.747 -0.1014  0.1850  0.0194
 5077TIP3    H136722   2.434   3.365  16.673 -0.5468 -0.0326 -0.1878
 5077TIP3    H236723   2.356   3.486  16.720  0.9198  0.6704  0.4923
 5078TIP3   OH236724   1.355   5.722   4.471  0.1412 -0.6930  0.0545
 5078TIP3    H136725   1.347   5.659   4.543 -1.1115 -2.5130 -1.5926
 5078TIP3    H236726   1.373   5.669   4.394  0.0645  1.0694 -1.2484
 5079TIP3   OH236727   2.841   1.185  13.551  0.2370 -0.5820  0.2705
 5079TIP3    H136728   2.782   1.259  13.541 -0.0903 -0.8918 -0.1360
 5079TIP3    H236729   2.911   1.217  13.607  1.6169  0.9390 -2.1829
 5080TIP3   OH236730   1.250   1.365  16.954 -0.3026  0.4687  0.2938
 5080TIP3    H136731   1.300   1.389  16.876 -0.7499  0.0286 -0.1309
 5080TIP3    H236732   1.214   1.279  16.935  0.8721 -0.3586  1.6197
 5081TIP3   OH236733   6.487   2.570   2.547 -0.9157 -0.6676  0.6749
 5081TIP3    H136734   6.465   2.654   2.588  0.0566  2.0429 -3.7504
 5081TIP3    H236735   6.428   2.564   2.473  1.5102 -1.9497 -1.2860
 5082TIP3   OH236736   3.901   1.103  12.168 -0.8592 -0.3737  0.4338
 5082TIP3    H136737   3.826   1.142  12.123 -1.5916 -1.2027  0.8815
 5082TIP3    H236738   3.894   1.009  12.149 -0.5450 -0.5957  1.3331
 5083TIP3   OH236739   5.932   4.706   3.929  0.1661  0.2995  0.6421
 5083TIP3    H136740   5.885   4.638   3.880  1.5184 -0.5924  0.5399
 5083TIP3    H236741   5.896   4.701   4.018 -1.1286  0.8054  0.1674
 5084TIP3   OH236742   5.097   5.632  15.001  0.3994 -0.0248 -0.0505
 5084TIP3    H136743   5.107   5.541  15.028  0.7238 -0.4804 -1.6361
 5084TIP3    H236744   5.133   5.636  14.913 -0.1482  1.5196 -0.2458
 5085TIP3   OH236745   5.116   1.502   1.598  0.6127  0.2525 -0.7531
 5085TIP3    H136746   5.206   1.508   1.632  0.3485  0.2097 -0.0318
 5085TIP3    H236747   5.081   1.422   1.637  0.4077  0.0186 -1.4034
 5086TIP3   OH236748   4.989   6.742  15.280  0.1250 -0.1005  0.0984
 5086TIP3    H136749   4.992   6.689  15.359 -0.4036 -1.7218 -0.9009
 5086TIP3    H236750   5.078   6.738  15.246  0.4842  1.0525  0.8759
 5087TIP3   OH236751   3.269   5.777  16.143 -0.1506 -0.4972  0.4351
 5087TIP3    H136752   3.263   5.682  16.148  0.0846 -0.4442  3.0296
 5087TIP3    H236753   3.200   5.809  16.202 -1.8823  1.0694 -2.2145
 5088TIP3   OH236754   1.632   4.652  15.567  0.8510 -0.4959  0.1062
 5088TIP3    H136755   1.617   4.590  15.639  1.3654  0.9036  1.4724
 5088TIP3    H236756   1.709   4.618  15.522 -0.0763 -1.9497 -0.4542
 5089TIP3   OH236757   4.015   3.910  10.371 -0.0022  0.0649  0.2725
 5089TIP3    H136758   3.965   3.831  10.354 -0.2821  0.3691 -0.3400
 5089TIP3    H236759   4.106   3.881  10.376 -0.2902 -0.6248  2.2558
 5090TIP3   OH236760   3.387   1.319   1.687 -0.4483 -1.1558 -0.2380
 5090TIP3    H136761   3.431   1.375   1.623 -0.6882  2.7534  2.6789
 5090TIP3    H236762   3.458   1.267   1.725  0.9702  1.3203  0.7958
 5091TIP3   OH236763   3.475   1.866  16.916  0.2788  0.4075 -0.0933
 5091TIP3    H136764   3.492   1.933  16.983 -1.8937 -0.9800  1.9936
 5091TIP3    H236765   3.512   1.786  16.953 -0.5397 -0.2981 -0.7715
 5092TIP3   OH236766   0.112   5.240  12.057 -0.2801 -0.8538  0.4895
 5092TIP3    H136767   0.018   5.235  12.040 -0.3156 -0.8529  0.6907
 5092TIP3    H236768   0.151   5.181  11.993 -0.3757 -0.4411  0.0349
 5093TIP3   OH236769   6.034   6.426  11.874 -0.1867  0.6239 -0.3641
 5093TIP3    H136770   5.949   6.466  11.895 -0.4654  0.0798 -0.4104
 5093TIP3    H236771   6.086   6.437  11.954  0.1417  2.0676 -0.7637
 5094TIP3   OH236772   0.723   4.342   1.902 -0.6502  0.5866 -0.1100
 5094TIP3    H136773   0.729   4.372   1.811 -1.9946  0.7383 -0.1744
 5094TIP3    H236774   0.666   4.407   1.945  0.3439  0.7837  0.9682
 5095TIP3   OH236775   3.768   3.175  12.372  0.2128  0.4300 -0.7909
 5095TIP3    H136776   3.674   3.185  12.386  0.3282  0.5784 -0.1034
 5095TIP3    H236777   3.793   3.255  12.326  0.2367  1.0279  0.2365
 5096TIP3   OH236778   2.227   0.655  16.249 -0.0574 -0.1573  0.3451
 5096TIP3    H136779   2.293   0.675  16.182  0.0046  0.3227  0.5417
 5096TIP3    H236780   2.208   0.740  16.289 -1.2073 -0.2022 -0.0789
 5097TIP3   OH236781   6.361   5.760  16.119 -0.0881 -0.2228  0.1248
 5097TIP3    H136782   6.410   5.821  16.174  0.3351 -1.2946  0.9629
 5097TIP3    H236783   6.306   5.712  16.180 -2.6943  1.3326 -0.8348
 5098TIP3   OH236784   6.420   0.079  12.622 -0.5096 -0.5285 -0.4609
 5098TIP3    H136785   6.419   0.113  12.712  0.2044 -0.1832 -0.5790
 5098TIP3    H236786   6.512   0.062  12.604 -0.4306  1.1151 -1.7679
 5099TIP3   OH236787   0.609   0.324  15.814  0.0731 -0.1781  0.5849
 5099TIP3    H136788   0.644   0.262  15.877  1.6101  1.1794  1.1181
 5099TIP3    H236789   0.646   0.408  15.839 -0.9370  0.7590 -0.8905
 5100TIP3   OH236790   6.217   3.364   2.582 -0.2268 -0.3716  0.1131
 5100TIP3    H136791   6.145   3.374   2.520  0.2695 -0.6734 -0.5276
 5100TIP3    H236792   6.293   3.402   2.538  0.0317 -0.1325  0.7452
 5101TIP3   OH236793   5.930   0.009  15.859  0.6392  0.1278  0.4633
 5101TIP3    H136794   5.855   0.067  15.866  1.5308  1.2048  1.4816
 5101TIP3    H236795   5.892  -0.078  15.851 -0.7351  0.4151  2.9847
 5102TIP3   OH236796   1.705   0.472   2.164  0.1562 -0.1649 -0.0200
 5102TIP3    H136797   1.797   0.488   2.144 -0.2595  0.5248 -1.4992
 5102TIP3    H236798   1.689   0.382   2.134 -0.1175  0.3900 -1.6034
 5103TIP3   OH236799   1.222   1.561  14.263  0.5604 -0.2697 -0.3447
 5103TIP3    H136800   1.126   1.559  14.255  0.6938 -0.7337 -2.2124
 5103TIP3    H236801   1.238   1.615  14.341 -1.2516 -2.2317  1.5325
 5104TIP3   OH236802   6.111   0.787  12.290 -0.4565 -0.4226 -0.0389
 5104TIP3    H136803   6.017   0.792  12.304 -0.2515 -1.1357  1.9262
 5104TIP3    H236804   6.123   0.710  12.234 -0.9717 -1.0675  0.7169
 5105TIP3   OH236805   4.370   0.405  14.614 -0.0427  0.1255 -0.4595
 5105TIP3    H136806   4.330   0.453  14.687  0.2941  0.2076 -0.3271
 5105TIP3    H236807   4.396   0.474  14.553 -3.5936 -0.0251 -2.4315
 5106TIP3   OH236808   2.799   0.310  17.003  0.2152  0.3884 -0.1882
 5106TIP3    H136809   2.830   0.234  17.053  0.1792 -1.2252 -2.4552
 5106TIP3    H236810   2.791   0.277  16.913 -1.0375  2.7631 -1.0146
 5107TIP3   OH236811   6.661   5.789   4.260  0.0060  0.2653  0.2669
 5107TIP3    H136812   6.724   5.846   4.304 -0.2030  0.4333  0.3529
 5107TIP3    H236813   6.705   5.762   4.180 -0.1017  1.0080 -0.0593
 5108TIP3   OH236814   0.674   6.417   6.620  0.2426 -0.0380  0.2034
 5108TIP3    H136815   0.664   6.330   6.583  2.6918 -0.6672  0.8483
 5108TIP3    H236816   0.732   6.463   6.559 -0.9802  1.1834 -0.1089
 5109TIP3   OH236817   4.047   2.555  13.187  0.3464  0.2593  0.3660
 5109TIP3    H136818   4.125   2.522  13.143 -1.1783 -2.2392 -0.7002
 5109TIP3    H236819   4.028   2.490  13.255 -1.4595  0.1072 -0.2222
 5110TIP3   OH236820   6.031   0.384  11.869  0.2169 -0.1211 -0.0681
 5110TIP3    H136821   6.038   0.289  11.874  1.0646 -0.0818 -0.3440
 5110TIP3    H236822   6.118   0.413  11.842 -0.1038  0.7150 -0.2333
 5111TIP3   OH236823   6.011   5.975   5.909  0.3349 -0.0912  0.2319
 5111TIP3    H136824   6.020   6.068   5.890 -0.0963 -0.0945  0.0123
 5111TIP3    H236825   6.053   5.965   5.994  1.7589  0.0189 -0.4312
 5112TIP3   OH236826   4.783   6.431   4.939  0.3372  0.0653 -0.0625
 5112TIP3    H136827   4.789   6.392   4.852  0.0246  1.2744 -0.6540
 5112TIP3    H236828   4.872   6.428   4.973  0.4866 -0.3033 -0.4745
 5113TIP3   OH236829   2.632   5.299  14.364 -0.0634 -0.0948  0.2579
 5113TIP3    H136830   2.652   5.389  14.389 -1.1537  0.4028 -0.5942
 5113TIP3    H236831   2.556   5.275  14.417 -1.6026  0.5330 -1.5595
 5114TIP3   OH236832   6.144   4.221   0.006  0.1239 -0.0481 -0.4316
 5114TIP3    H136833   6.065   4.198   0.056  1.2822  0.1388  1.6170
 5114TIP3    H236834   6.127   4.310  -0.026  0.0845  0.6725  1.4288
 5115TIP3   OH236835   1.658   3.470   3.205  0.3539  0.0172  0.0773
 5115TIP3    H136836   1.624   3.559   3.203 -2.2410 -0.8777 -0.7315
 5115TIP3    H236837   1.638   3.439   3.294  1.3825  0.2628  0.4040
 5116TIP3   OH236838   2.761   1.139   1.138  0.1744  0.3399 -0.0370
 5116TIP3    H136839   2.772   1.133   1.043  0.1711  1.4475 -0.1248
 5116TIP3    H236840   2.848   1.159   1.172 -0.2209  2.3113 -0.0630
 5117TIP3   OH236841   5.664   0.247   4.322  0.2234  0.0894 -0.0450
 5117TIP3    H136842   5.628   0.260   4.234 -3.0453 -1.3867  0.9040
 5117TIP3    H236843   5.614   0.173   4.357  2.5073 -0.3727  2.5267
 5118TIP3   OH236844   2.187   5.970   5.941  0.1093  0.5992 -0.0064
 5118TIP3    H136845   2.277   5.974   5.909  1.0528 -2.4519  1.7707
 5118TIP3    H236846   2.192   5.999   6.032 -0.3409 -0.9756  0.5604
 5119TIP3   OH236847   1.821   6.529  15.253  0.1333  0.7220 -0.2638
 5119TIP3    H136848   1.857   6.519  15.341  0.9239  0.8550 -0.5718
 5119TIP3    H236849   1.757   6.458  15.246  0.8471  0.0382  0.0242
 5120TIP3   OH236850   4.944   2.330   3.524  0.1821  0.2030  0.3094
 5120TIP3    H136851   5.035   2.357   3.534  0.1409 -0.2216  2.0183
 5120TIP3    H236852   4.895   2.412   3.518  0.4617  0.4736  1.5612
 5121TIP3   OH236853   5.010   4.758  12.121  0.3259  0.2991 -0.2905
 5121TIP3    H136854   5.074   4.810  12.073 -0.8247  0.5745 -1.5835
 5121TIP3    H236855   4.988   4.686  12.062 -1.4491  0.8852 -0.3835
 5122TIP3   OH236856   0.172   4.103   2.392  0.3052 -0.0153  0.0828
 5122TIP3    H136857   0.216   4.183   2.364  0.6696  0.3991  1.7190
 5122TIP3    H236858   0.079   4.121   2.379  0.4252  0.4162 -0.1951
 5123TIP3   OH236859   5.205   0.757  13.266 -0.1968 -0.4399  0.4874
 5123TIP3    H136860   5.180   0.756  13.359  1.1553  0.5738  0.8936
 5123TIP3    H236861   5.169   0.839  13.232 -0.6399 -0.7815  0.1130
 5124TIP3   OH236862   5.811   4.969   2.320 -0.5268  0.3456 -0.2529
 5124TIP3    H136863   5.845   4.980   2.408 -1.6120  1.9108  0.0217
 5124TIP3    H236864   5.717   4.953   2.332 -0.0094 -4.6386 -0.9318
 5125TIP3   OH236865   4.577   5.769   0.271  0.1876 -0.5441  0.1460
 5125TIP3    H136866   4.579   5.768   0.367 -0.2911  0.6243  0.1904
 5125TIP3    H236867   4.644   5.834   0.247  0.1679 -0.6895 -0.3086
 5126TIP3   OH236868   1.759   3.730   5.379 -0.2172  0.4910  0.6093
 5126TIP3    H136869   1.686   3.690   5.426 -0.2580  1.1744  1.1467
 5126TIP3    H236870   1.754   3.694   5.291 -1.7907  1.2633  0.3567
 5127TIP3   OH236871   2.231   3.525   0.055  0.0979 -0.1348  0.0560
 5127TIP3    H136872   2.224   3.472  -0.024 -1.1056 -1.1146  0.7927
 5127TIP3    H236873   2.311   3.576   0.042 -1.2658  1.5112 -2.8234
 5128TIP3   OH236874   6.043   1.841   0.698  0.2868 -0.3507  0.3071
 5128TIP3    H136875   6.069   1.785   0.771  2.4109  0.0784 -0.0488
 5128TIP3    H236876   6.014   1.780   0.630  1.7684 -1.0219  0.2280
 5129TIP3   OH236877   1.621   1.370   1.353 -0.6555 -0.1512  0.0843
 5129TIP3    H136878   1.694   1.325   1.312 -1.3403 -0.2933 -1.0312
 5129TIP3    H236879   1.578   1.304   1.407  1.3011  0.4640  2.6046
 5130TIP3   OH236880   2.329   1.527  11.842  0.5141  0.5944 -0.4872
 5130TIP3    H136881   2.289   1.559  11.761 -0.9428 -0.4674 -0.2178
 5130TIP3    H236882   2.262   1.542  11.909  0.8612 -0.4891  0.1235
 5131TIP3   OH236883   2.825   0.339  13.444 -0.9249 -0.2183 -0.2253
 5131TIP3    H136884   2.825   0.305  13.533  2.0347  1.3015  0.4886
 5131TIP3    H236885   2.801   0.431  13.453  2.0005  0.6905 -0.4712
 5132TIP3   OH236886   0.384   6.383  12.795  0.6081 -0.2359  0.0373
 5132TIP3    H136887   0.441   6.315  12.759 -0.6042 -1.0602 -0.3940
 5132TIP3    H236888   0.428   6.411  12.875  2.1847 -0.0165 -0.8723
 5133TIP3   OH236889   1.285   3.656   2.409 -0.0652 -0.1097  0.3708
 5133TIP3    H136890   1.334   3.737   2.417  1.4638 -0.2802 -4.3179
 5133TIP3    H236891   1.205   3.681   2.363 -0.4349 -1.0031  0.5101
 5134TIP3   OH236892   1.431   3.132   2.288  0.1939 -0.0038  0.1997
 5134TIP3    H136893   1.438   3.163   2.378 -0.5763 -0.5011  0.4357
 5134TIP3    H236894   1.357   3.179   2.251 -0.5573 -1.0280  0.3536
 5135TIP3   OH236895   3.129   3.226  10.511 -0.2743  0.0658 -0.0552
 5135TIP3    H136896   3.136   3.319  10.489  1.9458 -0.2878 -1.1610
 5135TIP3    H236897   3.131   3.181  10.427 -0.3133 -1.0183  0.5076
 5136TIP3   OH236898   2.930   2.023  11.092  0.2579 -0.2489  0.0733
 5136TIP3    H136899   3.003   1.978  11.134  0.9705 -0.1404 -0.9930
 5136TIP3    H236900   2.944   2.116  11.110 -0.7502 -0.3560  1.5658
 5137TIP3   OH236901   3.623   4.589  13.897  0.0390 -0.0199  0.3110
 5137TIP3    H136902   3.595   4.655  13.961 -3.8508  1.2077 -2.3369
 5137TIP3    H236903   3.651   4.640  13.821 -1.5416 -1.3631 -1.2300
 5138TIP3   OH236904   4.412   5.596  16.464 -0.1516  0.2934  0.4765
 5138TIP3    H136905   4.448   5.601  16.553  0.1711  0.3433  0.3415
 5138TIP3    H236906   4.484   5.563  16.411 -0.0869  1.0698  0.0767
 5139TIP3   OH236907   4.349   1.594   1.726 -0.0882  0.0992 -0.3080
 5139TIP3    H136908   4.289   1.623   1.794  1.0515 -0.3179  0.9061
 5139TIP3    H236909   4.412   1.666   1.718 -0.0807  0.0442 -0.7604
 5140TIP3   OH236910   5.928   1.369   3.793 -0.3685 -0.1015  0.1905
 5140TIP3    H136911   5.959   1.436   3.732 -0.5966 -0.1445  0.0261
 5140TIP3    H236912   5.858   1.324   3.746 -0.1663 -0.5046  0.2754
 5141TIP3   OH236913   4.769   5.836  13.952  0.1155 -0.3313  0.4071
 5141TIP3    H136914   4.691   5.803  13.996  0.4517  0.3844  1.5879
 5141TIP3    H236915   4.748   5.928  13.933  0.1797 -0.4879 -0.4886
 5142TIP3   OH236916   4.599   1.982   6.572 -0.4078 -0.6567  0.4627
 5142TIP3    H136917   4.570   1.930   6.647 -1.7152  0.9866  1.1936
 5142TIP3    H236918   4.680   2.023   6.601  1.1184 -2.8450 -0.4375
 5143TIP3   OH236919   1.908   4.951  15.088 -0.3582 -0.1464  0.4577
 5143TIP3    H136920   1.825   4.962  15.041  0.0175 -0.5618 -0.3284
 5143TIP3    H236921   1.883   4.912  15.171 -1.1207  1.3193  0.9570
 5144TIP3   OH236922   6.088   6.489  16.076  0.3016 -0.6859 -0.7448
 5144TIP3    H136923   6.119   6.485  16.166  2.9681 -1.0691 -1.6007
 5144TIP3    H236924   6.096   6.399  16.044  0.0766 -0.4153 -1.5894
 5145TIP3   OH236925   1.077   5.617   4.845  0.0094 -0.1544  0.3688
 5145TIP3    H136926   1.116   5.640   4.930  0.5583  0.4752 -0.0389
 5145TIP3    H236927   1.002   5.676   4.837  1.2993  1.4738 -0.5857
 5146TIP3   OH236928   6.346   5.811   0.160  0.4539  0.1361  0.6372
 5146TIP3    H136929   6.262   5.832   0.119  0.5609  1.1920  0.9091
 5146TIP3    H236930   6.323   5.768   0.242  0.2117 -0.7699  0.0963
 5147TIP3   OH236931   3.555   6.444   2.553  0.0996 -0.0617 -0.4868
 5147TIP3    H136932   3.500   6.411   2.624 -0.6944 -2.5485 -2.1380
 5147TIP3    H236933   3.644   6.419   2.577  0.2097  1.3789  0.7778
 5148TIP3   OH236934   2.277   1.913   4.522 -0.3985 -0.5828  0.4143
 5148TIP3    H136935   2.325   1.841   4.564 -0.9968 -1.4248 -0.3253
 5148TIP3    H236936   2.342   1.983   4.514  0.7178 -1.6909 -0.5510
 5149TIP3   OH236937   4.482   5.978  16.122  0.3651 -0.0999 -0.6213
 5149TIP3    H136938   4.424   6.054  16.115  1.5965  1.1707  1.7957
 5149TIP3    H236939   4.432   5.913  16.170  0.5869  0.7014  0.7608
 5150TIP3   OH236940   6.360   2.730   5.403 -0.0955  0.3808  0.3053
 5150TIP3    H136941   6.429   2.760   5.344  0.4069  0.9779  1.1782
 5150TIP3    H236942   6.304   2.807   5.415 -0.0435  0.3448  0.8091
 5151TIP3   OH236943   2.612   2.393   5.090 -0.3972  0.9435 -0.0668
 5151TIP3    H136944   2.569   2.472   5.058 -1.0586 -0.1425 -2.0154
 5151TIP3    H236945   2.694   2.388   5.040 -0.3030  0.4566  0.1316
 5152TIP3   OH236946   5.494   0.196   3.665 -0.6808  0.0799  0.3421
 5152TIP3    H136947   5.573   0.219   3.713 -0.1775  1.5781 -1.1162
 5152TIP3    H236948   5.503   0.102   3.647 -0.5964 -0.3897  2.5505
 5153TIP3   OH236949   0.858   2.355   2.677  0.8790  0.2858  0.0462
 5153TIP3    H136950   0.917   2.416   2.632  0.1549  2.6817  2.1215
 5153TIP3    H236951   0.915   2.304   2.734  1.2769  0.5181 -0.1376
 5154TIP3   OH236952   6.564   2.862   1.002 -0.4881  0.3320  0.1111
 5154TIP3    H136953   6.631   2.906   1.054 -0.4157 -0.9275  1.1325
 5154TIP3    H236954   6.593   2.873   0.911  1.3331 -0.5280  0.5525
 5155TIP3   OH236955   4.812   3.503  11.340 -0.6904  0.0746 -0.0966
 5155TIP3    H136956   4.734   3.496  11.396  0.1533 -1.1823  0.9718
 5155TIP3    H236957   4.777   3.507  11.251 -2.0584  1.8633  0.4508
 5156TIP3   OH236958   3.732   5.159   0.416 -0.1333 -0.6071 -0.3397
 5156TIP3    H136959   3.786   5.228   0.454 -1.0471 -1.5458  2.9406
 5156TIP3    H236960   3.658   5.207   0.377  1.5519  0.4746 -2.4516
 5157TIP3   OH236961   5.288   4.397  16.935 -0.3351  0.5218 -0.5689
 5157TIP3    H136962   5.287   4.335  17.008  1.1118  0.8117 -0.2755
 5157TIP3    H236963   5.376   4.434  16.936 -1.2993  2.9573 -0.4577
 5158TIP3   OH236964   3.553   5.356   1.765 -0.0086 -0.5301  0.4318
 5158TIP3    H136965   3.525   5.428   1.822 -1.8478  0.1586 -1.2257
 5158TIP3    H236966   3.533   5.277   1.816 -1.3747  0.0684  0.8872
 5159TIP3   OH236967   4.046   2.872  13.834  0.5762 -0.1193  0.3729
 5159TIP3    H136968   4.078   2.882  13.923  2.8575 -1.5642 -0.1941
 5159TIP3    H236969   4.068   2.955  13.791  1.5687 -0.2522  0.5988
 5160TIP3   OH236970   1.756   3.287  15.679  0.1763 -0.0896  0.0368
 5160TIP3    H136971   1.726   3.198  15.701  2.0537  0.1122  4.2502
 5160TIP3    H236972   1.848   3.276  15.655  0.2494  0.6441 -0.0277
 5161TIP3   OH236973   2.681   5.725  13.364  0.0479  0.0948 -0.1943
 5161TIP3    H136974   2.603   5.729  13.418 -0.1695 -0.5975 -0.4407
 5161TIP3    H236975   2.753   5.743  13.424 -0.3504  1.7077 -0.1535
 5162TIP3   OH236976   5.068   4.057   1.616 -0.2039 -0.0715  0.0302
 5162TIP3    H136977   5.121   4.127   1.579 -0.0292  0.5775  1.4469
 5162TIP3    H236978   5.022   4.098   1.690 -1.6771 -0.9380 -0.3513
 5163TIP3   OH236979   5.383   4.574   0.094 -0.3952  0.1452  0.3204
 5163TIP3    H136980   5.360   4.664   0.068  1.0446  0.5796  0.4871
 5163TIP3    H236981   5.391   4.527   0.011 -0.2958  0.3873  0.1910
 5164TIP3   OH236982   2.368   0.406  15.514 -0.4291  0.0608 -0.0231
 5164TIP3    H136983   2.332   0.319  15.533  0.2053 -0.2725 -0.3173
 5164TIP3    H236984   2.308   0.443  15.450 -0.2098 -0.5280 -0.5830
 5165TIP3   OH236985   2.598   0.906  13.330  0.4301  0.5030  1.0133
 5165TIP3    H136986   2.577   0.832  13.272  1.5660  1.6242 -0.9062
 5165TIP3    H236987   2.539   0.976  13.302  2.4034  1.7196 -0.2579
 5166TIP3   OH236988   0.767   2.890   4.971  0.4478 -0.5632  0.5864
 5166TIP3    H136989   0.680   2.917   4.941  1.2288  1.1242 -0.2733
 5166TIP3    H236990   0.788   2.815   4.916  0.5271  0.5445 -0.9585
 5167TIP3   OH236991   6.395   0.326  12.511 -0.4280  0.1332 -0.2074
 5167TIP3    H136992   6.410   0.397  12.575  1.3544  0.5629 -1.0574
 5167TIP3    H236993   6.392   0.247  12.564 -1.8592  0.7484  0.7011
 5168TIP3   OH236994   5.729   3.370   2.752  0.3451  0.2061 -0.2721
 5168TIP3    H136995   5.763   3.320   2.825  2.6915  2.3236  0.2391
 5168TIP3    H236996   5.779   3.339   2.676 -0.8973 -0.8211 -0.6947
 5169TIP3   OH236997   0.808   4.410   5.408  0.0238 -0.5201 -0.3262
 5169TIP3    H136998   0.768   4.481   5.357  1.6797 -0.3362 -1.4420
 5169TIP3    H236999   0.737   4.379   5.465 -0.9389  1.5580 -0.2821
 5170TIP3   OH237000   2.254   4.903   4.348  0.5315 -0.0938  0.6928
 5170TIP3    H137001   2.224   4.815   4.327 -0.9754  0.6937 -0.6224
 5170TIP3    H237002   2.318   4.890   4.418  0.2167 -2.2031  0.6537
 5171TIP3   OH237003   4.755   6.032  14.808 -0.5311 -0.1347 -0.0714
 5171TIP3    H137004   4.847   6.030  14.832 -0.5406 -0.3933 -0.0537
 5171TIP3    H237005   4.735   5.943  14.779 -1.1443 -0.4957  1.3599
 5172TIP3   OH237006   2.932   4.161  13.901  0.6095 -0.1821 -0.3727
 5172TIP3    H137007   2.855   4.104  13.897 -1.1403  2.0422 -0.5015
 5172TIP3    H237008   2.991   4.127  13.835  0.4051 -2.8047  0.6851
 5173TIP3   OH237009   5.457   0.334  15.778 -0.4468 -0.2971  0.5729
 5173TIP3    H137010   5.431   0.422  15.754  2.1019  0.3876 -0.0427
 5173TIP3    H237011   5.420   0.320  15.865 -0.6566  1.5090  0.8018
 5174TIP3   OH237012   5.299   2.992   3.125 -0.0664  0.3737  0.2351
 5174TIP3    H137013   5.388   2.962   3.142  0.2424  0.7194 -0.7390
 5174TIP3    H237014   5.310   3.068   3.068 -1.0253  0.0225 -0.4269
 5175TIP3   OH237015   5.673   5.064   1.125  0.8173 -0.1806  0.3240
 5175TIP3    H137016   5.689   4.977   1.088  1.4015 -0.4428  1.1604
 5175TIP3    H237017   5.604   5.101   1.070  0.7625 -1.0580 -0.2214
 5176TIP3   OH237018   2.070   5.429   2.301 -0.4186  0.1649 -0.0813
 5176TIP3    H137019   2.085   5.517   2.267 -0.6620 -0.7431 -2.7602
 5176TIP3    H237020   1.984   5.404   2.266 -0.0399 -1.4013  0.0332
 5177TIP3   OH237021   3.397   5.488  17.030 -0.7441 -0.0575 -0.0353
 5177TIP3    H137022   3.445   5.561  17.070 -1.1833  0.9919 -1.3306
 5177TIP3    H237023   3.350   5.528  16.957 -0.1015 -1.8375 -1.5163
 5178TIP3   OH237024   0.341   3.230  17.018 -0.1460 -0.2663  0.9345
 5178TIP3    H137025   0.391   3.185  16.948 -2.6106  0.6672 -1.6075
 5178TIP3    H237026   0.403   3.292  17.055  1.3108 -0.8841 -0.3359
 5179TIP3   OH237027   0.978   1.797   4.155  1.0943 -1.5122  0.1622
 5179TIP3    H137028   1.022   1.862   4.100  1.3169 -2.3564 -0.6940
 5179TIP3    H237029   0.888   1.793   4.120  1.0628 -1.6160  0.2545
 5180TIP3   OH237030   2.757   3.290  10.516 -0.0811 -0.1746 -0.0768
 5180TIP3    H137031   2.809   3.319  10.440  1.6103  1.1094  1.4871
 5180TIP3    H237032   2.727   3.371  10.557 -0.1971 -0.8048  1.1241
 5181TIP3   OH237033   0.393   5.299   1.363  0.4039  0.5195  0.3487
 5181TIP3    H137034   0.374   5.210   1.336  0.5522  0.3426  0.8251
 5181TIP3    H237035   0.322   5.322   1.423  0.2488  0.7989  0.0624
 5182TIP3   OH237036   3.922   1.036  15.184 -0.1833 -0.4609 -0.2828
 5182TIP3    H137037   3.900   0.967  15.122 -1.6286  0.9824 -1.4467
 5182TIP3    H237038   4.010   1.066  15.158 -0.0962 -0.9734 -0.5821
 5183TIP3   OH237039   5.089   0.079  11.341  0.4321 -0.1586 -0.1793
 5183TIP3    H137040   5.041   0.047  11.417  1.1715 -0.5261  0.1497
 5183TIP3    H237041   5.029   0.138  11.297 -0.3776 -0.7486  0.1176
 5184TIP3   OH237042   5.600   2.467  10.219  0.0256  0.2804  0.2807
 5184TIP3    H137043   5.598   2.438  10.310 -1.8054  0.5252  0.3583
 5184TIP3    H237044   5.578   2.560  10.223  0.2728  0.3727 -0.3863
 5185TIP3   OH237045   2.703   2.770   6.723  0.9276  0.0537 -0.2714
 5185TIP3    H137046   2.684   2.715   6.647 -0.9451 -0.7534  0.7151
 5185TIP3    H237047   2.627   2.829   6.730  1.1213  0.1960  0.8746
 5186TIP3   OH237048   5.385   5.137   2.712  0.0234  0.8250 -0.1131
 5186TIP3    H137049   5.326   5.074   2.755 -0.2541  1.4918  0.5188
 5186TIP3    H237050   5.445   5.083   2.661 -0.8787  0.1015 -0.4411
 5187TIP3   OH237051   1.722   6.417  13.983 -0.3657 -0.0757 -0.6007
 5187TIP3    H137052   1.763   6.394  13.900  2.0200  3.3195 -0.5628
 5187TIP3    H237053   1.646   6.470  13.958  1.3254  2.4215 -0.7562
 5188TIP3   OH237054   0.569   4.777  11.824  0.0637 -0.0263  0.1383
 5188TIP3    H137055   0.529   4.864  11.831 -1.2645 -0.5165 -0.8702
 5188TIP3    H237056   0.496   4.719  11.803  0.8764 -1.4523  1.0850
 5189TIP3   OH237057   5.895   0.345   0.286  0.0272 -0.3900 -0.3242
 5189TIP3    H137058   5.856   0.369   0.202 -0.1503  1.5987  0.2814
 5189TIP3    H237059   5.830   0.370   0.351  1.4866  1.2479  0.5907
 5190TIP3   OH237060   0.747   0.376  14.737 -0.6572 -0.2995  0.4300
 5190TIP3    H137061   0.787   0.378  14.824  1.3683  1.7401 -0.4517
 5190TIP3    H237062   0.759   0.285  14.707 -0.9336 -0.8947  2.0288
 5191TIP3   OH237063   6.320   5.788   6.200  0.3475  0.3416  0.6508
 5191TIP3    H137064   6.308   5.749   6.287 -1.0161 -0.6694  0.0496
 5191TIP3    H237065   6.400   5.747   6.167 -0.2866 -0.9060  0.6056
 5192TIP3   OH237066   6.291   5.504  15.250 -0.0075 -0.3989  0.0610
 5192TIP3    H137067   6.236   5.574  15.213  0.1565 -0.3469 -0.0848
 5192TIP3    H237068   6.256   5.491  15.339  1.5245  1.6194  1.0540
 5193TIP3   OH237069   5.084   6.812  13.513  0.2186 -0.0922 -0.4557
 5193TIP3    H137070   5.154   6.876  13.527  0.7382 -0.7648  0.0599
 5193TIP3    H237071   5.033   6.848  13.440 -0.9657  2.1552  1.3262
 5194TIP3   OH237072   4.196   3.954  14.515 -0.1889 -0.3841 -0.2926
 5194TIP3    H137073   4.282   3.958  14.556  0.0153 -0.9670 -0.6561
 5194TIP3    H237074   4.209   3.993  14.429 -0.6764  1.0858  0.2713
 5195TIP3   OH237075   5.186   0.417  12.449  0.1584  0.8909  0.4140
 5195TIP3    H137076   5.245   0.479  12.405  0.5318  1.1510  1.2582
 5195TIP3    H237077   5.245   0.353  12.490 -0.2453 -0.7916 -1.4895
 5196TIP3   OH237078   0.581   2.930  15.455  0.3071  0.1738 -0.0792
 5196TIP3    H137079   0.621   2.870  15.393  0.0431  0.5422 -0.6110
 5196TIP3    H237080   0.630   2.918  15.536  0.3437 -0.6577 -0.2223
 5197TIP3   OH237081   0.523   6.097   1.578  0.0056 -0.3825 -0.0834
 5197TIP3    H137082   0.594   6.134   1.629 -1.0106 -1.6304  2.4249
 5197TIP3    H237083   0.450   6.158   1.589 -0.3963 -0.9543  0.4728
 5198TIP3   OH237084   3.432   6.019  15.599  0.2877 -0.3909 -0.2389
 5198TIP3    H137085   3.437   6.025  15.504 -1.0276 -1.6973 -0.4135
 5198TIP3    H237086   3.343   5.991  15.618 -0.2806  2.2725  1.5504
 5199TIP3   OH237087   0.998   3.047  16.911  0.6470 -0.5717 -0.4266
 5199TIP3    H137088   1.078   3.015  16.950  1.9410  1.5227 -1.1775
 5199TIP3    H237089   0.960   3.106  16.977  0.4525 -0.5043 -0.5941
 5200TIP3   OH237090   2.657   2.514   0.410  0.3281 -0.6436 -0.5106
 5200TIP3    H137091   2.633   2.429   0.373 -0.1624 -1.0326  0.6575
 5200TIP3    H237092   2.593   2.530   0.479  0.8323  0.3529 -0.2480
 5201TIP3   OH237093   2.470   1.812   3.966  0.1936 -0.3745 -0.0634
 5201TIP3    H137094   2.392   1.761   3.989 -0.4485  0.4583 -0.3474
 5201TIP3    H237095   2.440   1.903   3.968  1.6437  0.1048  1.7471
 5202TIP3   OH237096   1.058   4.151  11.800  1.2214 -0.3678 -0.3786
 5202TIP3    H137097   1.114   4.219  11.762  0.0246  1.6441  1.1862
 5202TIP3    H237098   1.114   4.107  11.864  1.2756  1.1241  0.6478
 5203TIP3   OH237099   5.001   0.748   1.075 -0.3586 -0.4354 -0.9742
 5203TIP3    H137100   5.043   0.735   0.990 -0.3578 -1.5152 -0.8211
 5203TIP3    H237101   4.936   0.816   1.060  0.7754  0.5705 -1.4385
 5204TIP3   OH237102   0.081   4.812   4.533 -0.3760 -0.2432  0.9522
 5204TIP3    H137103   0.080   4.857   4.617 -0.4579  1.5284  0.0477
 5204TIP3    H237104   0.137   4.866   4.477 -3.9604  1.3188 -1.4813
 5205TIP3   OH237105   6.367   1.905  16.949 -0.3347  0.5162 -0.2807
 5205TIP3    H137106   6.348   1.996  16.924 -0.6915  0.1190 -1.5347
 5205TIP3    H237107   6.426   1.873  16.881  0.0169 -0.1197  0.3097
 5206TIP3   OH237108   5.451   1.769   1.842  0.4409  0.1346  0.3716
 5206TIP3    H137109   5.532   1.720   1.823  0.2116 -0.1678  0.1590
 5206TIP3    H237110   5.481   1.857   1.865  0.7605  0.5098 -1.3273
 5207TIP3   OH237111   1.289   6.598   0.156 -0.2275  0.4998  0.5363
 5207TIP3    H137112   1.336   6.555   0.084  0.5424 -0.0685  1.3504
 5207TIP3    H237113   1.313   6.690   0.149 -0.8648  0.6045 -0.4554
 5208TIP3   OH237114   1.770   3.924   4.462  0.6608 -0.2199  0.2885
 5208TIP3    H137115   1.803   3.871   4.535 -1.0151 -1.3710  0.2722
 5208TIP3    H237116   1.682   3.949   4.488  1.1217  1.9551 -0.0739
 5209TIP3   OH237117   3.475   0.304  11.106 -0.3777  0.7790  0.1412
 5209TIP3    H137118   3.422   0.224  11.101  1.0497 -0.1442 -1.3691
 5209TIP3    H237119   3.419   0.373  11.070 -1.8118  0.6368  1.9132
 5210TIP3   OH237120   3.035   1.534  14.112 -0.1553  0.2911  0.1358
 5210TIP3    H137121   3.077   1.620  14.121  0.0897  0.3956 -1.5580
 5210TIP3    H237122   3.040   1.495  14.199 -2.9986  3.1949  1.8070
 5211TIP3   OH237123   4.759   4.871   5.797  0.4766  0.4450 -0.1202
 5211TIP3    H137124   4.668   4.898   5.782 -0.0688 -0.9700  0.4102
 5211TIP3    H237125   4.787   4.921   5.873  0.6912  2.0440 -1.2162
 5212TIP3   OH237126   6.135   0.038   5.090 -0.4004  0.1306  0.1119
 5212TIP3    H137127   6.117  -0.012   5.169 -0.7049  0.8027  0.4766
 5212TIP3    H237128   6.228   0.024   5.072 -0.4137 -0.3045  0.3903
 5213TIP3   OH237129   0.085   0.402  11.314  0.1091  0.1670  0.4569
 5213TIP3    H137130   0.164   0.455  11.307  0.8224 -1.0125 -1.0411
 5213TIP3    H237131   0.105   0.322  11.264 -2.7103  0.6692 -1.7601
 5214TIP3   OH237132   0.299   0.230   4.383 -0.9700 -0.4218  0.1038
 5214TIP3    H137133   0.241   0.286   4.434 -1.4526  1.2545 -2.1124
 5214TIP3    H237134   0.241   0.180   4.326 -0.4097 -1.6440  0.5564
 5215TIP3   OH237135   1.737   5.121  14.686 -0.0199  0.5214 -0.0355
 5215TIP3    H137136   1.672   5.187  14.711 -1.5542 -0.8560 -0.1971
 5215TIP3    H237137   1.781   5.098  14.767  0.2204  1.3988  0.0958
 5216TIP3   OH237138   0.580   3.778  11.480 -0.3775 -0.4221 -0.2905
 5216TIP3    H137139   0.544   3.740  11.561  0.2327  0.8461  0.6226
 5216TIP3    H237140   0.538   3.729  11.410 -2.0069 -0.6403  0.7761
 5217TIP3   OH237141   2.467   1.376   3.086 -0.6926 -0.2684  0.0992
 5217TIP3    H137142   2.483   1.439   3.156  1.3322  0.3801 -0.8663
 5217TIP3    H237143   2.512   1.413   3.010  0.6281 -2.8654 -0.4982
 5218TIP3   OH237144   3.885   5.768   6.729 -0.0283  0.0992  0.3493
 5218TIP3    H137145   3.854   5.849   6.690  2.9804  0.9473 -0.5275
 5218TIP3    H237146   3.830   5.700   6.691 -0.4593  1.4136 -1.4783
 5219TIP3   OH237147   6.248   0.677  15.899  0.1518  0.1226 -0.6395
 5219TIP3    H137148   6.293   0.595  15.878  0.2579 -0.0772  0.3126
 5219TIP3    H237149   6.319   0.741  15.911  0.0407  0.5365 -2.0758
 5220TIP3   OH237150   0.999   3.265  11.298 -0.3866  0.6046  0.4720
 5220TIP3    H137151   1.047   3.335  11.342 -1.0331 -0.0350  2.3113
 5220TIP3    H237152   0.936   3.234  11.364  1.0260 -2.8651  0.4129
 5221TIP3   OH237153   4.298   1.319   0.098 -0.1363 -0.1184 -0.1580
 5221TIP3    H137154   4.253   1.314   0.014 -1.7765 -0.5815  0.7019
 5221TIP3    H237155   4.289   1.231   0.135  0.1959  0.1800  0.6609
 5222TIP3   OH237156   1.863   2.557  16.817  0.8161  0.0344 -0.7493
 5222TIP3    H137157   1.837   2.525  16.903  1.5685 -3.2141 -1.6033
 5222TIP3    H237158   1.915   2.635  16.835  0.2721 -0.1001  1.6694
 5223TIP3   OH237159   5.249   1.009   1.016 -0.0835 -0.0902  0.3108
 5223TIP3    H137160   5.187   1.071   1.055  2.5540  3.3645 -0.4747
 5223TIP3    H237161   5.272   0.950   1.088 -1.5014  0.8700  1.6174
 5224TIP3   OH237162   0.616   2.464  16.375 -0.0495 -0.0822  0.0504
 5224TIP3    H137163   0.562   2.509  16.440  0.1923  0.6213 -0.2234
 5224TIP3    H237164   0.685   2.527  16.353  1.1262 -1.0833  0.6808
 5225TIP3   OH237165   2.437   0.133  13.631  0.0578  0.4959 -0.5437
 5225TIP3    H137166   2.528   0.106  13.644 -0.9748 -2.4010  2.1388
 5225TIP3    H237167   2.430   0.217  13.675  1.1494  0.1131  0.4054
 5226TIP3   OH237168   1.686   0.034   4.584  0.1389 -0.0389  0.0767
 5226TIP3    H137169   1.674   0.112   4.530  0.4226 -1.5187 -2.2355
 5226TIP3    H237170   1.627  -0.031   4.546  0.6670 -1.2742  1.2892
 5227TIP3   OH237171   4.855   5.074  12.911 -0.8510 -0.0073 -0.2193
 5227TIP3    H137172   4.763   5.051  12.902 -1.0550  1.2823 -1.7489
 5227TIP3    H237173   4.876   5.124  12.832  1.2136 -0.4111  0.0014
 5228TIP3   OH237174   5.169   0.595   5.822  0.6314 -0.5113  0.7562
 5228TIP3    H137175   5.247   0.553   5.787  1.6397  1.4583  0.5050
 5228TIP3    H237176   5.108   0.523   5.839  2.0093 -1.9737 -0.2541
 5229TIP3   OH237177   5.619   3.176  13.287  0.1942  0.6048  0.8371
 5229TIP3    H137178   5.689   3.229  13.248  0.7124  0.0436  0.9965
 5229TIP3    H237179   5.631   3.186  13.381  0.7748 -0.4062  0.8799
 5230TIP3   OH237180   3.238   0.821  11.428 -0.1951  0.2400 -0.3056
 5230TIP3    H137181   3.298   0.895  11.431 -0.3091  0.3090  1.9941
 5230TIP3    H237182   3.156   0.858  11.396  0.1679  0.7800 -0.6270
 5231TIP3   OH237183   6.694   3.405   4.839 -0.3155  0.8238 -0.2506
 5231TIP3    H137184   6.667   3.408   4.747 -3.6831  1.0092  0.5928
 5231TIP3    H237185   6.742   3.487   4.852 -0.4146  1.1407 -1.6558
 5232TIP3   OH237186   1.937   6.474  12.554  0.3797  0.4241 -0.5712
 5232TIP3    H137187   1.853   6.507  12.583  1.5295  3.5606 -0.4031
 5232TIP3    H237188   1.984   6.452  12.634  0.0548 -0.4494 -0.6171
 5233TIP3   OH237189   1.018   3.701   6.024 -0.2826 -0.8110 -0.2654
 5233TIP3    H137190   1.111   3.709   6.002 -0.5025  0.1706 -0.8710
 5233TIP3    H237191   1.016   3.637   6.095  0.6014 -3.0083 -2.0943
 5234TIP3   OH237192   5.479   1.851   0.716 -0.4700  0.0574  0.5685
 5234TIP3    H137193   5.490   1.833   0.810 -1.7638  3.4248  1.4996
 5234TIP3    H237194   5.567   1.869   0.684 -0.2429  1.1117  1.7166
 5235TIP3   OH237195   3.884   1.001   2.473 -0.2842 -0.2617 -0.2480
 5235TIP3    H137196   3.903   0.980   2.382  0.3415 -1.3594  0.1255
 5235TIP3    H237197   3.789   0.992   2.480 -0.7077  2.2949 -1.3768
 5236TIP3   OH237198   3.888   4.618  12.331 -0.1573  0.1977  0.3856
 5236TIP3    H137199   3.795   4.602  12.311 -0.3783  2.1210 -0.3799
 5236TIP3    H237200   3.902   4.578  12.416 -2.2492  1.5786  1.4608
 5237TIP3   OH237201   1.572   0.815  11.306  0.5159  0.6554 -0.5394
 5237TIP3    H137202   1.490   0.862  11.317  0.0703 -0.0094 -0.9342
 5237TIP3    H237203   1.593   0.784  11.395 -0.6099 -0.6878 -0.7083
 5238TIP3   OH237204   2.527   6.160   3.613 -0.2059 -0.8142  0.3229
 5238TIP3    H137205   2.512   6.239   3.665 -0.8149 -0.4095 -0.4589
 5238TIP3    H237206   2.523   6.089   3.678 -3.2903 -0.5594  0.6005
 5239TIP3   OH237207   4.245   5.839   5.673 -0.5274  0.1435 -0.4679
 5239TIP3    H137208   4.267   5.857   5.764 -1.7256  1.4088 -0.3930
 5239TIP3    H237209   4.320   5.873   5.623 -0.1047 -0.0796  0.0059
 5240TIP3   OH237210   0.736   4.006   5.490  0.2977  0.3870 -0.2070
 5240TIP3    H137211   0.824   4.040   5.472  0.8457  0.0889  1.6765
 5240TIP3    H237212   0.677   4.079   5.469  1.3420  2.2202  2.5140
 5241TIP3   OH237213   4.560   6.114  14.973 -0.1731  0.0456  0.4570
 5241TIP3    H137214   4.620   6.071  14.911 -1.1862 -1.6777  0.5969
 5241TIP3    H237215   4.482   6.134  14.922 -1.0842 -1.5358  1.1324
 5242TIP3   OH237216   3.820   2.952   4.022  0.0724 -0.2069  0.1968
 5242TIP3    H137217   3.842   3.040   4.053 -1.6841  0.6849 -0.9262
 5242TIP3    H237218   3.874   2.893   4.076  0.1622  1.4551  2.0376
 5243TIP3   OH237219   5.679   4.276  16.295  0.0039 -0.1817  0.4561
 5243TIP3    H137220   5.753   4.337  16.298 -1.3198  1.5396 -0.3584
 5243TIP3    H237221   5.608   4.323  16.339 -0.1784 -2.5184  2.8764
 5244TIP3   OH237222   0.823   4.544   3.122 -0.6512  0.0056 -0.1885
 5244TIP3    H137223   0.775   4.509   3.197  0.9482 -0.5069  0.6486
 5244TIP3    H237224   0.865   4.624   3.156 -0.3547  0.0639 -0.6795
 5245TIP3   OH237225   4.667   4.592  13.950 -0.2101 -0.0542 -0.5628
 5245TIP3    H137226   4.762   4.598  13.961  0.0008 -2.0802 -0.8470
 5245TIP3    H237227   4.653   4.615  13.858 -0.0807  0.7763 -0.3854
 5246TIP3   OH237228   5.110   5.929  16.697  0.1905 -0.7200  0.6473
 5246TIP3    H137229   5.077   5.844  16.668 -0.2871 -0.1742 -0.4775
 5246TIP3    H237230   5.190   5.943  16.646 -0.5432  0.1576 -0.3159
 5247TIP3   OH237231   0.009   3.001   3.254 -0.4514 -0.2764 -0.0107
 5247TIP3    H137232  -0.005   3.082   3.205  1.0780  0.3912  0.5840
 5247TIP3    H237233   0.080   2.957   3.207  0.2819 -0.1542  0.9501
 5248TIP3   OH237234   1.107   3.323   3.507  0.1186  0.4180 -0.2520
 5248TIP3    H137235   1.125   3.415   3.526  1.3578  0.4681 -1.4634
 5248TIP3    H237236   1.158   3.305   3.428  0.7381 -1.5906  0.5340
 5249TIP3   OH237237   2.453   2.225   2.795  0.0130 -0.4181 -0.7418
 5249TIP3    H137238   2.473   2.199   2.705  0.0669 -0.1616 -0.8018
 5249TIP3    H237239   2.435   2.318   2.791  0.8645 -0.2253 -0.3454
 5250TIP3   OH237240   6.517   3.875  10.891 -0.3524  0.8547  0.0845
 5250TIP3    H137241   6.421   3.864  10.893 -0.1410 -1.7387  0.0418
 5250TIP3    H237242   6.533   3.921  10.809 -1.5032 -0.4539 -0.9526
 5251TIP3   OH237243   5.260   4.467   1.252  0.1314  0.5843  0.6833
 5251TIP3    H137244   5.263   4.558   1.284  2.5705  1.3852 -1.4232
 5251TIP3    H237245   5.322   4.420   1.308  0.2324  0.6657  0.6409
 5252TIP3   OH237246   0.304   2.531  14.325 -0.1228 -1.2098  0.1954
 5252TIP3    H137247   0.240   2.601  14.339  1.1495  0.0451  0.0187
 5252TIP3    H237248   0.256   2.464  14.275 -1.2110 -0.1837 -0.1812
 5253TIP3   OH237249   0.115   0.030   4.542 -0.0263 -0.5220  0.4892
 5253TIP3    H137250   0.035   0.033   4.490  0.1125 -0.1828  0.2926
 5253TIP3    H237251   0.117   0.114   4.588  0.7015 -0.1239 -0.2427
 5254TIP3   OH237252   4.314   2.189  12.600 -0.1456  0.6653  0.1798
 5254TIP3    H137253   4.226   2.228  12.607 -0.6064 -0.3916  0.6141
 5254TIP3    H237254   4.345   2.213  12.513 -2.1469 -1.4626 -1.2303
 5255TIP3   OH237255   2.082   3.129   4.126  0.3351 -0.2346 -0.2352
 5255TIP3    H137256   2.112   3.039   4.138 -1.9226 -0.9112  1.0344
 5255TIP3    H237257   2.130   3.161   4.050  1.8936 -2.1794 -0.1346
 5256TIP3   OH237258   5.227   0.659   2.746  0.1893  0.3350 -0.1469
 5256TIP3    H137259   5.196   0.696   2.828 -0.0524 -0.4005  0.1009
 5256TIP3    H237260   5.247   0.568   2.767  0.0672  0.1242 -0.9175
 5257TIP3   OH237261   2.828   2.431  15.945 -0.7188  0.1265  0.3622
 5257TIP3    H137262   2.794   2.475  15.867  0.1867 -0.4741 -0.3975
 5257TIP3    H237263   2.844   2.341  15.916  2.2910  0.5568  0.3626
 5258TIP3   OH237264   0.238   6.542  14.637 -0.5135  0.0440  0.2160
 5258TIP3    H137265   0.289   6.552  14.718  0.4911  2.2022 -0.5969
 5258TIP3    H237266   0.245   6.628  14.594 -3.5405 -0.0767 -0.7280
 5259TIP3   OH237267   4.076   5.894  15.055 -0.4298 -0.3886  0.0662
 5259TIP3    H137268   4.150   5.879  14.997  0.9343  3.1915  0.6541
 5259TIP3    H237269   4.044   5.806  15.075  1.9086 -1.9633 -2.3512
 5260TIP3   OH237270   4.705   4.702  15.030 -0.5861 -0.0191  0.2351
 5260TIP3    H137271   4.630   4.751  15.064 -1.0370 -0.3148 -0.3133
 5260TIP3    H237272   4.680   4.610  15.038 -0.0362 -0.1421  0.5994
 5261TIP3   OH237273   4.253   4.695   5.210  0.3857  0.1322 -0.5127
 5261TIP3    H137274   4.237   4.651   5.126 -1.8872 -0.2590  0.0498
 5261TIP3    H237275   4.309   4.634   5.258 -1.2045 -1.3821 -0.4527
 5262TIP3   OH237276   3.048   1.038  15.501  0.2241  0.5339  0.3209
 5262TIP3    H137277   2.977   1.009  15.559 -0.1274  0.3097 -0.2227
 5262TIP3    H237278   3.073   1.123  15.536 -0.2059  0.5476  0.6090
 5263TIP3   OH237279   1.388   4.560  12.496  1.2600  0.0129  0.0501
 5263TIP3    H137280   1.394   4.629  12.430  2.7863  0.1587  0.2879
 5263TIP3    H237281   1.442   4.592  12.569  2.3206 -1.5694  0.0132
 5264TIP3   OH237282   2.672   6.164  11.919 -0.2001  0.0322 -0.2600
 5264TIP3    H137283   2.638   6.077  11.900 -0.9302  0.4072 -0.7503
 5264TIP3    H237284   2.757   6.149  11.960 -0.8526 -0.9355  0.7916
 5265TIP3   OH237285   5.355   3.795   0.790 -0.6312 -0.2352  0.5655
 5265TIP3    H137286   5.280   3.792   0.730 -1.1481 -0.3762  1.1939
 5265TIP3    H237287   5.364   3.888   0.812  0.3735 -0.0101 -0.7004
 5266TIP3   OH237288   6.551   2.079   4.898  0.0121 -0.1380  0.7052
 5266TIP3    H137289   6.607   2.042   4.967  1.9371  0.9501 -0.2023
 5266TIP3    H237290   6.612   2.113   4.833 -1.7461 -0.0266 -0.9780
 5267TIP3   OH237291   6.276   3.203   4.081 -0.3752 -0.0737  0.0672
 5267TIP3    H137292   6.217   3.260   4.032 -0.5353 -0.1459  0.1740
 5267TIP3    H237293   6.348   3.185   4.021 -0.4151  0.0915 -0.0303
 5268TIP3   OH237294   3.226   0.140  11.015  0.1101 -0.1667  0.5323
 5268TIP3    H137295   3.266   0.055  10.997  0.5904 -0.0027  0.8029
 5268TIP3    H237296   3.211   0.178  10.928 -0.9448 -0.9006  0.3753
 5269TIP3   OH237297   1.789   2.688   3.257  0.4086  0.0566 -0.5201
 5269TIP3    H137298   1.755   2.773   3.230 -1.5924 -0.5754 -0.1476
 5269TIP3    H237299   1.779   2.687   3.352  0.3995 -0.5966 -0.5233
 5270TIP3   OH237300   6.537   5.871   2.110  0.5548 -0.3489  0.2437
 5270TIP3    H137301   6.601   5.939   2.131  0.1372  0.2585 -0.3941
 5270TIP3    H237302   6.590   5.795   2.085  1.0250 -0.1847  0.7126
 5271TIP3   OH237303   5.362   5.523  11.754  0.3181 -0.3220  0.0535
 5271TIP3    H137304   5.409   5.566  11.826 -1.0449  0.3259  0.5833
 5271TIP3    H237305   5.286   5.482  11.795 -0.1346 -0.4995 -0.9190
 5272TIP3   OH237306   3.040   1.189  14.494  0.2483 -0.5478  0.1871
 5272TIP3    H137307   3.107   1.121  14.489  1.1446  0.3489 -0.4969
 5272TIP3    H237308   3.045   1.221  14.584  0.7735 -0.4617  0.1294
 5273TIP3   OH237309   2.728   0.793  13.949 -0.0686 -0.4484 -0.1162
 5273TIP3    H137310   2.786   0.722  13.976 -0.5855 -1.0532 -0.5517
 5273TIP3    H237311   2.771   0.832  13.873 -0.4464 -1.2244 -0.7555
 5274TIP3   OH237312   5.603   4.079   4.503 -0.1161 -0.3306  0.0148
 5274TIP3    H137313   5.549   4.157   4.501 -0.8446 -0.8160  0.4037
 5274TIP3    H237314   5.584   4.038   4.587  1.1803 -0.2948  0.3521
 5275TIP3   OH237315   2.352   1.358   4.067  0.0749 -0.1259 -0.5889
 5275TIP3    H137316   2.435   1.400   4.043  1.0198 -1.3923  0.3230
 5275TIP3    H237317   2.365   1.330   4.157 -1.3771 -0.3457 -0.4274
 5276TIP3   OH237318   4.319   5.730  15.680 -0.0926  0.6144  0.0752
 5276TIP3    H137319   4.275   5.648  15.658  0.2819  0.7538 -1.3022
 5276TIP3    H237320   4.412   5.708  15.680 -0.0400  0.8059  0.7930
 5277TIP3   OH237321   0.139   1.289   1.044  0.0302  0.0631 -0.3456
 5277TIP3    H137322   0.164   1.306   0.953  0.7950 -1.3936 -0.4373
 5277TIP3    H237323   0.088   1.207   1.040  1.7013 -1.0811  0.7301
 5278TIP3   OH237324   4.634   0.457   5.537  0.1251  0.0953  0.7451
 5278TIP3    H137325   4.567   0.518   5.504  0.7606 -0.7115 -2.3750
 5278TIP3    H237326   4.715   0.507   5.533  0.4593 -0.5199 -0.6300
 5279TIP3   OH237327   3.357   4.485  12.092  0.4250  0.1277  0.6098
 5279TIP3    H137328   3.365   4.546  12.018 -0.5077 -0.6952 -0.2187
 5279TIP3    H237329   3.270   4.503  12.127 -0.0586 -1.0171  0.0514
 5280TIP3   OH237330   0.272   4.529   4.518  0.1406  0.2377 -0.0969
 5280TIP3    H137331   0.310   4.603   4.471  2.2114 -0.4871  0.3214
 5280TIP3    H237332   0.283   4.552   4.611 -0.4980  0.0119  0.0405
 5281TIP3   OH237333   1.207   1.917   0.576  0.0567 -0.0854  0.1452
 5281TIP3    H137334   1.152   1.846   0.542  0.7348 -0.1265 -0.9125
 5281TIP3    H237335   1.145   1.987   0.598 -0.5570 -0.7447  0.5356
 5282TIP3   OH237336   3.522   4.440  15.798  0.1048 -0.2970  0.1074
 5282TIP3    H137337   3.469   4.396  15.865 -1.0801 -1.0207 -1.2661
 5282TIP3    H237338   3.488   4.529  15.795 -0.1197 -0.3798  0.1760
 5283TIP3   OH237339   5.402   2.260   4.435 -0.4076  0.6383  0.3234
 5283TIP3    H137340   5.423   2.323   4.367 -1.1732  0.4973 -0.0503
 5283TIP3    H237341   5.432   2.301   4.516  1.6630  0.2831 -0.1877
 5284TIP3   OH237342   1.017   6.231   2.714 -0.1442 -0.3407  0.0192
 5284TIP3    H137343   1.078   6.161   2.689  1.3190  0.4182  1.2754
 5284TIP3    H237344   1.066   6.312   2.700 -1.3925  0.3793 -0.2900
 5285TIP3   OH237345   1.685   1.334  13.909  0.3204  0.3149 -0.3245
 5285TIP3    H137346   1.662   1.263  13.849  1.9797  1.0337 -1.8899
 5285TIP3    H237347   1.772   1.312  13.941  0.5494  1.2618 -0.2555
 5286TIP3   OH237348   3.111   0.358   4.330  0.2292 -0.5839  0.3318
 5286TIP3    H137349   3.034   0.399   4.291 -1.4652 -3.4590  0.3877
 5286TIP3    H237350   3.182   0.378   4.269 -0.5255  1.9613  0.1581
 5287TIP3   OH237351   4.669   3.377   3.453  0.3547 -0.0375 -0.5938
 5287TIP3    H137352   4.746   3.349   3.403  0.1025 -1.6229 -0.1634
 5287TIP3    H237353   4.662   3.471   3.436  2.6836  0.2674 -0.2536
 5288TIP3   OH237354   6.418   2.829   5.759 -0.0194  0.8388  0.4818
 5288TIP3    H137355   6.363   2.874   5.695  0.2912  0.8517  0.2206
 5288TIP3    H237356   6.507   2.845   5.729  0.0723 -0.9692 -0.3207
 5289TIP3   OH237357   5.424   2.459  12.451  0.2215 -0.0672  0.4782
 5289TIP3    H137358   5.424   2.408  12.532  0.4199  1.5664  1.5740
 5289TIP3    H237359   5.493   2.524  12.464 -0.8848  1.3146 -0.2617
 5290TIP3   OH237360   3.031   3.283  11.639 -0.3777 -0.3086 -0.1492
 5290TIP3    H137361   2.954   3.294  11.695 -0.8106  0.0869 -0.8099
 5290TIP3    H237362   3.103   3.322  11.689 -0.6421 -0.4886  0.3800
 5291TIP3   OH237363   3.521   2.072  14.360  0.2792 -0.1404 -0.0836
 5291TIP3    H137364   3.526   2.095  14.453  0.5976  1.3928 -0.4533
 5291TIP3    H237365   3.428   2.079  14.338  0.4241  1.4475 -0.3143
 5292TIP3   OH237366   4.082   5.163  16.028 -0.9490  0.0111 -0.0155
 5292TIP3    H137367   4.060   5.155  15.935  0.0881  2.2292 -0.5344
 5292TIP3    H237368   4.011   5.217  16.064 -0.5245  0.4957  0.1014
 5293TIP3   OH237369   4.240   4.992   1.194  0.0944  0.2206 -0.7355
 5293TIP3    H137370   4.191   4.911   1.208 -1.2502  0.8757 -1.4440
 5293TIP3    H237371   4.326   4.964   1.162 -0.6845 -0.9099 -1.8916
 5294TIP3   OH237372   0.173   1.313   3.001  0.1655  0.7283 -0.2231
 5294TIP3    H137373   0.127   1.395   3.022 -0.5432  0.3412 -0.2119
 5294TIP3    H237374   0.161   1.258   3.078 -0.6863  0.0598 -0.8040
 5295TIP3   OH237375   3.389   0.420  12.964 -0.3771  1.0710  0.1165
 5295TIP3    H137376   3.482   0.401  12.958 -0.9404 -1.9827 -4.2412
 5295TIP3    H237377   3.363   0.388  13.050  2.0871 -1.0945  0.1745
 5296TIP3   OH237378   2.337   0.863  12.134  0.2685 -0.2212 -0.1369
 5296TIP3    H137379   2.305   0.797  12.072 -1.3970  1.7273 -1.4616
 5296TIP3    H237380   2.325   0.947  12.089  0.2121  1.1975  2.3278
 5297TIP3   OH237381   6.238   5.043   3.705 -0.3913 -0.5110  0.4582
 5297TIP3    H137382   6.226   5.122   3.652 -0.7285 -0.6929  0.2603
 5297TIP3    H237383   6.152   5.027   3.744 -0.6737 -1.5064 -0.5217
 5298TIP3   OH237384   1.111   2.111   5.772 -0.3202  0.3258  0.4692
 5298TIP3    H137385   1.033   2.076   5.815  0.1741 -1.7162 -0.1938
 5298TIP3    H237386   1.084   2.198   5.743 -2.0503  0.0442  1.0799
 5299TIP3   OH237387   6.461   3.690   1.945  0.3708  0.0889  0.1539
 5299TIP3    H137388   6.489   3.714   2.034 -1.0765  0.1114  0.6349
 5299TIP3    H237389   6.408   3.611   1.958 -0.0754  0.2486 -0.6654
 5300TIP3   OH237390   2.000   0.319   2.653  0.0206 -0.2428 -0.0838
 5300TIP3    H137391   2.068   0.273   2.703  0.8119  0.8305 -0.1431
 5300TIP3    H237392   2.040   0.337   2.568  0.8371  3.0160  0.8403
 5301TIP3   OH237393   5.679   1.084   4.060  0.6767 -0.1630  0.3743
 5301TIP3    H137394   5.631   1.006   4.088 -1.2515  0.8407 -0.0056
 5301TIP3    H237395   5.660   1.149   4.128  0.1829  0.7319 -0.6031
 5302TIP3   OH237396   3.985   0.631   0.276  0.6189 -0.3098  0.0054
 5302TIP3    H137397   3.985   0.664   0.187 -0.6210  0.9153  0.4100
 5302TIP3    H237398   4.048   0.559   0.276  0.8163 -0.1722 -1.7789
 5303TIP3   OH237399   2.247   3.252  13.926 -0.4034  0.0614  0.6249
 5303TIP3    H137400   2.324   3.272  13.873 -0.6129  0.2279  0.3856
 5303TIP3    H237401   2.281   3.195  13.996 -0.5157 -2.0369 -0.9483
 5304TIP3   OH237402   4.821   0.459  14.995 -0.1017 -0.0082 -0.6885
 5304TIP3    H137403   4.794   0.418  14.913 -0.3743 -2.4836  0.5340
 5304TIP3    H237404   4.914   0.441  15.002 -0.2013 -0.3571 -0.1885
 5305TIP3   OH237405   3.181   0.193  10.692  0.2391  0.1434 -0.6545
 5305TIP3    H137406   3.088   0.203  10.710  0.1401 -1.8123  0.1045
 5305TIP3    H237407   3.194   0.236  10.607 -1.4263  0.0570 -0.9726
 5306TIP3   OH237408   6.395   3.164  13.590  0.5173  0.4090  0.1079
 5306TIP3    H137409   6.358   3.076  13.593  0.0308  0.6081  0.1119
 5306TIP3    H237410   6.423   3.176  13.499  0.0751  0.4541 -0.0225
 5307TIP3   OH237411   1.876   5.651   0.268 -0.2641 -0.2889  0.4678
 5307TIP3    H137412   1.965   5.624   0.291  0.7644  1.8793 -0.6340
 5307TIP3    H237413   1.820   5.603   0.329  1.7070 -1.1146  1.7396
 5308TIP3   OH237414   4.958   1.507  11.430  0.2132 -0.6701 -0.4657
 5308TIP3    H137415   4.995   1.420  11.445 -1.9595 -1.4545  0.7307
 5308TIP3    H237416   4.918   1.531  11.513  0.7661  1.5342 -0.7651
 5309TIP3   OH237417   3.496   5.960   6.062  0.4349  0.4505 -0.0218
 5309TIP3    H137418   3.561   5.945   5.993  1.4854  0.0921  1.0180
 5309TIP3    H237419   3.412   5.944   6.019  0.9096  2.2699 -1.7627
 5310TIP3   OH237420   5.343   6.816   3.853 -0.1324  0.1895  0.5926
 5310TIP3    H137421   5.311   6.790   3.766 -1.1632  0.5023  0.8606
 5310TIP3    H237422   5.341   6.735   3.904 -0.4246  0.1820  0.5751
 5311TIP3   OH237423   4.466   2.580   5.395  0.2375  0.1753  0.3241
 5311TIP3    H137424   4.449   2.617   5.482 -1.0013  0.8598 -0.1840
 5311TIP3    H237425   4.494   2.655   5.343  2.8705 -0.5573  0.5715
 5312TIP3   OH237426   4.122   2.693  11.629  0.3879 -0.3859  0.0387
 5312TIP3    H137427   4.113   2.781  11.591 -0.3035 -0.8455 -0.8752
 5312TIP3    H237428   4.058   2.640  11.583 -0.6173 -0.9418  1.9810
 5313TIP3   OH237429   5.210   2.315  11.320  0.0258  0.3552 -0.6886
 5313TIP3    H137430   5.204   2.232  11.368  2.2560  0.6701  0.2288
 5313TIP3    H237431   5.277   2.365  11.366 -1.0533  2.5869 -1.3993
 5314TIP3   OH237432   5.947   2.437   5.554 -0.1411 -0.2830  0.0480
 5314TIP3    H137433   5.985   2.351   5.538 -1.4357 -1.3332  2.1906
 5314TIP3    H237434   6.022   2.494   5.570  0.7450 -0.8904 -1.6339
 5315TIP3   OH237435   3.897   2.964  16.157  0.5159 -0.1767 -0.2224
 5315TIP3    H137436   3.871   3.050  16.191  0.8060 -0.0374 -0.3400
 5315TIP3    H237437   3.940   2.984  16.074  0.9446 -0.3992 -0.0580
 5316TIP3   OH237438   5.007   4.994  11.784  0.4971  0.5033  0.0898
 5316TIP3    H137439   4.924   4.994  11.831  1.1575  0.0167  1.3357
 5316TIP3    H237440   4.996   4.930  11.714  0.2345 -0.5662  1.0768
 5317TIP3   OH237441   6.241   0.307   5.144  0.2482 -0.0670 -1.3103
 5317TIP3    H137442   6.294   0.266   5.212  0.3463  2.3450  0.1762
 5317TIP3    H237443   6.261   0.258   5.065  1.6631 -1.7085 -0.0065
 5318TIP3   OH237444   3.728   3.542   1.540 -0.1896 -0.1587 -0.8611
 5318TIP3    H137445   3.790   3.604   1.502 -0.4391 -0.2977 -1.5205
 5318TIP3    H237446   3.652   3.545   1.481 -0.4446 -0.6431 -0.5660
 5319TIP3   OH237447   0.300   2.425   4.839 -0.0550  0.8138 -0.4284
 5319TIP3    H137448   0.224   2.404   4.894 -0.8526 -0.5199 -1.9621
 5319TIP3    H237449   0.365   2.458   4.900 -1.2227  0.2536  1.1913
 5320TIP3   OH237450   0.956   3.207   2.800 -0.3307  0.7837 -0.3634
 5320TIP3    H137451   0.888   3.226   2.736  0.8718  0.6016 -1.7573
 5320TIP3    H237452   1.008   3.137   2.759 -1.1567 -1.4121  2.0384
 5321TIP3   OH237453   4.332   4.383  11.554 -0.3606  0.6369 -0.1467
 5321TIP3    H137454   4.378   4.449  11.503 -0.1659  1.4706  1.0759
 5321TIP3    H237455   4.359   4.398  11.644 -0.3093 -1.1246  0.1736
 5322TIP3   OH237456   1.120   6.546   5.863  0.7600 -0.4391  0.3365
 5322TIP3    H137457   1.135   6.554   5.958  3.5021 -1.9094  0.1425
 5322TIP3    H237458   1.180   6.611   5.825  0.9059 -1.0213 -0.4333
 5323TIP3   OH237459   1.754   3.776   0.874 -0.2245  0.2338  0.0180
 5323TIP3    H137460   1.683   3.796   0.935 -1.4077 -1.1560 -0.8235
 5323TIP3    H237461   1.745   3.842   0.805 -0.9094 -0.0936 -0.2224
 5324TIP3   OH237462   6.665   2.671   1.662  0.5266 -0.3817 -0.2333
 5324TIP3    H137463   6.618   2.667   1.579  1.5463 -0.3094 -0.8204
 5324TIP3    H237464   6.752   2.703   1.639  0.9415 -0.7289  0.8134
 5325TIP3   OH237465   1.284   1.569  12.167 -0.5595 -0.0429  0.0273
 5325TIP3    H137466   1.279   1.649  12.114 -2.9373 -1.8955 -2.9087
 5325TIP3    H237467   1.200   1.566  12.213 -0.3196 -0.6686  0.4320
 5326TIP3   OH237468   4.065   5.032  12.536 -0.1054 -0.0011 -0.1073
 5326TIP3    H137469   4.005   5.031  12.461 -0.1177 -1.4798 -0.0968
 5326TIP3    H237470   4.099   4.943  12.541 -0.1150  0.0589  1.6766
 5327TIP3   OH237471   1.096   6.076  15.139  0.2584  0.2375  0.5875
 5327TIP3    H137472   1.108   5.996  15.190 -0.5038  0.4720  1.1511
 5327TIP3    H237473   1.025   6.123  15.184  0.2192  0.8960 -0.1412
 5328TIP3   OH237474   5.898   3.434   3.065 -0.4684  0.1373 -0.3946
 5328TIP3    H137475   5.979   3.391   3.039 -0.8731 -2.2598  1.9372
 5328TIP3    H237476   5.921   3.526   3.073  1.8864 -0.4053 -0.2741
 5329TIP3   OH237477   2.737   6.762  16.598  0.7417 -0.7080 -0.5290
 5329TIP3    H137478   2.785   6.837  16.563 -0.3942  0.5680  0.5137
 5329TIP3    H237479   2.645   6.781  16.577  0.4165 -1.7137 -0.0716
 5330TIP3   OH237480   5.496   3.541   0.651  0.0266  0.3215  0.3227
 5330TIP3    H137481   5.426   3.571   0.709  1.0540  2.5535  0.5126
 5330TIP3    H237482   5.482   3.590   0.570  0.2818 -0.6227 -0.2991
 5331TIP3   OH237483   2.557   0.276   1.088 -0.1088 -0.1992  0.0144
 5331TIP3    H137484   2.549   0.273   1.183  0.1173  0.3345  0.0543
 5331TIP3    H237485   2.643   0.316   1.073  0.1242 -0.8476 -0.4117
 5332TIP3   OH237486   4.580   0.591   2.354 -0.2203 -0.2782  0.5577
 5332TIP3    H137487   4.534   0.512   2.383  0.3271 -0.6469  0.4461
 5332TIP3    H237488   4.572   0.589   2.259  0.5177 -0.6575  0.4976
 5333TIP3   OH237489   5.827   3.869  12.044 -0.2752 -0.6321 -0.4684
 5333TIP3    H137490   5.893   3.938  12.037 -1.2808  0.3349 -0.8308
 5333TIP3    H237491   5.800   3.871  12.135 -0.8272 -0.0290 -0.6403
 5334TIP3   OH237492   4.059   4.485   5.368  0.5394  0.8515 -0.0970
 5334TIP3    H137493   4.022   4.572   5.377 -0.2758  0.5160 -0.1091
 5334TIP3    H237494   4.153   4.498   5.373  0.4647  1.8340 -0.9893
 5335TIP3   OH237495   3.673   0.534   4.253 -0.2361 -0.1065 -0.1602
 5335TIP3    H137496   3.750   0.591   4.259 -0.0090 -0.3427 -0.8058
 5335TIP3    H237497   3.599   0.594   4.248 -0.0671  0.1244  0.0642
 5336TIP3   OH237498   6.307   3.358  12.126 -0.1698 -0.0207  0.2487
 5336TIP3    H137499   6.310   3.275  12.173  0.4131 -0.3772 -0.4106
 5336TIP3    H237500   6.225   3.356  12.077 -1.1950  0.6972  1.8343
 5337TIP3   OH237501   4.904   5.793  11.514 -0.4268 -0.0844 -0.0925
 5337TIP3    H137502   4.866   5.773  11.600 -2.0675 -0.0070 -0.7729
 5337TIP3    H237503   4.848   5.861  11.478 -0.2807 -0.7159 -1.5866
 5338TIP3   OH237504   3.016   0.492  11.048 -0.7200  0.7978 -0.1113
 5338TIP3    H137505   3.066   0.549  11.107 -2.7530  3.2455 -0.5782
 5338TIP3    H237506   3.060   0.501  10.964 -1.0131  1.7307 -0.1807
 5339TIP3   OH237507   2.376   2.431   4.510 -0.6481  0.4373  0.0251
 5339TIP3    H137508   2.348   2.512   4.467 -2.2582  0.0342  0.2666
 5339TIP3    H237509   2.297   2.377   4.513  0.1506 -0.7221  0.8315
 5340TIP3   OH237510   1.909   5.290   1.423 -0.3008  0.1069  0.1661
 5340TIP3    H137511   1.864   5.238   1.356  0.0382 -0.8302  0.6481
 5340TIP3    H237512   1.869   5.377   1.417 -0.2162  0.0619 -1.2975
 5341TIP3   OH237513   2.409   6.739  10.989 -0.3372 -0.5351 -0.2753
 5341TIP3    H137514   2.388   6.645  10.993 -3.0334 -0.0118 -0.0547
 5341TIP3    H237515   2.461   6.748  10.909  0.2532 -2.2510 -0.1322
 5342TIP3   OH237516   3.272   4.649   1.605  0.4123  0.0006  0.5377
 5342TIP3    H137517   3.177   4.650   1.597  0.3643 -2.6132  0.1532
 5342TIP3    H237518   3.304   4.627   1.517  1.1105 -3.1494  1.4630
 5343TIP3   OH237519   3.091   6.652  16.372  0.4187  0.5983 -0.1034
 5343TIP3    H137520   3.130   6.722  16.425  0.8181  0.0662  0.3222
 5343TIP3    H237521   3.049   6.595  16.436 -1.1569  1.1922 -0.5582
 5344TIP3   OH237522   0.904   0.097  14.448  0.7111 -0.4276  0.1727
 5344TIP3    H137523   0.955   0.033  14.498 -0.1332 -0.2672  1.2908
 5344TIP3    H237524   0.917   0.073  14.356  2.4155 -0.6566  0.4572
 5345TIP3   OH237525   3.094   1.010   3.134 -0.3243 -0.1476 -0.1884
 5345TIP3    H137526   3.141   1.027   3.052  0.4585 -2.6419 -0.3463
 5345TIP3    H237527   3.146   0.942   3.177 -2.0244 -0.6190  1.2350
 5346TIP3   OH237528   6.581   2.912  14.579 -0.0139 -0.1783  0.8632
 5346TIP3    H137529   6.604   2.834  14.629 -0.7465 -0.4801  0.7399
 5346TIP3    H237530   6.612   2.893  14.490 -1.9804 -1.2209  0.3328
 5347TIP3   OH237531   5.489   3.424  12.943  0.0218 -0.4564 -0.3472
 5347TIP3    H137532   5.433   3.371  13.001 -2.0555  0.0235 -1.7948
 5347TIP3    H237533   5.428   3.484  12.900  1.4505 -0.7764 -3.0212
 5348TIP3   OH237534   2.164   3.431   3.316 -0.4202  0.0006 -0.7145
 5348TIP3    H137535   2.153   3.415   3.222 -2.3078  0.6033 -0.6218
 5348TIP3    H237536   2.081   3.404   3.355  0.1387  0.2856  0.7361
 5349TIP3   OH237537   5.430   6.241   0.360  0.5506 -0.1086 -0.4843
 5349TIP3    H137538   5.455   6.183   0.288  2.0548  0.4771 -0.4756
 5349TIP3    H237539   5.379   6.310   0.317 -0.2310 -0.7843 -0.6716
 5350TIP3   OH237540   4.275   4.093  13.401 -0.6257 -0.6216 -1.2684
 5350TIP3    H137541   4.360   4.049  13.393 -0.4688 -0.4613 -0.6071
 5350TIP3    H237542   4.259   4.132  13.316  0.2337 -0.1897 -1.2389
 5351TIP3   OH237543   3.264   2.780   4.867 -0.1388 -0.2481  0.5207
 5351TIP3    H137544   3.240   2.689   4.847  0.3650 -0.4898  1.0037
 5351TIP3    H237545   3.191   2.812   4.921  0.1787 -0.6983  1.2283
 5352TIP3   OH237546   2.401   5.015   5.349  0.1926  0.0228 -0.5397
 5352TIP3    H137547   2.463   4.952   5.313  1.8171  0.7458  0.8399
 5352TIP3    H237548   2.382   5.075   5.278  0.6764 -0.5044 -1.1215
 5353TIP3   OH237549   0.962   5.918  11.971  0.4707 -0.3481 -0.1215
 5353TIP3    H137550   0.955   5.839  11.917  0.0242 -0.3182 -0.1098
 5353TIP3    H237551   0.974   5.989  11.908  0.1716 -0.3408 -0.1730
 5354TIP3   OH237552   0.058   1.795   0.335 -0.2285 -0.5920  0.3745
 5354TIP3    H137553   0.078   1.873   0.387 -0.5278 -0.5722  0.4597
 5354TIP3    H237554   0.027   1.731   0.399 -1.6256 -0.2190  0.1073
 5355TIP3   OH237555   3.301   3.547  15.919  0.0179  0.4293 -0.3334
 5355TIP3    H137556   3.333   3.470  15.872 -0.9496 -0.7028  0.7826
 5355TIP3    H237557   3.330   3.621  15.867  0.4808 -0.7145 -1.7570
 5356TIP3   OH237558   5.232   2.206   1.355 -0.0334  0.2999 -0.0503
 5356TIP3    H137559   5.304   2.270   1.349 -0.3135  0.7353  1.0465
 5356TIP3    H237560   5.272   2.123   1.330  0.6276  0.6940 -0.3504
 5357TIP3   OH237561   4.151   1.385  13.571  0.4549 -0.2063 -0.5747
 5357TIP3    H137562   4.114   1.466  13.536  2.7914  0.8271 -0.8659
 5357TIP3    H237563   4.076   1.333  13.598 -1.2630  0.9032 -2.8830
 5358TIP3   OH237564   6.587   1.289  15.014 -0.1814  0.7204 -0.1182
 5358TIP3    H137565   6.533   1.357  14.975 -0.3070 -0.6659 -2.5343
 5358TIP3    H237566   6.535   1.209  15.006  0.5159  0.0765  1.4008
 5359TIP3   OH237567   1.425   3.240   3.342  0.1603  0.0171  0.0407
 5359TIP3    H137568   1.445   3.152   3.310  2.5004  0.6334 -0.3860
 5359TIP3    H237569   1.350   3.268   3.289 -2.3118 -2.5781  1.9039
 5360TIP3   OH237570   0.732   3.425  12.476 -0.1544 -0.3136  0.1710
 5360TIP3    H137571   0.714   3.436  12.569  0.7746  0.5649  0.2624
 5360TIP3    H237572   0.653   3.383  12.442 -0.8446  0.0841  1.2034
 5361TIP3   OH237573   1.852   4.444  13.776 -0.2260 -0.0839  0.1005
 5361TIP3    H137574   1.776   4.503  13.768 -0.0649  0.2975  1.2208
 5361TIP3    H237575   1.922   4.490  13.730 -0.8200 -0.7581 -1.5535
 5362TIP3   OH237576   6.086   2.536   3.472  0.0007 -0.2961  0.1978
 5362TIP3    H137577   6.063   2.484   3.549  0.4679 -0.8071 -0.0043
 5362TIP3    H237578   6.180   2.522   3.461 -0.1572 -0.6299 -0.7735
 5363TIP3   OH237579   5.414   3.758   3.451 -0.6534 -0.0080 -0.1969
 5363TIP3    H137580   5.433   3.814   3.526 -0.3618  0.6128 -0.7242
 5363TIP3    H237581   5.500   3.735   3.416 -0.7433 -1.2937  0.3666
 5364TIP3   OH237582   4.789   3.316  15.041  0.2153 -0.1189 -0.5382
 5364TIP3    H137583   4.800   3.235  15.092  0.3163 -0.7386 -1.5065
 5364TIP3    H237584   4.786   3.286  14.950  1.6497  1.0923 -1.0306
 5365TIP3   OH237585   4.048   6.174  14.897  0.6082 -0.7063 -0.3076
 5365TIP3    H137586   3.997   6.254  14.905  1.1505 -0.3618 -0.2267
 5365TIP3    H237587   4.134   6.203  14.865  0.9612 -1.1999  0.1663
 5366TIP3   OH237588   2.671   5.396  11.100  0.0539  0.0923  0.3043
 5366TIP3    H137589   2.760   5.390  11.136 -0.2989 -0.6088  1.1112
 5366TIP3    H237590   2.667   5.324  11.037 -0.0684 -0.1334  0.5680
 5367TIP3   OH237591   1.161   3.576   2.871 -0.6689  0.3627  0.3864
 5367TIP3    H137592   1.204   3.639   2.813 -0.5460  1.6387  1.7912
 5367TIP3    H237593   1.191   3.600   2.959 -2.2406 -0.3256  1.1583
 5368TIP3   OH237594   0.024   5.857  12.385 -0.2436  0.0071  0.0993
 5368TIP3    H137595   0.101   5.886  12.337  0.2305 -2.6466 -0.9030
 5368TIP3    H237596  -0.050   5.887  12.332  0.0930  1.4160  0.3855
 5369TIP3   OH237597   5.057   2.335  14.932  0.3483  0.2661 -0.2772
 5369TIP3    H137598   5.127   2.277  14.903  0.8857  1.1980 -0.8782
 5369TIP3    H237599   5.093   2.423  14.923 -0.2597  0.6960  1.1104
 5370TIP3   OH237600   3.451   1.973   0.645  0.0502  0.5002  0.2473
 5370TIP3    H137601   3.480   2.021   0.567 -0.7974  0.1209 -0.3148
 5370TIP3    H237602   3.356   1.967   0.636  0.1256 -1.4881  0.1378
 5371TIP3   OH237603   4.959   1.277  15.596 -0.2545  0.2347  0.2492
 5371TIP3    H137604   4.865   1.259  15.589 -0.2825  0.3463  0.3303
 5371TIP3    H237605   4.998   1.192  15.619 -0.5075  0.4757  1.6757
 5372TIP3   OH237606   4.456   5.085  11.761  0.4681  0.4146 -0.3378
 5372TIP3    H137607   4.393   5.144  11.802 -0.0407 -0.4534  0.1604
 5372TIP3    H237608   4.521   5.144  11.721  0.7737  1.3092  1.3735
 5373TIP3   OH237609   1.879   1.422  11.567 -0.1430  0.4224  0.6110
 5373TIP3    H137610   1.889   1.367  11.490  0.9763 -0.3874  1.3023
 5373TIP3    H237611   1.785   1.441  11.571 -0.3305 -0.1972 -0.4843
 5374TIP3   OH237612   0.419   5.523  13.318 -0.1004  0.2477  0.5217
 5374TIP3    H137613   0.436   5.442  13.269 -1.7532  0.3299 -0.2529
 5374TIP3    H237614   0.505   5.563  13.328  0.4770 -0.4984 -1.0654
 5375TIP3   OH237615   3.288   0.302  13.188  0.2077 -0.0742  0.1990
 5375TIP3    H137616   3.344   0.246  13.242 -2.5060 -0.2128  3.1356
 5375TIP3    H237617   3.228   0.242  13.145  0.2301  0.2881 -0.3451
 5376TIP3   OH237618   3.500   2.692   3.507 -0.1823  0.4638  0.2662
 5376TIP3    H137619   3.567   2.658   3.447 -1.7553  1.2451 -2.0265
 5376TIP3    H237620   3.457   2.613   3.541  0.2667  0.0185 -0.1761
 5377TIP3   OH237621   1.738   0.103  11.935 -0.5430 -0.3023 -0.2096
 5377TIP3    H137622   1.769   0.048  12.007  0.9639  0.2908 -0.3573
 5377TIP3    H237623   1.799   0.177  11.934 -0.2266 -0.5412 -2.4000
 5378TIP3   OH237624   0.971   4.541  11.356 -0.5430  0.3367  0.0733
 5378TIP3    H137625   0.886   4.556  11.313 -0.3569  1.9743  0.2054
 5378TIP3    H237626   1.016   4.479  11.299 -0.8470  1.3928 -1.3818
 5379TIP3   OH237627   2.279   3.833   3.060  0.2220 -0.1613 -0.5720
 5379TIP3    H137628   2.189   3.805   3.046  0.0128 -0.1307  0.6221
 5379TIP3    H237629   2.311   3.776   3.130  0.4293  1.2218  0.4964
 5380TIP3   OH237630   6.104   2.786  10.769 -0.5664  0.5493  0.5503
 5380TIP3    H137631   6.080   2.866  10.723  1.4358  0.8547 -0.0455
 5380TIP3    H237632   6.041   2.721  10.738 -2.8208  2.0151  1.7377
 5381TIP3   OH237633   6.200   1.383  13.901 -0.1700 -0.0340  0.0612
 5381TIP3    H137634   6.258   1.417  13.832 -0.0367  1.0475  0.6860
 5381TIP3    H237635   6.116   1.426  13.885 -0.7193 -1.2878 -0.5920
 5382TIP3   OH237636   3.676   5.982   5.844  0.6633  0.3125  0.1521
 5382TIP3    H137637   3.770   5.983   5.825  0.6155 -0.9363 -0.2559
 5382TIP3    H237638   3.640   6.054   5.793  1.2971  0.2771 -0.3556
 5383TIP3   OH237639   5.979   4.952  13.660  0.1595  0.1721 -0.5084
 5383TIP3    H137640   5.963   5.021  13.725 -0.5539 -1.5128  1.2174
 5383TIP3    H237641   6.073   4.938  13.663  0.1826  0.3844 -0.1005
 5384TIP3   OH237642   1.192   6.028   3.407 -0.0840  0.1286  0.9570
 5384TIP3    H137643   1.152   6.023   3.493  0.9279  0.8480  1.4996
 5384TIP3    H237644   1.174   5.944   3.366 -1.1509  0.0276  1.6029
 5385TIP3   OH237645   6.392   0.851   2.671 -0.3426 -0.4014  0.6720
 5385TIP3    H137646   6.354   0.820   2.589  1.0131 -0.6394  0.1164
 5385TIP3    H237647   6.321   0.901   2.712 -1.4011 -1.2038 -0.1078
 5386TIP3   OH237648   6.360   4.063  14.536  0.1091  0.1129 -0.2431
 5386TIP3    H137649   6.370   3.985  14.482  0.2038  0.0700 -0.1649
 5386TIP3    H237650   6.403   4.041  14.619  0.8447  0.5262 -0.5015
 5387TIP3   OH237651   0.963   3.725  14.396 -0.1462 -0.1806  0.4107
 5387TIP3    H137652   0.888   3.765  14.441  0.9317  1.0202  1.2109
 5387TIP3    H237653   0.924   3.683  14.319 -1.6932  0.0473  1.0219
 5388TIP3   OH237654   4.245   0.003   2.127  0.1621  0.1964 -0.1881
 5388TIP3    H137655   4.209   0.090   2.142 -0.1753 -0.0857  0.7135
 5388TIP3    H237656   4.179  -0.041   2.072 -0.9338 -0.3174  1.4543
 5389TIP3   OH237657   0.039   4.001  10.835 -0.5358  0.4338  0.2408
 5389TIP3    H137658  -0.017   4.078  10.839 -1.6305 -0.2173 -1.4189
 5389TIP3    H237659   0.002   3.947  10.765  1.4437 -0.6181 -0.0932
 5390TIP3   OH237660   1.773   2.528  11.168 -0.2123 -0.1943  0.0633
 5390TIP3    H137661   1.814   2.604  11.126 -2.2524 -0.0701 -1.8283
 5390TIP3    H237662   1.781   2.457  11.104  0.5350 -1.2853  1.3005
 5391TIP3   OH237663   4.374   4.835  11.673  0.3805  0.1874  0.4641
 5391TIP3    H137664   4.466   4.809  11.677 -0.1230 -1.6083  2.8121
 5391TIP3    H237665   4.371   4.920  11.716  1.2244  1.5152 -1.9315
 5392TIP3   OH237666   0.530   2.809  13.973  0.4209 -0.1340  0.2676
 5392TIP3    H137667   0.537   2.725  14.019 -1.3557 -2.1238 -2.8011
 5392TIP3    H237668   0.597   2.804  13.905  0.0791  0.8062 -0.1460
 5393TIP3   OH237669   4.104   3.508   4.471  0.4392 -0.4674  0.1654
 5393TIP3    H137670   4.117   3.472   4.559  0.7693  2.1289  1.2850
 5393TIP3    H237671   4.009   3.512   4.461  0.4002 -1.2215  0.1867
 5394TIP3   OH237672   1.638   1.079  12.907 -0.1518  0.5317 -0.4190
 5394TIP3    H137673   1.559   1.129  12.888 -1.9165 -1.6539  0.6417
 5394TIP3    H237674   1.633   1.003  12.848  2.1508  1.2374 -1.6260
 5395TIP3   OH237675   3.376   6.800  15.517  0.2591 -0.4891  0.2564
 5395TIP3    H137676   3.422   6.883  15.504  0.6188 -0.5397  1.1384
 5395TIP3    H237677   3.298   6.822  15.567  1.0417 -0.8482  1.6739
 5396TIP3   OH237678   5.460   5.053  12.592 -0.4321 -0.3174 -0.2380
 5396TIP3    H137679   5.526   5.064  12.660 -1.1393 -0.1430  0.4313
 5396TIP3    H237680   5.460   4.959  12.574  1.3156 -0.1071 -1.6067
 5397TIP3   OH237681   1.583   4.842  13.614 -0.0082 -0.0372 -0.1600
 5397TIP3    H137682   1.631   4.917  13.648 -0.2696  1.1216 -2.1582
 5397TIP3    H237683   1.649   4.773  13.604  0.5755  0.4797  0.1058
 5398TIP3   OH237684   0.406   2.572   0.876 -0.3108  0.8286  0.0504
 5398TIP3    H137685   0.447   2.607   0.797 -0.4547  0.3132 -0.2554
 5398TIP3    H237686   0.351   2.500   0.846  0.5417 -0.1464  0.7413
 5399TIP3   OH237687   0.931   2.009  16.394 -0.1234 -0.1382 -0.4340
 5399TIP3    H137688   0.891   1.964  16.320 -1.3435 -0.3215  0.3241
 5399TIP3    H237689   0.922   2.102  16.373 -2.8709 -0.0745  0.6360
 5400TIP3   OH237690   0.353   1.820  11.686  0.3895 -0.3977  0.2486
 5400TIP3    H137691   0.268   1.865  11.684 -0.8435 -2.5866 -0.2273
 5400TIP3    H237692   0.357   1.783  11.774  1.6105  0.9595  0.7969
 5401TIP3   OH237693   5.021   2.267  15.844  0.5851  0.2693  0.0366
 5401TIP3    H137694   5.034   2.361  15.835  0.0961  0.5249  1.7220
 5401TIP3    H237695   5.092   2.238  15.901  1.7082 -0.7018 -1.7735
 5402TIP3   OH237696   0.132   0.892   1.380 -0.1595 -0.2901 -0.2515
 5402TIP3    H137697   0.155   0.939   1.299  1.5139  0.5207  0.6253
 5402TIP3    H237698   0.109   0.962   1.442 -2.4582 -0.9592 -0.2781
 5403TIP3   OH237699   1.318   4.114  16.014  0.4511 -0.2309 -0.8614
 5403TIP3    H137700   1.275   4.200  16.022 -0.6149 -0.6880 -1.4414
 5403TIP3    H237701   1.284   4.063  16.087  0.3277 -0.4617 -1.0780
 5404TIP3   OH237702   1.497   5.421   6.010  0.1083  0.3540  0.1350
 5404TIP3    H137703   1.448   5.447   6.089 -0.8136 -0.0894 -0.2803
 5404TIP3    H237704   1.474   5.329   5.997  3.0492 -0.6541  1.3711
 5405TIP3   OH237705   5.236   0.307  16.665  0.0015 -0.2440 -0.0739
 5405TIP3    H137706   5.174   0.357  16.612  1.0029 -0.0846 -1.1203
 5405TIP3    H237707   5.307   0.368  16.685 -0.4043 -0.2689  1.5789
 5406TIP3   OH237708   4.388   3.466  14.845  0.2393  0.4345 -0.0218
 5406TIP3    H137709   4.391   3.383  14.892 -1.0659 -0.3701 -1.2751
 5406TIP3    H237710   4.356   3.443  14.757 -0.1196  2.2495 -0.4127
 5407TIP3   OH237711   1.199   0.116  14.997 -0.2608 -0.8109  0.2433
 5407TIP3    H137712   1.269   0.165  14.953 -1.2112  0.0521 -0.3574
 5407TIP3    H237713   1.243   0.040  15.035  0.9963 -0.3006 -0.1364
 5408TIP3   OH237714   1.853   3.966  11.955  0.0682  0.0349 -0.5632
 5408TIP3    H137715   1.805   3.898  12.001 -0.7453  1.4743  0.8111
 5408TIP3    H237716   1.945   3.948  11.973 -0.1221 -0.8170 -0.4086
 5409TIP3   OH237717   2.337   3.276  13.596  0.2849  0.1737  0.0129
 5409TIP3    H137718   2.332   3.186  13.565  0.0051  0.2748 -0.2356
 5409TIP3    H237719   2.248   3.297  13.624  0.2009  0.5916 -0.5536
 5410TIP3   OH237720   1.436   4.667  11.666 -0.0085 -0.0552  0.2577
 5410TIP3    H137721   1.507   4.655  11.729 -1.7669 -0.0321  2.3756
 5410TIP3    H237722   1.364   4.702  11.718 -1.1400  1.3406 -2.0891
 5411TIP3   OH237723   0.888   1.626  10.769 -0.1870  0.1710  0.7533
 5411TIP3    H137724   0.843   1.660  10.692  0.4931 -0.9082 -0.1544
 5411TIP3    H237725   0.952   1.693  10.791 -0.0573  0.2802  0.0647
 5412TIP3   OH237726   6.155   3.287   3.066 -0.0491 -0.1638  0.2661
 5412TIP3    H137727   6.154   3.271   3.161  0.2338 -3.3117 -0.1377
 5412TIP3    H237728   6.239   3.331   3.051  1.2302 -2.0685  1.2638
 5413TIP3   OH237729   5.344   2.066   1.089  0.2331  0.5596  0.0612
 5413TIP3    H137730   5.255   2.100   1.089  0.5711  1.4730  0.5714
 5413TIP3    H237731   5.394   2.128   1.036  0.6738  0.3603  0.2384
 5414TIP3   OH237732   4.676   2.980  15.434 -0.4822 -0.1513 -0.2541
 5414TIP3    H137733   4.756   2.955  15.480 -0.0232  0.7146 -0.5434
 5414TIP3    H237734   4.623   2.901  15.432  0.7865 -1.0308 -0.9070
 5415TIP3   OH237735   4.039   1.210   2.770 -0.0669 -0.3101 -0.0432
 5415TIP3    H137736   4.125   1.183   2.740  0.3838  0.3952  0.5587
 5415TIP3    H237737   3.995   1.129   2.796 -0.1480 -0.8282 -1.7317
 5416TIP3   OH237738   1.873   1.451  14.712 -0.3399 -0.0807  0.0544
 5416TIP3    H137739   1.900   1.386  14.647  0.8519  0.4597  0.0012
 5416TIP3    H237740   1.937   1.521  14.705 -1.5372  1.0659  0.2039
 5417TIP3   OH237741   3.280   5.006   2.455  0.4592 -0.2890 -0.3490
 5417TIP3    H137742   3.295   5.046   2.540  0.7206 -0.2031 -0.4365
 5417TIP3    H237743   3.202   4.952   2.468  0.6531 -0.4846  0.0164
 5418TIP3   OH237744   2.921   6.681   3.513  0.0949  0.0160  0.0822
 5418TIP3    H137745   2.862   6.622   3.467 -0.0419 -0.6567  1.0932
 5418TIP3    H237746   2.864   6.734   3.568  0.2748  0.6965 -0.3680
 5419TIP3   OH237747   2.521   0.752  15.130  0.1684 -0.0885  0.0118
 5419TIP3    H137748   2.452   0.685  15.126 -1.7976  1.8369  0.0818
 5419TIP3    H237749   2.573   0.728  15.207 -1.2092 -0.8778  0.7250
 5420TIP3   OH237750   4.632   3.240  15.398 -0.5049 -0.2082 -0.1510
 5420TIP3    H137751   4.605   3.300  15.467  0.7254  0.4675 -0.2252
 5420TIP3    H237752   4.615   3.153  15.434 -2.8082  0.1518 -0.2460
 5421TIP3   OH237753   0.220   5.060   2.252 -0.1283  0.2542 -0.1724
 5421TIP3    H137754   0.146   5.089   2.305 -1.7554 -1.1812 -1.5509
 5421TIP3    H237755   0.251   5.140   2.208 -1.6505  0.6799 -0.5121
 5422TIP3   OH237756   0.841   5.657   2.135  0.6901 -0.7040  0.0810
 5422TIP3    H137757   0.857   5.722   2.204 -0.6063 -0.2471 -0.0062
 5422TIP3    H237758   0.832   5.574   2.181 -0.2025 -0.3949  0.4970
 5423TIP3   OH237759   2.470   3.834   4.767  0.0659 -0.0784  0.0721
 5423TIP3    H137760   2.549   3.887   4.768  0.3851 -0.3664 -2.5582
 5423TIP3    H237761   2.500   3.744   4.783  0.1494 -0.0760 -0.0750
 5424TIP3   OH237762   0.934   6.359  13.563 -0.0438 -0.2107  0.2127
 5424TIP3    H137763   0.939   6.264  13.573 -0.1088 -0.2460 -0.1008
 5424TIP3    H237764   1.025   6.388  13.575  0.2926 -0.4800 -1.4148
 5425TIP3   OH237765   3.044   0.476   4.941  0.1537  0.4741  0.2687
 5425TIP3    H137766   2.966   0.429   4.973  0.5183 -1.6095 -1.6595
 5425TIP3    H237767   3.117   0.417   4.961  0.9128  1.1718 -0.3943
 5426TIP3   OH237768   3.986   2.019  11.810  0.7484  0.1298  0.5231
 5426TIP3    H137769   3.997   2.093  11.750  1.0347 -0.4647 -0.1639
 5426TIP3    H237770   3.915   2.046  11.868 -0.7254  0.0184 -1.1684
 5427TIP3   OH237771   5.114   6.157  11.353 -0.7127  0.1694 -0.8996
 5427TIP3    H137772   5.137   6.074  11.395  1.6634  0.9667 -0.4931
 5427TIP3    H237773   5.068   6.206  11.421 -3.5784 -1.2959 -1.6004
 5428TIP3   OH237774   3.878   0.957   1.754  0.4539 -0.5221  0.1047
 5428TIP3    H137775   3.947   0.901   1.791  0.0716 -1.4242 -0.4954
 5428TIP3    H237776   3.807   0.896   1.734  0.1009  0.1625 -0.7788
 5429TIP3   OH237777   4.459   1.363   1.845  0.0114  0.3437 -0.0831
 5429TIP3    H137778   4.423   1.438   1.798 -0.1284  1.9318  2.3504
 5429TIP3    H237779   4.533   1.399   1.894 -0.9585 -0.6949  2.3239
 5430TIP3   OH237780   1.268   3.643   3.147 -0.3697  0.4124 -0.0199
 5430TIP3    H137781   1.219   3.726   3.156 -0.6777  0.1251  1.1808
 5430TIP3    H237782   1.359   3.670   3.142 -0.5165  0.8627 -0.4157
 5431TIP3   OH237783   1.426   5.090  16.250 -0.3697 -0.0567 -0.1570
 5431TIP3    H137784   1.390   5.175  16.274  0.9248  0.1115  1.3980
 5431TIP3    H237785   1.499   5.110  16.193 -2.3298 -0.3774 -2.9652
 5432TIP3   OH237786   6.750   1.374  17.021  0.0012  0.0444  0.2073
 5432TIP3    H137787   6.687   1.429  16.974 -1.1052  1.4079  3.0443
 5432TIP3    H237788   6.697   1.302  17.056  1.0472 -1.7037 -1.6290
 5433TIP3   OH237789   4.842   5.541   4.075 -0.1927  0.5029  0.3682
 5433TIP3    H137790   4.877   5.478   4.139  1.5382  0.9003 -0.1484
 5433TIP3    H237791   4.828   5.489   3.996  1.6920  0.7898 -0.2106
 5434TIP3   OH237792   0.791   1.256   2.338  0.3904  0.6455 -0.0482
 5434TIP3    H137793   0.762   1.218   2.420  1.6994 -1.1444 -0.3560
 5434TIP3    H237794   0.738   1.214   2.271  1.4663 -0.3143 -0.3418
 5435TIP3   OH237795   0.547   6.762   2.640 -0.2011 -0.7732  0.1404
 5435TIP3    H137796   0.503   6.706   2.576 -0.8451  1.0905 -1.1523
 5435TIP3    H237797   0.483   6.773   2.710 -1.2597  0.6279 -0.9770
 5436TIP3   OH237798   5.362   6.327  12.145  0.1201  0.0047 -0.0698
 5436TIP3    H137799   5.293   6.390  12.121 -0.4846 -0.7841 -0.4574
 5436TIP3    H237800   5.440   6.358  12.098 -0.8992 -1.2150 -2.8032
 5437TIP3   OH237801   0.732   4.953   1.107 -1.2077 -0.1009 -0.2771
 5437TIP3    H137802   0.637   4.965   1.096 -1.0733  0.8835 -0.4302
 5437TIP3    H237803   0.763   5.037   1.140 -0.4156 -0.4989  0.0058
 5438TIP3   OH237804   2.076   5.363   4.085 -0.1093 -0.9127 -0.5231
 5438TIP3    H137805   2.062   5.275   4.120  0.4999 -0.2973  1.4185
 5438TIP3    H237806   2.171   5.372   4.081 -0.1271  0.0631  0.5289
 5439TIP3   OH237807   4.467   3.087   3.090 -0.8595 -0.1502  0.0925
 5439TIP3    H137808   4.389   3.141   3.080 -1.4342 -0.9760  0.0118
 5439TIP3    H237809   4.434   3.001   3.116  0.1200 -0.1177  1.5772
 5440TIP3   OH237810   4.293   3.407  14.590 -0.0802 -0.1707 -0.7137
 5440TIP3    H137811   4.259   3.496  14.594  0.0998  0.1037 -3.2857
 5440TIP3    H237812   4.334   3.401  14.503 -0.7902 -2.9805 -0.9679
 5441TIP3   OH237813   5.409   3.980  13.735  0.0464 -0.3416 -0.2556
 5441TIP3    H137814   5.413   4.057  13.679 -0.6373  0.4205  0.7042
 5441TIP3    H237815   5.436   4.012  13.821  0.8230 -1.4252 -0.0725
 5442TIP3   OH237816   3.434   5.273  14.219 -0.1243 -0.2027 -0.4703
 5442TIP3    H137817   3.454   5.251  14.128  1.1768  1.2021 -0.5607
 5442TIP3    H237818   3.484   5.353  14.236 -0.8336 -0.0909  1.2958
 5443TIP3   OH237819   2.512   6.557   3.542  0.4747  0.2853  0.3664
 5443TIP3    H137820   2.577   6.508   3.491  0.0060 -0.6883  0.6821
 5443TIP3    H237821   2.539   6.648   3.534 -0.3906  0.3908 -2.8990
 5444TIP3   OH237822   1.347   4.550  14.700  0.0014 -0.1702 -0.2111
 5444TIP3    H137823   1.356   4.630  14.753  1.3577  0.6408 -1.6108
 5444TIP3    H237824   1.310   4.486  14.761  0.1710  1.1262  1.3330
 5445TIP3   OH237825   4.641   5.365   5.456  0.4588 -0.3997  0.0271
 5445TIP3    H137826   4.592   5.290   5.422  1.7234 -1.0043 -0.5742
 5445TIP3    H237827   4.724   5.327   5.486  0.9993  0.7165 -0.0090
 5446TIP3   OH237828   2.206   4.926  12.922  0.7380  0.0493  0.4121
 5446TIP3    H137829   2.215   4.964  13.009  0.4539  1.5559 -0.1831
 5446TIP3    H237830   2.215   5.001  12.862  2.2599 -1.1277 -0.9255
 5447TIP3   OH237831   2.104   5.542   4.426 -0.8474 -0.5884 -0.2825
 5447TIP3    H137832   2.151   5.585   4.355 -0.2668 -0.2496  0.2989
 5447TIP3    H237833   2.138   5.453   4.427 -0.5171 -0.4627 -0.1364
 5448TIP3   OH237834   4.438   1.895  11.336  0.1708 -0.4688  0.5527
 5448TIP3    H137835   4.476   1.978  11.309  0.1460 -0.3453  0.8976
 5448TIP3    H237836   4.348   1.916  11.361  0.8869 -0.0898  3.1759
 5449TIP3   OH237837   2.368   0.625  11.350  0.4548  0.1177 -0.0304
 5449TIP3    H137838   2.304   0.696  11.343  1.6289  1.2489  0.3848
 5449TIP3    H237839   2.383   0.598  11.260  0.0368  0.4352 -0.2002
 5450TIP3   OH237840   0.340   3.103  12.530 -0.0383 -0.1918 -0.0995
 5450TIP3    H137841   0.282   3.149  12.591 -0.9784 -1.3476 -0.0950
 5450TIP3    H237842   0.365   3.023  12.576  0.8678 -0.1252 -0.4586
 5451TIP3   OH237843   4.369   4.618   3.054  0.0184 -0.1743  0.0832
 5451TIP3    H137844   4.448   4.672   3.055  0.1684 -0.3906  0.7592
 5451TIP3    H237845   4.396   4.535   3.016  0.6193 -0.9478  2.0769
 5452TIP3   OH237846   2.507   1.781   0.149 -0.8622  0.0416  0.4618
 5452TIP3    H137847   2.529   1.696   0.187  1.1691  0.5260  0.4636
 5452TIP3    H237848   2.478   1.760   0.060 -2.6192 -0.8196  1.1928
 5453TIP3   OH237849   3.165   4.098   1.035  0.2396  0.5765  0.3023
 5453TIP3    H137850   3.178   4.020   0.981 -0.3671  0.9674 -0.4288
 5453TIP3    H237851   3.214   4.080   1.115  1.0348 -0.0752 -0.3161
 5454TIP3   OH237852   4.218   5.350  14.615 -0.0030  0.3467 -0.0409
 5454TIP3    H137853   4.313   5.360  14.607  0.1335 -0.9119 -0.2162
 5454TIP3    H237854   4.197   5.387  14.701  1.0819 -1.9297  1.2960
 5455TIP3   OH237855   0.700   6.707   3.804  0.6849 -0.0407  0.2670
 5455TIP3    H137856   0.748   6.627   3.825  0.1055 -0.5627 -0.3224
 5455TIP3    H237857   0.640   6.719   3.877  0.1934 -0.6235 -0.0320
 5456TIP3   OH237858   5.470   4.397   1.445  0.4293 -0.6747 -0.4466
 5456TIP3    H137859   5.509   4.480   1.473 -0.4033 -0.7629  1.0317
 5456TIP3    H237860   5.518   4.330   1.493 -0.1390 -0.9240 -0.2210
 5457TIP3   OH237861   2.515   1.951   4.240  0.4716  0.2440 -0.4270
 5457TIP3    H137862   2.563   1.995   4.310 -0.3465 -0.6060  0.7163
 5457TIP3    H237863   2.510   1.860   4.269 -2.0297  0.3424 -0.3604
 5458TIP3   OH237864   3.595   2.760   5.712 -0.2753  0.3359  0.0571
 5458TIP3    H137865   3.542   2.817   5.768 -0.9826  0.5632 -0.8094
 5458TIP3    H237866   3.633   2.696   5.771 -0.6862  0.8036  0.8418
 5459TIP3   OH237867   5.975   1.541   5.920 -0.2874 -0.1589 -0.0198
 5459TIP3    H137868   6.014   1.614   5.872 -0.4128 -0.1971 -0.1814
 5459TIP3    H237869   6.028   1.465   5.894  1.9815  0.3457  2.6396
 5460TIP3   OH237870   5.786   6.721   2.017 -0.4951  0.2378 -0.8335
 5460TIP3    H137871   5.753   6.691   1.932 -0.3893 -0.4002 -0.6548
 5460TIP3    H237872   5.708   6.753   2.063 -0.6522  0.0167 -0.9437
 5461TIP3   OH237873   1.198   5.285  16.135  0.2156 -0.8904  0.3776
 5461TIP3    H137874   1.146   5.225  16.081 -0.1122 -2.1981  2.0628
 5461TIP3    H237875   1.281   5.293  16.088 -1.4104  1.3181 -2.4160
 5462TIP3   OH237876   5.979   2.325  11.741  0.1248 -0.5556 -0.0690
 5462TIP3    H137877   5.887   2.304  11.729 -0.0158 -0.5890  0.9772
 5462TIP3    H237878   6.020   2.304  11.657 -0.5649 -1.9245 -0.0897
 5463TIP3   OH237879   4.766   0.986  16.088 -0.6489  0.0904 -0.4155
 5463TIP3    H137880   4.800   1.040  16.159  1.9499 -0.7971 -0.9057
 5463TIP3    H237881   4.696   0.934  16.129  0.0248  0.3946  1.1943
 5464TIP3   OH237882   3.213   4.830  15.367  0.4159  0.0330  0.1009
 5464TIP3    H137883   3.165   4.898  15.414  0.5808 -0.0746  0.4248
 5464TIP3    H237884   3.153   4.802  15.297  0.0879  0.0428  0.3764
 5465TIP3   OH237885   4.610   0.723  11.986  0.1957 -0.1604 -0.3511
 5465TIP3    H137886   4.686   0.693  11.936  0.6104 -2.0743  1.3175
 5465TIP3    H237887   4.641   0.728  12.077 -1.3204  0.3323  0.1726
 5466TIP3   OH237888   2.975   1.224  15.254  0.1173 -0.0279  0.1814
 5466TIP3    H137889   3.062   1.246  15.286  0.3581 -1.6679  0.7265
 5466TIP3    H237890   2.953   1.142  15.297 -1.3945 -0.0428 -0.5309
 5467TIP3   OH237891   5.015   1.412   1.156 -0.2255 -0.0542  0.4671
 5467TIP3    H137892   5.047   1.324   1.174  0.3843  0.0851  0.0978
 5467TIP3    H237893   4.969   1.405   1.072  0.6585  0.1680 -0.0458
 5468TIP3   OH237894   2.550   1.622   0.912  0.1688  0.1417 -0.2919
 5468TIP3    H137895   2.528   1.715   0.900 -1.5606 -0.2561 -0.4523
 5468TIP3    H237896   2.493   1.592   0.982  1.8711 -0.4446  0.9014
 5469TIP3   OH237897   3.939   6.719  14.082  0.1179 -0.0283  0.3015
 5469TIP3    H137898   4.010   6.663  14.050 -1.2746 -1.5213 -0.3207
 5469TIP3    H237899   3.944   6.797  14.028 -0.1266 -1.1251 -1.4007
 5470TIP3   OH237900   6.689   2.855   0.154  0.2084 -0.1540  0.6984
 5470TIP3    H137901   6.649   2.866   0.240 -0.5470 -1.2847  0.5155
 5470TIP3    H237902   6.776   2.893   0.163  0.8170 -1.8274  2.5070
 5471TIP3   OH237903   4.299   6.371  14.849  0.0475 -0.2747 -0.0078
 5471TIP3    H137904   4.315   6.421  14.769 -0.8006  1.6158  0.9218
 5471TIP3    H237905   4.358   6.409  14.914  0.0029 -1.0892  0.5277
 5472TIP3   OH237906   4.652   2.095   0.080 -0.1819  0.3227 -0.0959
 5472TIP3    H137907   4.741   2.124   0.060  0.6602 -0.7885  1.7724
 5472TIP3    H237908   4.651   2.003   0.053 -1.2661  0.7022 -1.4572
 5473TIP3   OH237909   4.470   1.863  12.361 -0.1623  0.1591  0.0522
 5473TIP3    H137910   4.405   1.864  12.431 -1.1732 -0.6250 -0.8435
 5473TIP3    H237911   4.433   1.919  12.293  2.5658  4.1981  1.5630
 5474TIP3   OH237912   5.112   2.405  16.617 -0.3372 -0.1736  0.2708
 5474TIP3    H137913   5.086   2.324  16.659 -0.5660 -0.2864 -0.0829
 5474TIP3    H237914   5.196   2.385  16.575 -0.8505 -0.5062 -0.6195
 5475TIP3   OH237915   6.580   4.329   5.604  0.8070  0.0481 -0.1696
 5475TIP3    H137916   6.501   4.383   5.609  0.3692 -0.6544  0.8399
 5475TIP3    H237917   6.609   4.321   5.695  1.7217 -0.1741 -0.4729
 5476TIP3   OH237918   5.931   3.074  16.700 -0.1302 -0.4095 -0.5080
 5476TIP3    H137919   5.980   3.096  16.780  2.2998 -0.7143 -1.8081
 5476TIP3    H237920   5.942   2.979  16.692  0.3809 -0.2662 -1.6212
 5477TIP3   OH237921   2.634   2.304  12.591 -0.2422  0.0277  0.2827
 5477TIP3    H137922   2.647   2.296  12.685 -1.2165  1.5520  0.5869
 5477TIP3    H237923   2.709   2.354  12.560 -0.8751  1.2151  0.5978
 5478TIP3   OH237924   1.384   1.600  15.404  0.4016 -0.0323 -0.4173
 5478TIP3    H137925   1.313   1.622  15.464  0.8200  2.4781 -0.7512
 5478TIP3    H237926   1.393   1.676  15.348  1.6503 -1.3475 -2.1160
 5479TIP3   OH237927   4.072   4.903   0.721  0.2640 -0.8445 -0.3034
 5479TIP3    H137928   4.168   4.908   0.716  0.2143 -0.8480 -1.5881
 5479TIP3    H237929   4.042   4.949   0.642 -0.8369  0.6046  0.9064
 5480TIP3   OH237930   0.862   4.811   3.263 -0.4298 -0.1401  0.1616
 5480TIP3    H137931   0.912   4.804   3.345 -1.6669 -0.6287  0.9056
 5480TIP3    H237932   0.804   4.886   3.277  0.2208  0.5564 -0.7757
 5481TIP3   OH237933   6.016   3.498  11.898  0.3097  0.7009 -0.3709
 5481TIP3    H137934   5.982   3.409  11.908  1.5452  0.1612 -0.7052
 5481TIP3    H237935   5.940   3.552  11.880 -0.5302 -0.2039  0.3687
 5482TIP3   OH237936   0.557   1.230  16.549  0.0310  0.5352  0.4904
 5482TIP3    H137937   0.482   1.283  16.523  1.4235  3.2496  1.5876
 5482TIP3    H237938   0.630   1.291  16.552  2.0374 -1.7027  0.8193
 5483TIP3   OH237939   3.393   0.356  13.553 -0.2886  0.1168 -0.4195
 5483TIP3    H137940   3.302   0.352  13.524  0.3342  1.4531 -2.7742
 5483TIP3    H237941   3.387   0.374  13.647 -2.4305 -0.4572 -0.3899
 5484TIP3   OH237942   1.628   4.151  10.900  0.4834 -0.6885  0.0535
 5484TIP3    H137943   1.607   4.243  10.918  1.7797 -0.5394  0.9084
 5484TIP3    H237944   1.543   4.106  10.904  0.0571  0.1704  1.4928
 5485TIP3   OH237945   3.597   5.205  11.637 -0.4261  0.3721 -0.0227
 5485TIP3    H137946   3.511   5.189  11.599 -0.3166  0.3306 -0.2544
 5485TIP3    H237947   3.657   5.202  11.562 -0.0076 -1.2607  0.3335
 5486TIP3   OH237948   1.016   1.464  16.229  0.1357 -0.0096 -0.3407
 5486TIP3    H137949   1.075   1.540  16.229  2.2137 -1.5389  0.1769
 5486TIP3    H237950   0.989   1.455  16.138 -1.3096  2.1428 -0.2002
 5487TIP3   OH237951   2.323   3.806  16.949 -0.2998 -0.0116  0.1471
 5487TIP3    H137952   2.236   3.775  16.925 -0.3581  0.8019 -0.7644
 5487TIP3    H237953   2.382   3.756  16.892 -0.3274  0.8057 -0.6285
 5488TIP3   OH237954   0.076   5.225   1.279 -0.4941 -0.0727 -0.2953
 5488TIP3    H137955   0.084   5.195   1.188 -2.9403 -1.2320 -0.2083
 5488TIP3    H237956   0.002   5.175   1.314  0.5158  0.1873  2.4282
 5489TIP3   OH237957   2.929   5.317  13.429  0.3830  0.1030 -0.2447
 5489TIP3    H137958   2.851   5.365  13.403  0.6476  0.8620  0.3404
 5489TIP3    H237959   2.901   5.264  13.504  1.0059  2.3187  1.6631
 5490TIP3   OH237960   1.738   2.565   0.410  0.6060  0.0231  0.0795
 5490TIP3    H137961   1.681   2.493   0.437 -0.8362  1.3233  0.6655
 5490TIP3    H237962   1.815   2.557   0.468 -0.2733 -0.0886  1.2723
 5491TIP3   OH237963   1.718   4.100   0.196 -0.1652  0.7768  0.3791
 5491TIP3    H137964   1.670   4.084   0.277 -2.0710 -0.4696 -0.9087
 5491TIP3    H237965   1.699   4.023   0.142  0.7803  1.7294 -1.3877
 5492TIP3   OH237966   5.556   5.372  15.902  0.4364  0.5425  0.1612
 5492TIP3    H137967   5.560   5.336  15.991  1.8948 -1.2029 -0.5478
 5492TIP3    H237968   5.469   5.347  15.871  0.5219 -0.2740  0.5425
 5493TIP3   OH237969   1.159   2.866   0.677  0.6676 -0.1845  0.1613
 5493TIP3    H137970   1.124   2.793   0.728 -0.5845  0.7488  0.6801
 5493TIP3    H237971   1.149   2.839   0.586 -0.1924 -0.4894  0.3391
 5494TIP3   OH237972   3.177   2.163  12.377  0.1552  0.4409 -0.0403
 5494TIP3    H137973   3.081   2.155  12.377  0.1556  0.0604 -1.8426
 5494TIP3    H237974   3.205   2.116  12.456 -1.0639 -0.5476 -0.1625
 5495TIP3   OH237975   1.443   0.789  11.958 -0.2110  0.0617  0.4803
 5495TIP3    H137976   1.527   0.753  11.985 -0.1533  0.7557  1.2885
 5495TIP3    H237977   1.461   0.834  11.876 -0.0878 -0.9353 -0.0374
 5496TIP3   OH237978   0.434   2.637  16.512 -0.8837 -0.1862  0.0909
 5496TIP3    H137979   0.460   2.727  16.531  0.1987  0.0139 -1.9880
 5496TIP3    H237980   0.340   2.643  16.494 -0.9674  0.3884  0.7057
 5497TIP3   OH237981   4.612   1.577   6.985 -0.7582  0.0930 -0.3907
 5497TIP3    H137982   4.664   1.496   6.983  1.2125  1.3035 -0.8788
 5497TIP3    H237983   4.538   1.559   6.928 -0.5554 -1.4984 -0.1926
 5498TIP3   OH237984   0.763   4.948  13.640 -0.0729  0.0921 -0.9686
 5498TIP3    H137985   0.696   4.881  13.624  0.4049 -0.6930  0.1615
 5498TIP3    H237986   0.803   4.922  13.723 -0.1890  2.0529 -0.2581
 5499TIP3   OH237987   0.717   0.826   5.797 -0.7649  0.0152  0.2165
 5499TIP3    H137988   0.672   0.827   5.713 -1.8631  2.0192  0.7702
 5499TIP3    H237989   0.676   0.896   5.847  0.3070 -0.6960  2.2013
 5500TIP3   OH237990   2.543   3.720   0.450  0.3177 -0.0279 -0.6566
 5500TIP3    H137991   2.478   3.741   0.383 -0.4242  0.3606  0.1678
 5500TIP3    H237992   2.499   3.658   0.508  1.7360 -2.2904 -1.8262
 5501TIP3   OH237993   3.204   0.600  11.576  0.0870  0.3607 -0.0199
 5501TIP3    H137994   3.219   0.685  11.536 -1.2848  0.7036  0.1619
 5501TIP3    H237995   3.202   0.539  11.502  0.5535  0.5491 -0.1920
 5502TIP3   OH237996   1.932   5.227   5.846  0.5573 -0.3712 -0.6002
 5502TIP3    H137997   1.986   5.223   5.925 -1.3497  0.4172  0.8063
 5502TIP3    H237998   1.853   5.178   5.868  0.1683 -0.5259 -2.2024
 5503TIP3   OH237999   1.991   0.051  14.126  0.0099  0.3990 -0.2790
 5503TIP3    H138000   1.922   0.042  14.193  0.3006  1.5999  0.1992
 5503TIP3    H238001   1.949   0.101  14.056 -0.3208 -0.9341 -1.0613
 5504TIP3   OH238002   0.354   3.040   0.111 -0.4510 -0.0245  0.4939
 5504TIP3    H138003   0.324   3.088   0.034 -1.3966 -2.6951 -0.9129
 5504TIP3    H238004   0.445   3.068   0.122  0.2447 -0.6685 -2.6025
 5505TIP3   OH238005   1.740   2.366   0.202  0.0060 -0.1245  0.0856
 5505TIP3    H138006   1.675   2.429   0.231  0.7892  1.6499 -1.7543
 5505TIP3    H238007   1.799   2.355   0.277 -0.3010  1.1478  0.5333
 5506TIP3   OH238008   4.340   4.173  13.751 -0.0585  0.1000 -0.0609
 5506TIP3    H138009   4.291   4.244  13.793  0.2876  0.1012  0.3484
 5506TIP3    H238010   4.408   4.218  13.701  0.4702  0.0448  0.5950
 5507TIP3   OH238011   2.874   2.823  16.208 -0.6377 -0.2350  0.2458
 5507TIP3    H138012   2.783   2.849  16.196 -0.1528  0.5736 -2.1156
 5507TIP3    H238013   2.870   2.731  16.233 -2.0894 -0.3250 -0.2613
 5508TIP3   OH238014   1.531   2.695  14.914  0.1500  0.2251  0.3271
 5508TIP3    H138015   1.554   2.750  14.989  0.4577  0.6380 -0.0654
 5508TIP3    H238016   1.502   2.612  14.953  2.1412 -0.2699  0.8807
 5509TIP3   OH238017   3.764   3.029  13.993  0.3800  0.4512 -0.2419
 5509TIP3    H138018   3.800   3.045  13.906 -2.0418  1.0438 -1.2109
 5509TIP3    H238019   3.722   3.112  14.017 -1.2483 -0.4947  0.3145
 5510TIP3   OH238020   5.586   0.198  16.831  0.9245  0.3306  0.5935
 5510TIP3    H138021   5.522   0.129  16.845 -0.2890  1.4289  0.6139
 5510TIP3    H238022   5.554   0.272  16.883  1.1945  1.5100 -0.8418
 5511TIP3   OH238023   5.118   3.077  14.580  0.4785 -0.2260  0.4282
 5511TIP3    H138024   5.106   3.039  14.492  0.1061 -0.9658  0.7868
 5511TIP3    H238025   5.213   3.088  14.588  0.4411  1.0858 -0.5615
 5512TIP3   OH238026   2.504   4.732  15.946  0.4213  0.0444 -0.2739
 5512TIP3    H138027   2.423   4.694  15.979 -1.0170  0.5309 -2.9800
 5512TIP3    H238028   2.480   4.820  15.918  1.4389 -0.3067 -2.5337
 5513TIP3   OH238029   1.521   4.483  14.483  0.8813  0.5051  0.3064
 5513TIP3    H138030   1.599   4.538  14.491  1.3096 -0.0426 -0.0041
 5513TIP3    H238031   1.465   4.510  14.555  2.1407 -0.3293  1.6545
 5514TIP3   OH238032   0.668   3.030  11.746  0.2183 -0.1463  0.4814
 5514TIP3    H138033   0.576   3.012  11.732  0.7385 -2.7670 -0.0026
 5514TIP3    H238034   0.669   3.107  11.804 -2.3719 -2.0909  3.4412
 5515TIP3   OH238035   1.033   6.540   0.230 -0.4189 -0.0484  0.2207
 5515TIP3    H138036   1.048   6.522   0.323 -1.5536 -2.1831  0.0650
 5515TIP3    H238037   1.120   6.548   0.192  0.0720 -0.0195  1.3261
 5516TIP3   OH238038   2.909   0.341  16.158  0.3657  0.0054 -0.1119
 5516TIP3    H138039   2.954   0.394  16.092  0.1505  0.5062  0.1366
 5516TIP3    H238040   2.819   0.373  16.157  0.1831 -0.4991 -0.0978
 5517TIP3   OH238041   5.588   0.446  17.030 -0.3760  0.5080 -0.1694
 5517TIP3    H138042   5.614   0.525  16.983 -1.8163  1.8688  1.1816
 5517TIP3    H238043   5.492   0.449  17.029 -0.4507 -1.1503  0.0555
 5518TIP3   OH238044   1.878   1.549   2.322 -0.0353 -0.0273 -0.0019
 5518TIP3    H138045   1.897   1.573   2.232  1.9667  1.1430  0.6872
 5518TIP3    H238046   1.868   1.632   2.368  0.2381 -0.5791  1.0920
 5519TIP3   OH238047   5.256   2.579  11.203 -0.3475 -0.0547 -0.2711
 5519TIP3    H138048   5.161   2.581  11.201 -0.3317  1.0670 -0.4341
 5519TIP3    H238049   5.279   2.591  11.295 -0.3494  0.4010 -0.3322
 5520TIP3   OH238050   2.511   2.692   2.680 -0.2807 -0.4086 -0.1056
 5520TIP3    H138051   2.470   2.684   2.765  0.9973  1.7804  0.7999
 5520TIP3    H238052   2.581   2.626   2.680 -2.1042 -2.4851 -0.7334
 5521TIP3   OH238053   5.557   1.843  11.475  0.5196  0.6778  0.1583
 5521TIP3    H138054   5.599   1.873  11.555  0.0534 -0.7772  0.9846
 5521TIP3    H238055   5.468   1.880  11.479  0.1035 -0.3579  0.9328
 5522TIP3   OH238056   4.180   1.160  13.066  0.7472 -0.2847 -0.0253
 5522TIP3    H138057   4.176   1.196  12.977  0.1729 -0.2122  0.0301
 5522TIP3    H238058   4.258   1.103  13.065  1.8120  1.1291 -0.0309
 5523TIP3   OH238059   3.551   6.659  14.644 -0.5144 -0.1922 -0.0188
 5523TIP3    H138060   3.626   6.645  14.585  0.3872 -1.6385  1.4110
 5523TIP3    H238061   3.550   6.754  14.658  0.5263 -0.0508 -0.7182
 5524TIP3   OH238062   1.294   2.238   2.719  0.4902 -0.3984  0.3829
 5524TIP3    H138063   1.312   2.193   2.802 -2.5958 -0.9145  0.9164
 5524TIP3    H238064   1.284   2.167   2.655  2.9243  0.0007 -0.5153
 5525TIP3   OH238065   5.220   3.404  12.987  0.3311  0.2104 -0.3187
 5525TIP3    H138066   5.145   3.349  12.964  0.6748 -0.9316  1.1175
 5525TIP3    H238067   5.184   3.469  13.047 -0.1106  1.7258 -2.1559
 5526TIP3   OH238068   1.054   1.706  13.984 -0.5786  0.5595  0.4728
 5526TIP3    H138069   1.121   1.764  14.022  0.6974 -0.5570 -0.0138
 5526TIP3    H238070   1.067   1.713  13.889 -1.4173  0.6109  0.3519
 5527TIP3   OH238071   4.071   1.643   6.723 -0.1093  0.1303 -0.3590
 5527TIP3    H138072   4.146   1.609   6.674 -1.0048 -1.3196 -0.7957
 5527TIP3    H238073   4.029   1.704   6.664  0.4920  0.6414 -0.2646
 5528TIP3   OH238074   3.296   3.258   4.057  0.0175  0.0192 -0.5756
 5528TIP3    H138075   3.231   3.218   4.114 -0.6307 -0.0002 -1.3052
 5528TIP3    H238076   3.247   3.327   4.011 -0.6502 -2.5243 -4.1198
 5529TIP3   OH238077   0.781   5.485   2.331 -0.6643  0.3080 -0.0605
 5529TIP3    H138078   0.697   5.458   2.369 -1.2737 -0.8978 -2.1467
 5529TIP3    H238079   0.844   5.475   2.403 -1.6537 -2.5043  0.5292
 5530TIP3   OH238080   1.006   2.667   3.995 -0.4284  0.2374  0.4086
 5530TIP3    H138081   0.938   2.638   4.057 -1.8652 -2.0020 -2.0002
 5530TIP3    H238082   1.060   2.589   3.981 -0.1231  0.6995 -1.1074
 5531TIP3   OH238083   2.130   3.733   2.361 -0.4307 -0.1875  0.4019
 5531TIP3    H138084   2.053   3.682   2.386 -1.0201 -0.5505 -1.9731
 5531TIP3    H238085   2.195   3.668   2.337 -1.2635  0.0010 -2.8832
 5532TIP3   OH238086   0.355   6.781  16.933 -0.5404  0.5619  0.4697
 5532TIP3    H138087   0.328   6.717  16.999 -1.7458 -1.6951 -2.0550
 5532TIP3    H238088   0.304   6.859  16.953 -0.7042  0.0357  2.3018
 5533TIP3   OH238089   6.362   3.266  16.882  0.8689  0.5641  0.5557
 5533TIP3    H138090   6.284   3.215  16.904  0.6139  0.1125 -1.2223
 5533TIP3    H238091   6.357   3.344  16.938 -0.4402  0.1684  1.0153
 5534TIP3   OH238092   6.317   1.280  14.123 -0.4288 -0.2329  0.2191
 5534TIP3    H138093   6.252   1.212  14.141  1.2606 -2.3151 -1.1451
 5534TIP3    H238094   6.289   1.319  14.040  1.3065 -2.9480 -1.8101
 5535TIP3   OH238095   0.402   3.785   4.443  0.5486 -0.0867 -0.0300
 5535TIP3    H138096   0.328   3.726   4.435  2.3666 -2.4968 -0.3220
 5535TIP3    H238097   0.427   3.805   4.353 -0.0376  1.1837  0.0657
 5536TIP3   OH238098   0.433   4.062   2.964  0.7608 -0.2647 -0.0798
 5536TIP3    H138099   0.497   4.126   2.993 -0.3939  0.3290  1.2717
 5536TIP3    H238100   0.348   4.102   2.982 -0.0632 -0.7597 -2.3954
 5537TIP3   OH238101   0.816   4.260  13.008 -0.7294 -1.2686  0.5752
 5537TIP3    H138102   0.767   4.339  12.981 -0.6109 -1.7080 -1.0200
 5537TIP3    H238103   0.760   4.219  13.074 -1.0571 -0.1437  1.0224
 5538TIP3   OH238104   4.853   5.154   0.911  0.4782  0.7543 -0.5068
 5538TIP3    H138105   4.801   5.234   0.906 -1.9700 -0.7738 -1.5601
 5538TIP3    H238106   4.886   5.151   1.000 -1.6829  1.6288  0.3765
 5539TIP3   OH238107   1.840   1.125  14.595 -0.1198 -0.5564  0.2438
 5539TIP3    H138108   1.791   1.200  14.561  1.0066 -0.4751 -1.3102
 5539TIP3    H238109   1.927   1.133  14.554 -0.1607 -3.0430 -0.4677
 5540TIP3   OH238110   2.470   4.832   5.766  0.4812  0.6277 -0.6112
 5540TIP3    H138111   2.467   4.917   5.722 -0.0796  0.5816 -0.6616
 5540TIP3    H238112   2.379   4.805   5.773  0.4844  0.9356  1.1743
 5541TIP3   OH238113   4.764   1.112   4.350 -0.1301  0.0997  0.2950
 5541TIP3    H138114   4.846   1.064   4.340 -0.4856 -0.4391 -0.1052
 5541TIP3    H238115   4.748   1.152   4.265 -0.7739 -0.6104  0.0653
 5542TIP3   OH238116   0.161   0.485   1.400  0.5553  0.6370  0.4177
 5542TIP3    H138117   0.122   0.397   1.407  1.1008  0.2072 -1.3840
 5542TIP3    H238118   0.096   0.543   1.438 -0.4303 -0.4075  0.3776
 5543TIP3   OH238119   5.164   0.259   5.563  0.0395 -0.1956  0.1844
 5543TIP3    H138120   5.239   0.316   5.581  0.0572  0.3419 -1.4615
 5543TIP3    H238121   5.169   0.192   5.631  1.2341  0.5780  0.9076
 5544TIP3   OH238122   6.464   3.283   3.872  0.0997  0.3423 -0.2203
 5544TIP3    H138123   6.476   3.294   3.778  0.5452  1.7533 -0.0358
 5544TIP3    H238124   6.550   3.302   3.909 -0.1373  0.0596  0.4920
 5545TIP3   OH238125   2.017   0.561  15.552 -0.3276 -0.2528 -0.3331
 5545TIP3    H138126   2.010   0.474  15.591 -2.5230 -1.0903 -2.3381
 5545TIP3    H238127   1.952   0.614  15.599 -0.2566 -0.1996 -0.2950
 5546TIP3   OH238128   1.293   1.226  15.699  0.7996 -0.2691 -0.0644
 5546TIP3    H138129   1.295   1.219  15.604 -0.0412 -1.2229 -0.0287
 5546TIP3    H238130   1.385   1.221  15.725  0.9631 -1.3873 -0.7539
 5547TIP3   OH238131   6.002   5.216  14.049  0.1676  0.0939 -0.9965
 5547TIP3    H138132   5.909   5.229  14.068 -0.0008 -2.0431 -0.1243
 5547TIP3    H238133   6.006   5.207  13.954 -0.1477  2.4362 -1.3023
 5548TIP3   OH238134   3.992   3.444  16.895  0.3594 -0.0922 -0.5089
 5548TIP3    H138135   3.948   3.468  16.813  2.3055 -0.9190 -1.8550
 5548TIP3    H238136   4.012   3.351  16.885 -0.5272 -0.5709  1.5189
 5549TIP3   OH238137   2.193   0.140  12.698  0.4240  0.0346 -0.0184
 5549TIP3    H138138   2.147   0.087  12.633  0.1481 -0.8106  0.8515
 5549TIP3    H238139   2.241   0.205  12.646 -0.6381  0.0655 -1.0079
 5550TIP3   OH238140   3.861   5.354  14.090 -0.1995  0.7591 -0.0350
 5550TIP3    H138141   3.833   5.291  14.157  2.6465  0.1981  0.7674
 5550TIP3    H238142   3.827   5.438  14.121 -0.0414  0.3090  1.4147
 5551TIP3   OH238143   2.100   4.178  11.943  0.1993  0.4071  0.0292
 5551TIP3    H138144   2.092   4.083  11.935 -0.6938  0.4189  0.6688
 5551TIP3    H238145   2.038   4.202  12.012  0.9633  1.3730  0.3940
 5552TIP3   OH238146   0.266   0.086   6.153  0.3369  0.1458  0.0637
 5552TIP3    H138147   0.238   0.090   6.245 -0.9907 -0.2241 -0.3022
 5552TIP3    H238148   0.228   0.164   6.113 -0.0642 -0.2910 -0.4145
 5553TIP3   OH238149   3.202   3.668   0.070  0.1076  0.0791 -0.1410
 5553TIP3    H138150   3.267   3.700   0.007  2.3782 -2.0020  0.9962
 5553TIP3    H238151   3.235   3.696   0.155  0.1485 -1.9004  0.5490
 5554TIP3   OH238152   5.465   5.290  13.069  0.3043  0.7801 -0.4332
 5554TIP3    H138153   5.555   5.282  13.038 -0.1560 -0.0037 -1.6222
 5554TIP3    H238154   5.451   5.211  13.122 -0.0121  0.3625 -1.1300
 5555TIP3   OH238155   4.025   6.550  13.150 -0.6589 -0.0118  0.7812
 5555TIP3    H138156   4.018   6.635  13.192 -1.4755  1.4864 -2.0790
 5555TIP3    H238157   3.949   6.500  13.181  0.0989  0.0328  2.8642
 5556TIP3   OH238158   5.895   0.029  10.547  0.1086  0.0296  0.7811
 5556TIP3    H138159   5.815   0.053  10.595  1.1974  0.8569  2.2711
 5556TIP3    H238160   5.919  -0.057  10.582  0.2990  0.1298  0.8951
 5557TIP3   OH238161   4.722   4.567  14.260 -0.0529 -0.5329  0.3765
 5557TIP3    H138162   4.666   4.525  14.325 -0.5182 -0.7333 -0.1506
 5557TIP3    H238163   4.680   4.549  14.176 -0.2946  0.9866  0.1284
 5558TIP3   OH238164   5.832   5.133  14.574 -0.2651 -0.0292 -0.2072
 5558TIP3    H138165   5.812   5.226  14.566 -0.2154  0.0786  0.8520
 5558TIP3    H238166   5.923   5.126  14.545  0.1276  0.4579  0.8657
 5559TIP3   OH238167   2.418   6.647  14.066 -0.0907 -0.9096  0.0550
 5559TIP3    H138168   2.380   6.628  13.981  0.5352 -0.1820 -0.4076
 5559TIP3    H238169   2.457   6.735  14.056  0.9033 -1.2418  0.7655
 5560TIP3   OH238170   4.569   6.294  14.463  0.7109  0.2263  0.3013
 5560TIP3    H138171   4.577   6.321  14.372  4.8808 -0.4305  0.2691
 5560TIP3    H238172   4.581   6.375  14.513 -0.1860  0.3747  0.2885
 5561TIP3   OH238173   1.276   0.952  16.253 -0.7925 -0.6843  0.0460
 5561TIP3    H138174   1.195   1.000  16.234 -0.7056 -0.2819  0.6569
 5561TIP3    H238175   1.329   0.961  16.174 -0.7912  0.1951  0.1429
 5562TIP3   OH238176   3.576   5.669   0.513  0.3160  0.1630  0.4506
 5562TIP3    H138177   3.629   5.728   0.459 -0.9927  1.3027  0.3497
 5562TIP3    H238178   3.623   5.663   0.595 -0.0227  2.2556  0.8554
 5563TIP3   OH238179   1.002   1.642  16.752  0.2420  0.2133 -0.2019
 5563TIP3    H138180   0.995   1.625  16.658 -2.4157  1.7213 -0.3802
 5563TIP3    H238181   0.912   1.653  16.781  0.8909 -1.2452  2.7950
 5564TIP3   OH238182   3.864   6.179   1.706  0.1190 -0.1324 -0.7655
 5564TIP3    H138183   3.802   6.216   1.768 -0.6044 -0.8576 -1.0358
 5564TIP3    H238184   3.830   6.202   1.620  0.1101 -0.6982 -0.9186
 5565TIP3   OH238185   5.884   2.676  12.358  0.1157 -0.7301 -0.5196
 5565TIP3    H138186   5.898   2.771  12.360  0.6378 -0.7707 -1.7293
 5565TIP3    H238187   5.826   2.659  12.433  1.6815  0.2634  0.9996
 5566TIP3   OH238188   3.812   6.487   2.888  0.3589 -0.2124 -0.0188
 5566TIP3    H138189   3.736   6.507   2.943  1.2895  0.4373  1.0724
 5566TIP3    H238190   3.819   6.564   2.830 -1.0681 -1.2198 -1.6482
 5567TIP3   OH238191   6.011   5.935  14.126  0.5220 -0.2582  0.5079
 5567TIP3    H138192   5.917   5.943  14.144  0.2449  2.2176 -1.4686
 5567TIP3    H238193   6.015   5.891  14.041  1.0247  1.1739 -0.2357
 5568TIP3   OH238194   1.052   2.685   3.175  0.1249  0.1221 -0.5252
 5568TIP3    H138195   1.141   2.656   3.194  0.4165  0.9356 -0.5928
 5568TIP3    H238196   1.049   2.691   3.080 -0.8537 -2.4557 -0.7451
 5569TIP3   OH238197   4.925   3.769  11.054  0.0121  0.2392  0.2085
 5569TIP3    H138198   4.963   3.695  11.004 -0.7353  0.2129 -0.3361
 5569TIP3    H238199   4.995   3.796  11.113  1.1058  0.5691 -1.1804
 5570TIP3   OH238200   5.073   0.491   1.120 -0.1022 -0.1209 -0.1735
 5570TIP3    H138201   5.026   0.572   1.100 -0.9490 -0.4505  0.4571
 5570TIP3    H238202   5.144   0.489   1.056  0.5925  1.6631  0.4609
 5571TIP3   OH238203   6.020   6.809  10.832 -0.1685  0.0031 -0.0352
 5571TIP3    H138204   5.928   6.829  10.821  0.0518  0.1913 -1.8423
 5571TIP3    H238205   6.065   6.892  10.814  0.3611 -0.0359  1.0130
 5572TIP3   OH238206   1.504   5.143   3.746  0.0835 -0.1342 -0.2020
 5572TIP3    H138207   1.597   5.167   3.743 -0.4345  2.0076 -1.1909
 5572TIP3    H238208   1.496   5.090   3.825  2.4755 -2.0769 -1.1333
 5573TIP3   OH238209   6.822   2.379  13.527 -0.1869  0.2915 -0.0672
 5573TIP3    H138210   6.805   2.467  13.560 -2.1265 -0.3084  0.7044
 5573TIP3    H238211   6.760   2.370  13.454  0.0250 -0.4146 -0.1636
 5574TIP3   OH238212   0.694   2.951  16.268 -0.1506 -0.0327 -0.3201
 5574TIP3    H138213   0.621   2.892  16.246 -0.4724 -0.0557  0.7452
 5574TIP3    H238214   0.767   2.892  16.287 -0.6633 -0.1618  1.4344
 5575TIP3   OH238215   3.076   5.288  16.943 -0.1066  0.1039 -0.2047
 5575TIP3    H138216   3.029   5.214  16.983  0.1035 -0.8815 -1.7010
 5575TIP3    H238217   3.165   5.282  16.977 -0.2175 -0.0431  0.0578
 5576TIP3   OH238218   2.348   4.863  13.848  0.1068 -0.9465  0.1248
 5576TIP3    H138219   2.295   4.938  13.818  1.0170 -0.7438 -1.0608
 5576TIP3    H238220   2.359   4.878  13.942 -0.2576  0.0810  0.0231
 5577TIP3   OH238221   2.531   1.652   4.864 -0.3454  0.3571 -0.6547
 5577TIP3    H138222   2.579   1.620   4.941 -0.7479  2.1864  0.4223
 5577TIP3    H238223   2.597   1.656   4.795  0.8357  1.7454  0.4933
 5578TIP3   OH238224   5.293   1.694  11.277 -0.2532 -0.2010 -0.3820
 5578TIP3    H138225   5.300   1.619  11.336  2.2052 -1.2703 -1.8888
 5578TIP3    H238226   5.209   1.681  11.232 -0.0308 -1.8925 -0.3779
 5579TIP3   OH238227   3.030   2.243  11.621 -0.0142 -0.4762  0.4253
 5579TIP3    H138228   2.951   2.295  11.634 -0.1242 -0.7996  1.0790
 5579TIP3    H238229   3.101   2.306  11.620 -0.3215 -0.1190 -0.7509
 5580TIP3   OH238230   4.834   2.616  14.810 -1.3571  0.7601  0.1381
 5580TIP3    H138231   4.824   2.570  14.893 -0.7194  0.9099  0.2964
 5580TIP3    H238232   4.744   2.637  14.784 -1.6263 -0.1514  0.2967
 5581TIP3   OH238233   4.184   1.073   0.147 -0.5867  0.3363  0.9682
 5581TIP3    H138234   4.088   1.064   0.147 -0.5735  0.0953  0.2955
 5581TIP3    H238235   4.213   1.005   0.086  0.0734 -0.1464  1.8032
 5582TIP3   OH238236   0.551   0.342  15.037  0.3646 -0.2052  0.5927
 5582TIP3    H138237   0.490   0.319  14.967  0.7448 -0.3480  0.3091
 5582TIP3    H238238   0.504   0.320  15.118  0.1532 -0.5847  0.3684
 5583TIP3   OH238239   3.473   5.093  13.706  0.4198  0.4879 -0.2118
 5583TIP3    H138240   3.445   5.004  13.729 -0.8724  1.3032  1.6348
 5583TIP3    H238241   3.418   5.117  13.632 -2.3792  1.1933  1.8986
 5584TIP3   OH238242   0.001   2.671   5.383  0.0613  0.2801  0.3011
 5584TIP3    H138243   0.016   2.703   5.472  0.6002  1.8846 -0.3284
 5584TIP3    H238244  -0.054   2.738   5.342  0.6358  0.0646 -0.8610
 5585TIP3   OH238245   5.562   6.303   3.993  0.4137 -0.7012 -0.2360
 5585TIP3    H138246   5.501   6.280   4.062 -0.1981  0.3856 -0.3925
 5585TIP3    H238247   5.576   6.222   3.944  0.1705 -1.2655  0.6224
 5586TIP3   OH238248   2.372   2.302   1.488  0.0057  0.0019  0.2317
 5586TIP3    H138249   2.279   2.299   1.508 -0.3004 -0.8866 -1.2285
 5586TIP3    H238250   2.390   2.220   1.443  1.8481 -0.5757  1.8855
 5587TIP3   OH238251   6.151   6.839  14.346 -0.6824  0.4711 -0.1819
 5587TIP3    H138252   6.059   6.863  14.357 -0.7285  1.3616 -1.9783
 5587TIP3    H238253   6.173   6.872  14.258  1.6402  1.2219  0.6181
 5588TIP3   OH238254   1.460   5.022   4.004 -0.1790 -0.3813 -0.5062
 5588TIP3    H138255   1.442   4.948   4.062  2.2179 -0.4004  0.2961
 5588TIP3    H238256   1.428   5.098   4.051  0.3363 -0.5676  0.1535
 5589TIP3   OH238257   0.863   2.114  14.245 -0.5751 -0.0889  0.3637
 5589TIP3    H138258   0.904   2.076  14.323  1.2908 -0.6559 -0.8056
 5589TIP3    H238259   0.822   2.039  14.201 -0.1078 -0.1034 -0.0603
 5590TIP3   OH238260   6.592   2.594   0.426 -0.1257 -0.0469  0.1971
 5590TIP3    H138261   6.506   2.594   0.468  0.3699 -1.1015  1.3017
 5590TIP3    H238262   6.607   2.684   0.399 -2.1357 -0.0963 -1.2357
 5591TIP3   OH238263   6.037   2.347   0.846 -0.4319  0.4925 -0.1467
 5591TIP3    H138264   6.044   2.429   0.797  0.2911  0.3723 -0.2518
 5591TIP3    H238265   5.942   2.335   0.859 -0.5422  1.4844  0.1079
 5592TIP3   OH238266   3.687   1.583   3.391 -0.5567 -0.5354 -0.7045
 5592TIP3    H138267   3.705   1.659   3.337 -1.3226 -0.5103 -0.9342
 5592TIP3    H238268   3.764   1.527   3.380 -0.2226 -0.0318 -0.9460
 5593TIP3   OH238269   6.716   6.704  11.534  0.2264  0.3344  0.8320
 5593TIP3    H138270   6.809   6.703  11.511  0.2885  0.0587  1.0934
 5593TIP3    H238271   6.675   6.755  11.464  0.3525 -0.8623 -0.1546
 5594TIP3   OH238272   5.727   3.153   0.242  0.0198 -0.2647  0.1857
 5594TIP3    H138273   5.781   3.132   0.318  0.1401  0.5738  0.3407
 5594TIP3    H238274   5.779   3.124   0.167  1.6827  2.4306  0.1886
 5595TIP3   OH238275   4.292   4.706   3.291  0.2021 -0.4342 -0.2639
 5595TIP3    H138276   4.358   4.655   3.338  0.8566 -0.0517 -0.7493
 5595TIP3    H238277   4.303   4.682   3.199  0.1978  0.2086 -0.4395
 5596TIP3   OH238278   5.499   0.434   1.547 -0.3103  0.5342  0.5056
 5596TIP3    H138279   5.539   0.348   1.543 -0.8478  0.2738  0.6440
 5596TIP3    H238280   5.479   0.448   1.639 -0.1781  0.8274  0.4906
 5597TIP3   OH238281   3.086   4.664  12.044  0.1972  0.6451  0.6542
 5597TIP3    H138282   3.057   4.596  11.984 -0.6022  0.3903  1.3182
 5597TIP3    H238283   3.072   4.746  11.996 -0.6375  0.4603  0.5698
 5598TIP3   OH238284   2.818   0.779  11.922  0.2187  0.9711  0.6739
 5598TIP3    H138285   2.758   0.775  11.847  0.4654 -0.6151  0.5365
 5598TIP3    H238286   2.886   0.839  11.894 -0.5722  1.7222  0.2985
 5599TIP3   OH238287   4.065   0.548  15.449 -0.0258 -0.6468  0.3076
 5599TIP3    H138288   4.020   0.560  15.365  0.1763 -0.7508  0.1840
 5599TIP3    H238289   4.100   0.460  15.445 -0.3415 -0.7886  0.6596
 5600TIP3   OH238290   2.973   6.507  10.567  0.4967  0.0057  0.2950
 5600TIP3    H138291   3.001   6.589  10.527 -1.1703  0.7127  0.4989
 5600TIP3    H238292   3.054   6.458  10.582  1.4436  1.2476 -0.6064
 5601TIP3   OH238293   1.304   4.926   4.472 -0.3573  0.3329  0.1680
 5601TIP3    H138294   1.390   4.891   4.449 -0.7367 -0.2054 -0.4669
 5601TIP3    H238295   1.322   4.999   4.531  0.5260  0.1349  0.1441
 5602TIP3   OH238296   1.630   2.230   1.911  0.2139  0.7071  0.1487
 5602TIP3    H138297   1.698   2.184   1.860  0.3989  2.7855 -1.6057
 5602TIP3    H238298   1.672   2.249   1.995  0.9005 -0.2813  0.0480
 5603TIP3   OH238299   4.762   6.139   3.683  0.2287 -0.3645  0.4064
 5603TIP3    H138300   4.697   6.076   3.653  2.0251 -2.4883  0.7280
 5603TIP3    H238301   4.713   6.201   3.737 -2.0929  0.2284 -2.1243
 5604TIP3   OH238302   4.816   2.997   5.246 -0.2302  0.3739  0.1849
 5604TIP3    H138303   4.825   3.036   5.333  1.0829  0.9531 -0.1832
 5604TIP3    H238304   4.723   2.978   5.238 -0.6268  1.7664  1.1024
 5605TIP3   OH238305   3.494   2.445  12.021  0.3712  0.2568 -0.1547
 5605TIP3    H138306   3.533   2.490  11.946 -1.1093  0.7336 -0.6787
 5605TIP3    H238307   3.402   2.470  12.019 -0.3414 -2.0882  0.0686
 5606TIP3   OH238308   0.956   4.293  16.875 -0.1802 -0.2383 -0.0073
 5606TIP3    H138309   0.883   4.262  16.928 -0.8734  0.5112 -0.4809
 5606TIP3    H238310   0.999   4.358  16.930 -1.0617  0.7383 -0.4149
 5607TIP3   OH238311   0.205   5.524  16.132  0.4705 -0.0558  0.1458
 5607TIP3    H138312   0.279   5.466  16.147  1.5509  0.6542 -2.0201
 5607TIP3    H238313   0.169   5.540  16.220  1.3762 -2.3080  0.9983
 5608TIP3   OH238314   2.596   5.916   3.768 -0.2155 -0.3997  0.3393
 5608TIP3    H138315   2.633   5.931   3.855 -0.2431  2.3658 -0.0246
 5608TIP3    H238316   2.509   5.879   3.785  0.2764 -1.1046  1.4230
 5609TIP3   OH238317   1.932   0.591  13.189 -0.1877  0.2580 -0.9091
 5609TIP3    H138318   1.917   0.523  13.123  0.1729 -1.6558  0.8666
 5609TIP3    H238319   2.000   0.647  13.151 -0.1457 -0.6391 -2.2342
 5610TIP3   OH238320   4.668   0.064   5.983 -0.8307 -0.3055 -0.3653
 5610TIP3    H138321   4.618   0.065   6.064  1.1815  0.9173  0.9480
 5610TIP3    H238322   4.663   0.154   5.951 -1.0044 -0.6068 -1.2129
 5611TIP3   OH238323   4.092   3.991  12.002  0.2787  1.2870 -0.4512
 5611TIP3    H138324   4.151   3.916  11.994  1.3306  2.2175 -1.9631
 5611TIP3    H238325   4.070   3.994  12.095 -0.2509 -1.1960 -0.4034
 5612TIP3   OH238326   4.022   0.552  12.027  0.2251  0.0474  0.1000
 5612TIP3    H138327   3.944   0.604  12.049 -1.4281 -1.2974 -2.1436
 5612TIP3    H238328   4.015   0.475  12.084  0.2517  0.2187  0.3370
 5613TIP3   OH238329   0.252   2.141  12.435 -0.0462 -0.2965  0.5921
 5613TIP3    H138330   0.335   2.131  12.483  0.6343 -1.8216 -0.8010
 5613TIP3    H238331   0.246   2.063  12.381 -0.3835  1.6466 -2.4082
 5614TIP3   OH238332   0.205   3.031   6.133 -0.0517  0.0239  0.4591
 5614TIP3    H138333   0.130   2.974   6.118 -0.4496  0.9070 -1.0813
 5614TIP3    H238334   0.243   3.045   6.046  1.2814  0.4390  1.0742
 5615TIP3   OH238335   5.733   1.548  11.816 -0.2447  0.0400 -0.7793
 5615TIP3    H138336   5.816   1.592  11.835  0.1996 -0.2537 -1.9421
 5615TIP3    H238337   5.739   1.524  11.723 -1.7611  0.2929 -0.9742
 5616TIP3   OH238338   0.688   2.298   3.615 -0.7791 -0.0978  0.5006
 5616TIP3    H138339   0.673   2.274   3.524  0.5785 -1.6714  0.6363
 5616TIP3    H238340   0.605   2.336   3.644 -0.8997  1.4580 -1.6566
 5617TIP3   OH238341   2.339   4.485  14.735 -0.2257  0.2609 -0.1913
 5617TIP3    H138342   2.296   4.405  14.703 -2.5511  0.9284  1.0298
 5617TIP3    H238343   2.402   4.454  14.800  0.2674 -0.6883 -1.0913
 5618TIP3   OH238344   4.375   4.952  11.329  0.2699  0.0292  0.2026
 5618TIP3    H138345   4.328   4.871  11.349  2.4393 -1.2790  0.2904
 5618TIP3    H238346   4.333   5.018  11.385 -1.3977 -1.0512  0.2956
 5619TIP3   OH238347   4.110   4.756  12.474 -0.2856  0.0802  0.2731
 5619TIP3    H138348   4.160   4.700  12.532 -0.5458  0.1575  0.5725
 5619TIP3    H238349   4.026   4.712  12.463 -0.9771  1.0259  1.5410
 5620TIP3   OH238350   5.383   4.625  15.774 -0.5982  0.5654  0.6913
 5620TIP3    H138351   5.353   4.661  15.857  0.6569  0.9710  0.9922
 5620TIP3    H238352   5.453   4.564  15.798 -2.7709 -2.3362  0.2259
 5621TIP3   OH238353   1.393   3.667  11.464  0.0135 -0.4700  0.4406
 5621TIP3    H138354   1.463   3.663  11.528  0.9051 -1.0048 -0.5379
 5621TIP3    H238355   1.312   3.669  11.516  0.7045 -0.9594  1.5536
 5622TIP3   OH238356   3.047   4.835   0.181  0.6554 -0.6473  0.2998
 5622TIP3    H138357   3.006   4.817   0.096 -1.5460 -0.7532  1.3289
 5622TIP3    H238358   3.121   4.775   0.185  0.5612 -0.9237 -1.3610
 5623TIP3   OH238359   5.238   5.617   1.041  0.2975 -0.1859 -0.7051
 5623TIP3    H138360   5.197   5.582   0.962 -0.9396 -2.3113  0.7730
 5623TIP3    H238361   5.171   5.608   1.109  1.0677  2.2022  0.4979
 5624TIP3   OH238362   1.377   6.842   5.540 -0.1910 -0.2578  0.1070
 5624TIP3    H138363   1.346   6.932   5.537  0.4130  0.0545  1.8652
 5624TIP3    H238364   1.472   6.849   5.533 -0.0265 -0.6120  1.6223
 5625TIP3   OH238365   6.138   2.868   4.788  0.0758 -0.0760 -0.0133
 5625TIP3    H138366   6.167   2.917   4.711  2.9178  1.7752  2.0710
 5625TIP3    H238367   6.207   2.803   4.803 -1.0373 -1.2261  0.3341
 5626TIP3   OH238368   5.697   6.197  15.606 -0.3412  0.2615 -0.4174
 5626TIP3    H138369   5.780   6.152  15.619  1.8674  3.6672 -1.2284
 5626TIP3    H238370   5.673   6.178  15.515  1.5211  1.9353 -1.3427
 5627TIP3   OH238371   2.097   3.129   1.635  0.4204 -0.6775 -0.4979
 5627TIP3    H138372   2.086   3.145   1.729  0.0193 -0.1061 -0.6362
 5627TIP3    H238373   2.191   3.136   1.620  0.3084  1.2456 -0.4843
 5628TIP3   OH238374   0.968   0.854   2.026  0.2415  0.2786 -0.4631
 5628TIP3    H138375   1.027   0.898   1.964 -1.2522  1.1104 -1.3509
 5628TIP3    H238376   0.977   0.761   2.006 -1.2243  0.6026 -2.9244
 5629TIP3   OH238377   5.126   1.362   0.287  0.2844  0.0771 -0.6536
 5629TIP3    H138378   5.148   1.269   0.289  1.3658  0.3025 -1.4250
 5629TIP3    H238379   5.168   1.398   0.366 -1.0169 -0.2426  0.2279
 5630TIP3   OH238380   4.412   2.501   1.872 -0.2148 -0.6976 -0.1202
 5630TIP3    H138381   4.397   2.408   1.890  0.6500 -1.4813 -2.8905
 5630TIP3    H238382   4.363   2.547   1.940 -1.1864 -3.1698  0.9721
 5631TIP3   OH238383   0.360   0.460  12.507 -0.0651  0.2862 -0.1187
 5631TIP3    H138384   0.280   0.470  12.455  0.5476  1.9286 -0.8062
 5631TIP3    H238385   0.414   0.535  12.483  1.3228 -0.3068  1.0016
 5632TIP3   OH238386   3.797   4.759   2.227  0.0726 -0.4815  0.1431
 5632TIP3    H138387   3.828   4.788   2.313 -0.1719  0.3221 -0.0337
 5632TIP3    H238388   3.877   4.744   2.176  0.2299 -1.3658  0.6317
 5633TIP3   OH238389   6.218   0.808   2.450 -0.2155  0.0693 -0.4041
 5633TIP3    H138390   6.249   0.879   2.393  1.6630 -0.7349 -0.4673
 5633TIP3    H238391   6.225   0.730   2.396  0.9275 -0.6086  0.6569
 5634TIP3   OH238392   5.877   0.005   4.119 -0.7625  0.6144  0.0470
 5634TIP3    H138393   5.799   0.013   4.173 -0.4769  0.0446  0.5566
 5634TIP3    H238394   5.893  -0.090   4.112 -0.0617  0.7232  0.0420
 5635TIP3   OH238395   4.312   3.521   6.301 -0.7110 -0.1182  0.8865
 5635TIP3    H138396   4.376   3.519   6.372 -0.8148 -1.5258  0.9548
 5635TIP3    H238397   4.296   3.429   6.279 -0.7323  0.2643 -0.9168
 5636TIP3   OH238398   6.530   3.464  14.858  0.4374  0.8481  0.2065
 5636TIP3    H138399   6.521   3.369  14.849 -0.8140  0.9922 -0.3099
 5636TIP3    H238400   6.524   3.497  14.768 -2.2048  1.6002  0.5574
 5637TIP3   OH238401   5.897   6.810   2.900 -0.0543 -0.1246  0.5923
 5637TIP3    H138402   5.832   6.747   2.929 -0.4641  0.5508  1.1653
 5637TIP3    H238403   5.854   6.895   2.908 -0.2353  0.1128 -2.0867
 5638TIP3   OH238404   6.131   5.596   2.360 -0.1851 -0.0968 -0.0356
 5638TIP3    H138405   6.119   5.623   2.269 -1.7483 -0.4907  0.0241
 5638TIP3    H238406   6.078   5.517   2.368 -1.2947  0.7568  1.5879
 5639TIP3   OH238407   3.978   0.556  15.133  0.2986 -0.1232 -0.0572
 5639TIP3    H138408   4.020   0.624  15.080 -1.2765  0.0361 -1.1660
 5639TIP3    H238409   3.984   0.477  15.080 -2.6263  0.3506 -1.3085
 5640TIP3   OH238410   5.311   4.409   3.198 -0.1369 -0.3047  0.3790
 5640TIP3    H138411   5.272   4.495   3.188  1.1500  0.2111 -0.4268
 5640TIP3    H238412   5.402   4.420   3.171 -0.6534 -2.6185 -2.9402
 5641TIP3   OH238413   5.355   5.034   2.027 -0.0600 -0.4065 -0.1256
 5641TIP3    H138414   5.316   4.950   2.002  0.4313 -0.6964  0.0743
 5641TIP3    H238415   5.374   5.025   2.120 -3.0467  1.1296  0.7256
 5642TIP3   OH238416   3.358   0.527   5.117 -0.0513 -0.1850 -0.1924
 5642TIP3    H138417   3.340   0.467   5.045 -0.8088 -0.1602 -0.0325
 5642TIP3    H238418   3.453   0.527   5.125 -0.0245 -1.1162 -0.4023
 5643TIP3   OH238419   0.077   5.445   2.651  0.4195  0.0029  0.4991
 5643TIP3    H138420   0.041   5.357   2.636 -1.7289  0.9451 -0.2469
 5643TIP3    H238421   0.153   5.430   2.708 -0.2601 -2.2673  0.9229
 5644TIP3   OH238422   5.806   4.106   4.278  0.2977 -0.2347 -0.9003
 5644TIP3    H138423   5.852   4.155   4.346 -0.8383  2.1051 -1.7008
 5644TIP3    H238424   5.734   4.064   4.323  1.5755 -1.6660 -0.1098
 5645TIP3   OH238425   4.382   5.385  11.397  0.4151  0.6770  0.4335
 5645TIP3    H138426   4.314   5.388  11.329 -0.0987  0.5222  0.9389
 5645TIP3    H238427   4.372   5.299  11.437  2.1744 -0.1573 -0.7722
 5646TIP3   OH238428   5.273   6.345  11.218 -0.1882 -0.0521  0.6429
 5646TIP3    H138429   5.229   6.288  11.280 -1.0123 -0.4828 -0.3270
 5646TIP3    H238430   5.236   6.323  11.133  0.5657  0.8731  0.0474
 5647TIP3   OH238431   4.451   0.809   6.465 -0.0529 -0.0699 -0.3255
 5647TIP3    H138432   4.434   0.715   6.469  0.2505 -0.1055  0.1011
 5647TIP3    H238433   4.518   0.825   6.531 -1.4076  0.7397  0.8926
 5648TIP3   OH238434   0.440   6.372   1.709  0.0479  0.0596  0.4526
 5648TIP3    H138435   0.393   6.348   1.790 -0.5487  0.6686  0.2977
 5648TIP3    H238436   0.529   6.341   1.723 -0.2608 -0.6139  0.9937
 5649TIP3   OH238437   3.951   5.163   4.119 -0.5420  0.3082 -0.7617
 5649TIP3    H138438   3.943   5.128   4.208 -1.7124  1.5443 -0.3415
 5649TIP3    H238439   4.041   5.144   4.094 -0.6398 -1.4657  0.0632
 5650TIP3   OH238440   4.779   1.475   2.425  0.4471 -0.0367 -0.2119
 5650TIP3    H138441   4.728   1.514   2.355  0.5933  1.2604  0.3712
 5650TIP3    H238442   4.860   1.525   2.426  1.6074 -1.8108 -0.8670
 5651TIP3   OH238443   6.230   2.006   0.231  0.7591 -0.3046  0.4833
 5651TIP3    H138444   6.189   2.092   0.231 -0.1519 -0.6951  1.9934
 5651TIP3    H238445   6.320   2.022   0.203  0.1797  0.8868 -0.8085
 5652TIP3   OH238446   5.748   6.636   0.765 -0.4051 -0.1488 -0.4297
 5652TIP3    H138447   5.705   6.621   0.849  0.9597 -0.8308  0.1827
 5652TIP3    H238448   5.839   6.657   0.789 -0.2228  0.6181 -1.6972
 5653TIP3   OH238449   5.645   0.761  11.893  0.3871 -0.4804 -0.3543
 5653TIP3    H138450   5.689   0.676  11.900  0.6674 -0.1875  2.3360
 5653TIP3    H238451   5.570   0.744  11.836  1.2339 -2.1570 -1.0596
 5654TIP3   OH238452   4.145   4.495  13.162  0.0466 -0.1958  0.2913
 5654TIP3    H138453   4.156   4.566  13.098  1.2546 -0.1931  0.4816
 5654TIP3    H238454   4.208   4.428  13.135  0.8214 -0.0500  1.6526
 5655TIP3   OH238455   6.207   0.729  16.470 -0.4123 -1.2227 -0.1844
 5655TIP3    H138456   6.286   0.766  16.431 -0.9551 -1.0316 -1.1421
 5655TIP3    H238457   6.222   0.635  16.471  0.0760 -1.1397  0.1977
 5656TIP3   OH238458   1.387   6.160   1.001  0.0622  0.8629  0.1544
 5656TIP3    H138459   1.414   6.072   0.975  1.3551  1.4624 -0.6500
 5656TIP3    H238460   1.347   6.148   1.087  1.7426 -0.3053  0.8490
 5657TIP3   OH238461   3.047   6.543  12.496 -0.5706  0.3033  0.1898
 5657TIP3    H138462   3.130   6.581  12.524 -1.0654  2.4767 -1.0330
 5657TIP3    H238463   3.055   6.450  12.516  1.8211  0.5878  0.8539
 5658TIP3   OH238464   5.267   3.410   6.346 -0.6530 -0.1192 -0.4387
 5658TIP3    H138465   5.206   3.351   6.302 -0.3009 -1.8614  1.2407
 5658TIP3    H238466   5.215   3.451   6.415  0.1296 -2.3216  1.6171
 5659TIP3   OH238467   3.720   4.649   1.980  0.8437  0.5414  0.3726
 5659TIP3    H138468   3.709   4.554   1.981 -0.7544  0.6861 -0.6793
 5659TIP3    H238469   3.713   4.675   2.072 -0.0167 -0.2321  0.5349
 5660TIP3   OH238470   3.128   6.339  13.583  0.3397  0.2818 -0.6041
 5660TIP3    H138471   3.126   6.367  13.674 -2.7924  2.7970 -1.2784
 5660TIP3    H238472   3.141   6.420  13.534 -1.1143 -0.5522 -2.4739
 5661TIP3   OH238473   1.657   2.454  12.635 -0.8304  0.1992 -0.2617
 5661TIP3    H138474   1.705   2.511  12.695 -0.9630  1.2643 -1.1335
 5661TIP3    H238475   1.607   2.514  12.580 -2.7053 -0.8589  0.2162
 5662TIP3   OH238476   0.011   3.447   4.321  0.5403 -0.1566 -0.0836
 5662TIP3    H138477   0.089   3.391   4.311  0.9350  0.0834  1.4088
 5662TIP3    H238478  -0.047   3.397   4.378  1.3936  1.3633  2.2533
 5663TIP3   OH238479   4.677   4.742  17.119  0.4250 -0.0714 -0.5929
 5663TIP3    H138480   4.621   4.771  17.047 -1.5130  0.0138  0.8842
 5663TIP3    H238481   4.726   4.820  17.145 -1.9587  1.0650  0.8591
 5664TIP3   OH238482   4.909   1.651  14.924 -0.0731 -0.3121  0.3739
 5664TIP3    H138483   4.847   1.663  14.852 -3.0985  0.4471  2.8865
 5664TIP3    H238484   4.891   1.563  14.957 -1.4979  0.6928  2.4833
 5665TIP3   OH238485   5.969   4.591  13.636 -0.1023 -0.1705 -0.0927
 5665TIP3    H138486   6.054   4.611  13.676  1.3099 -0.0433 -2.9283
 5665TIP3    H238487   5.940   4.511  13.681  1.5473 -0.2663  0.8828
 5666TIP3   OH238488   5.033   3.429  14.652  0.0159  0.0369 -0.0071
 5666TIP3    H138489   5.123   3.410  14.681 -0.5130 -1.6023  0.6896
 5666TIP3    H238490   5.039   3.432  14.557  1.2772  2.6777  0.0744
 5667TIP3   OH238491   2.331   6.330   0.404  0.4339  0.3408 -0.6653
 5667TIP3    H138492   2.425   6.325   0.419  0.4129  2.8857  0.8345
 5667TIP3    H238493   2.292   6.338   0.491 -1.0042  1.1096 -1.3323
 5668TIP3   OH238494   3.745   6.104  15.448 -0.0410  0.0093  0.3816
 5668TIP3    H138495   3.689   6.122  15.373  0.3120  1.2987  0.3994
 5668TIP3    H238496   3.833   6.123  15.417  0.4384 -2.0705  0.3334
 5669TIP3   OH238497   3.465   2.257   0.812  0.3670 -0.2433  0.2318
 5669TIP3    H138498   3.513   2.175   0.812 -0.6533 -0.8562  0.0541
 5669TIP3    H238499   3.383   2.237   0.857  0.2241  0.7564  0.4506
 5670TIP3   OH238500   0.426   3.228   4.794 -0.6670  0.2849  0.1403
 5670TIP3    H138501   0.466   3.314   4.788 -1.0664  0.4956  0.4852
 5670TIP3    H238502   0.404   3.205   4.703 -0.4169  0.4751  0.0321
 5671TIP3   OH238503   3.904   5.086   1.490 -0.1733 -0.5174  0.0435
 5671TIP3    H138504   3.930   5.160   1.544 -0.1431 -0.4544 -0.0568
 5671TIP3    H238505   3.846   5.124   1.424 -0.4838 -0.6511  0.2397
 5672TIP3   OH238506   6.804   5.094  14.641 -0.1121  0.0497  0.0430
 5672TIP3    H138507   6.802   5.146  14.561 -2.3926 -1.2078 -0.8012
 5672TIP3    H238508   6.858   5.019  14.620 -0.5505 -0.1819 -0.2581
 5673TIP3   OH238509   6.394   0.350  16.926 -0.2963  0.4350  0.3023
 5673TIP3    H138510   6.403   0.323  16.835  0.5410  1.2449  0.1300
 5673TIP3    H238511   6.327   0.419  16.925  1.6345  2.3994 -0.1560
 5674TIP3   OH238512   4.044   0.370   0.073 -0.0224  0.3658  0.7524
 5674TIP3    H138513   4.082   0.392  -0.012  0.6994  1.1620  1.2568
 5674TIP3    H238514   3.951   0.389   0.064 -0.3018 -1.3664 -0.4301
 5675TIP3   OH238515   3.943   5.696  16.625 -0.4759  0.1074  0.2987
 5675TIP3    H138516   3.865   5.711  16.678 -0.6719 -0.3935  0.1577
 5675TIP3    H238517   3.920   5.622  16.569  0.1730 -0.1755  0.3994
 5676TIP3   OH238518   4.179   1.272  12.794  0.4891  0.1347 -0.1259
 5676TIP3    H138519   4.212   1.356  12.827 -0.5495  1.2756 -1.7907
 5676TIP3    H238520   4.195   1.276  12.699 -2.0297 -0.3224 -0.6538
 5677TIP3   OH238521   4.181   5.773   1.859  0.0321 -0.3697 -0.6923
 5677TIP3    H138522   4.147   5.858   1.832 -0.5346 -0.4599 -0.2678
 5677TIP3    H238523   4.105   5.716   1.863 -0.1698 -0.0528  2.3647
 5678TIP3   OH238524   5.838   4.471  10.438  0.4573 -0.1119  0.2500
 5678TIP3    H138525   5.764   4.468  10.377  0.8721 -0.0040 -0.2758
 5678TIP3    H238526   5.914   4.485  10.381  1.0306 -1.4135  0.6585
 5679TIP3   OH238527   2.426   6.571   4.664 -0.2097  0.4689  0.3071
 5679TIP3    H138528   2.432   6.666   4.658  0.1312  0.6174  2.2796
 5679TIP3    H238529   2.339   6.550   4.630 -0.3259  1.4920 -0.0571
 5680TIP3   OH238530   1.445   6.736   2.326  0.1716 -0.0614  0.2899
 5680TIP3    H138531   1.393   6.811   2.356 -1.0212 -0.5703 -0.4020
 5680TIP3    H238532   1.380   6.666   2.315  0.8910 -0.5095 -1.3552
 5681TIP3   OH238533   6.243   0.031   1.717 -0.2219 -0.1464 -0.1427
 5681TIP3    H138534   6.310   0.098   1.706  0.3652 -0.9557 -1.6762
 5681TIP3    H238535   6.173   0.056   1.656  1.2432 -2.3973 -2.9909
 5682TIP3   OH238536   3.324   6.364   0.268  0.0744 -0.6163  0.1693
 5682TIP3    H138537   3.237   6.327   0.260 -0.6883  0.7584  1.5492
 5682TIP3    H238538   3.343   6.401   0.182 -1.0829 -0.1980  0.0795
 5683TIP3   OH238539   4.830   1.257  15.244  0.2361 -0.1526  0.0695
 5683TIP3    H138540   4.911   1.300  15.271  0.4993 -0.1187 -0.7603
 5683TIP3    H238541   4.839   1.167  15.276  1.8948 -0.9750 -2.4775
 5684TIP3   OH238542   4.790   2.397  12.866  0.4938 -0.2629 -0.8111
 5684TIP3    H138543   4.883   2.417  12.875  0.7440 -1.6984  0.3027
 5684TIP3    H238544   4.789   2.306  12.834 -0.5409  0.1742 -2.1002
 5685TIP3   OH238545   3.228   0.217   5.907 -0.0931 -0.1913 -0.1800
 5685TIP3    H138546   3.228   0.123   5.892  1.3699 -0.0487 -1.2837
 5685TIP3    H238547   3.251   0.226   6.000  1.1608 -0.9094 -0.3972
 5686TIP3   OH238548   0.658   0.359   0.607 -0.0640 -0.1598  0.2544
 5686TIP3    H138549   0.601   0.318   0.542  0.0471  0.1135 -0.0170
 5686TIP3    H238550   0.599   0.400   0.669 -0.1676 -0.1908  0.1759
 5687TIP3   OH238551   1.438   1.139   3.433 -0.2092  0.1493  0.4891
 5687TIP3    H138552   1.519   1.104   3.396  0.9789  1.3943  1.8107
 5687TIP3    H238553   1.426   1.092   3.515  0.0988  1.1176  1.1038
 5688TIP3   OH238554   2.673   5.194  16.115 -0.0468 -1.2722  0.4732
 5688TIP3    H138555   2.733   5.198  16.040 -2.3286  0.3984 -1.4333
 5688TIP3    H238556   2.704   5.262  16.174 -0.3009 -0.0443 -0.7497
 5689TIP3   OH238557   3.280   1.438   2.996 -0.5844  0.3361  0.2544
 5689TIP3    H138558   3.222   1.473   3.065 -0.7627 -1.0586  0.8453
 5689TIP3    H238559   3.255   1.346   2.988 -0.1560  0.3331 -1.2840
 5690TIP3   OH238560   0.613   4.784  13.493 -0.1552  0.0603  0.4547
 5690TIP3    H138561   0.551   4.833  13.439 -1.1708 -2.9349 -1.3944
 5690TIP3    H238562   0.558   4.722  13.541  1.2291 -1.3025  0.3566
 5691TIP3   OH238563   5.496   2.772  16.759  0.3803  0.0668 -0.6329
 5691TIP3    H138564   5.496   2.785  16.664 -1.1247  1.7426 -0.4508
 5691TIP3    H238565   5.409   2.737  16.779  0.4700  0.2777  0.1772
 5692TIP3   OH238566   0.429   0.225  10.520  0.3419 -0.0934  0.1480
 5692TIP3    H138567   0.385   0.141  10.504  3.1235 -1.6357  0.0009
 5692TIP3    H238568   0.448   0.224  10.614  0.2924  0.4358  0.1653
 5693TIP3   OH238569   6.074   0.334   2.600  0.0910  0.5848  0.3512
 5693TIP3    H138570   6.020   0.390   2.544  0.8515 -0.0895 -1.1299
 5693TIP3    H238571   6.015   0.264   2.628 -1.1093  2.4926  2.9409
 5694TIP3   OH238572   2.056   0.881  13.921 -0.5190 -0.1847  0.2216
 5694TIP3    H138573   2.018   0.793  13.926  0.7752 -0.8165 -0.5465
 5694TIP3    H238574   2.125   0.881  13.988 -0.4303  0.2093  0.1298
 5695TIP3   OH238575   1.144   3.045  13.038  0.0731 -0.2638  1.0053
 5695TIP3    H138576   1.065   3.019  13.085 -0.1469  1.3224  1.5718
 5695TIP3    H238577   1.139   3.141  13.033  0.1886 -0.3029 -2.0868
 5696TIP3   OH238578   5.649   2.708  10.341  0.1113  0.1568  0.8519
 5696TIP3    H138579   5.645   2.668  10.428  0.1692 -2.0279 -0.0884
 5696TIP3    H238580   5.563   2.749  10.331  0.5330  1.5259  2.3787
 5697TIP3   OH238581   3.898   5.106  16.334  0.2527 -0.9551 -0.9934
 5697TIP3    H138582   3.909   5.133  16.425 -0.0441 -0.8594 -0.9857
 5697TIP3    H238583   3.980   5.130  16.291 -0.2376  0.5579 -1.1420
 5698TIP3   OH238584   4.871   2.971   0.463  0.3933 -0.3818  0.3493
 5698TIP3    H138585   4.882   2.889   0.512 -0.6105 -0.7741 -0.0357
 5698TIP3    H238586   4.816   3.025   0.520  0.0064 -0.4779  0.0768
 5699TIP3   OH238587   4.712   3.892   3.581  0.0798  0.0978  0.4459
 5699TIP3    H138588   4.666   3.952   3.639 -3.3071 -1.6963 -0.1130
 5699TIP3    H238589   4.799   3.882   3.619 -0.7895  1.7807  3.0977
 5700TIP3   OH238590   0.208   1.585  11.693  0.1909  0.3383 -0.8033
 5700TIP3    H138591   0.285   1.642  11.697  1.1223 -0.9297  0.2722
 5700TIP3    H238592   0.226   1.525  11.621 -0.1699  0.5581 -1.0766
 5701TIP3   OH238593   5.823   6.429   6.150  0.0062  0.2920 -0.6242
 5701TIP3    H138594   5.831   6.499   6.085 -1.9849 -0.6002 -1.9380
 5701TIP3    H238595   5.755   6.459   6.210 -1.9953 -1.0362 -2.0798
 5702TIP3   OH238596   5.164   3.868   0.319  0.4867 -0.1202  0.5330
 5702TIP3    H138597   5.234   3.929   0.294 -1.0440  1.1381 -0.9275
 5702TIP3    H238598   5.160   3.805   0.248  0.5539 -0.5890  0.9367
 5703TIP3   OH238599   4.305   5.083  12.074  0.5049  0.1913 -0.4239
 5703TIP3    H138600   4.266   5.045  12.152  0.3738  1.7209  0.3007
 5703TIP3    H238601   4.343   5.166  12.105 -0.0587  1.1064 -2.0923
 5704TIP3   OH238602   5.486   0.198   0.868 -0.4794 -0.1150 -0.5454
 5704TIP3    H138603   5.476   0.147   0.787  0.8626 -0.8350 -0.2882
 5704TIP3    H238604   5.548   0.268   0.845  1.4468 -1.4503  0.2865
 5705TIP3   OH238605   2.022   2.180   4.986 -0.1012 -0.4433  0.1770
 5705TIP3    H138606   1.981   2.255   4.944  0.5018  1.3611  2.5748
 5705TIP3    H238607   2.090   2.152   4.925 -0.8112  0.4829 -1.0846
 5706TIP3   OH238608   6.566   5.628  12.929 -0.5182  0.2091 -0.3704
 5706TIP3    H138609   6.542   5.702  12.984  1.8215 -0.0373  1.1598
 5706TIP3    H238610   6.484   5.598  12.891 -1.8161  2.2423  0.6736
 5707TIP3   OH238611   4.223   2.530   0.404  0.3494  0.6894  0.2133
 5707TIP3    H138612   4.244   2.520   0.311  0.0301  0.3515  0.1768
 5707TIP3    H238613   4.138   2.575   0.405  1.0958  2.1681  0.3635
 5708TIP3   OH238614   5.160   5.227  11.217  0.8279 -0.2074 -0.0991
 5708TIP3    H138615   5.237   5.233  11.160  0.9341  0.0491  0.0670
 5708TIP3    H238616   5.191   5.260  11.302 -0.4586  3.8380 -0.9879
 5709TIP3   OH238617   2.397   1.583  12.724  0.4346 -0.1697  0.2829
 5709TIP3    H138618   2.434   1.638  12.793  1.9922  0.6331 -1.1194
 5709TIP3    H238619   2.326   1.636  12.687  1.0729  0.3665 -0.1969
 5710TIP3   OH238620   0.083   0.775  11.719 -0.0025 -0.0530 -0.1232
 5710TIP3    H138621  -0.001   0.729  11.716  0.6657 -1.2709 -0.9431
 5710TIP3    H238622   0.088   0.810  11.808 -0.8577 -0.9525  0.2950
 5711TIP3   OH238623   5.305   5.894  11.180  0.1485  0.3818  0.4364
 5711TIP3    H138624   5.265   5.861  11.261 -1.7929 -0.7994 -0.9088
 5711TIP3    H238625   5.243   5.960  11.148 -0.5952 -1.1143 -1.4340
 5712TIP3   OH238626   2.900   0.788   1.324  0.1851 -0.3468 -0.8713
 5712TIP3    H138627   2.904   0.856   1.391  0.1020  0.1511 -1.3694
 5712TIP3    H238628   2.928   0.708   1.369  1.1069  0.1787 -0.4872
 5713TIP3   OH238629   6.339   0.499   2.853 -0.0528 -0.2596 -0.1603
 5713TIP3    H138630   6.345   0.587   2.889  2.2795  0.3162 -1.7382
 5713TIP3    H238631   6.374   0.443   2.922 -1.2156  0.0310  0.7115
 5714TIP3   OH238632   4.066   3.517  13.825 -0.2746  0.2189 -0.0977
 5714TIP3    H138633   4.081   3.424  13.812 -3.2868 -0.7570  2.2194
 5714TIP3    H238634   4.118   3.539  13.902  0.9533  0.7046 -1.0218
 5715TIP3   OH238635   3.234   3.973   2.387  0.1522 -0.3216  0.0198
 5715TIP3    H138636   3.304   4.038   2.393 -0.2548  0.1395 -0.1749
 5715TIP3    H238637   3.218   3.963   2.293 -0.5533  0.1321  0.0875
 5716TIP3   OH238638   0.350   3.940  13.125  0.0670  0.1367  0.2928
 5716TIP3    H138639   0.328   3.856  13.084 -0.0286  0.3124 -0.0129
 5716TIP3    H238640   0.290   3.946  13.200  0.1380 -0.1113  0.3715
 5717TIP3   OH238641   3.197   1.503   2.477 -0.2716  0.4385 -0.4382
 5717TIP3    H138642   3.239   1.481   2.560 -0.7583 -0.2545 -0.3712
 5717TIP3    H238643   3.237   1.586   2.451 -0.5236  0.9492  0.7619
 5718TIP3   OH238644   2.869   5.236  11.794 -0.3030  0.3823  0.3456
 5718TIP3    H138645   2.801   5.247  11.728  0.6909 -1.3404 -1.0334
 5718TIP3    H238646   2.822   5.234  11.877 -1.7247  1.1195 -0.4075
 5719TIP3   OH238647   6.706   0.701   4.448 -0.2834 -0.3671  0.0717
 5719TIP3    H138648   6.647   0.631   4.420 -0.0537 -0.9982  1.1219
 5719TIP3    H238649   6.683   0.717   4.540 -0.1567  0.7610 -0.0796
 5720TIP3   OH238650   3.624   1.952   1.534  0.0385  0.4015  0.2024
 5720TIP3    H138651   3.558   1.919   1.473  1.3073 -0.0478 -0.9942
 5720TIP3    H238652   3.646   2.039   1.499  1.8008 -0.4265 -0.8987
 5721TIP3   OH238653   1.515   5.496  10.781  0.2469 -0.1600 -0.4729
 5721TIP3    H138654   1.423   5.482  10.801  0.2414  1.5844  0.9043
 5721TIP3    H238655   1.560   5.488  10.865  0.8367  2.5966 -0.4267
 5722TIP3   OH238656   5.580   0.918   1.552  0.4565  0.8919  0.3436
 5722TIP3    H138657   5.599   0.868   1.631  1.4287 -1.0084 -1.0032
 5722TIP3    H238658   5.485   0.925   1.549  0.3949  0.6268  1.4523
 5723TIP3   OH238659   5.410   6.751  16.587 -0.7436 -0.2317  0.1825
 5723TIP3    H138660   5.348   6.802  16.535  0.3430 -0.3382 -1.2948
 5723TIP3    H238661   5.496   6.789  16.565 -0.3189  0.6379  2.9860
 5724TIP3   OH238662   1.908   4.754   2.816  0.2427  0.3104 -0.0251
 5724TIP3    H138663   1.825   4.738   2.771 -0.3878  0.2473  1.1231
 5724TIP3    H238664   1.887   4.745   2.909  1.1313  2.0300  0.3870
 5725TIP3   OH238665   6.517   1.395  12.806  0.6626  0.2419 -0.3385
 5725TIP3    H138666   6.529   1.487  12.786 -1.6555  0.5962 -0.3788
 5725TIP3    H238667   6.503   1.353  12.721 -0.0312  0.1761 -0.2005
 5726TIP3   OH238668   5.472   6.775   3.343  0.1004 -0.6846  0.2246
 5726TIP3    H138669   5.386   6.738   3.323  0.1231 -0.7098  0.1739
 5726TIP3    H238670   5.529   6.699   3.352 -0.1363 -0.7521  1.4706
 5727TIP3   OH238671   6.714   3.693   5.388  0.4241 -0.1069 -0.4842
 5727TIP3    H138672   6.655   3.700   5.463 -0.5846  1.1389 -1.3508
 5727TIP3    H238673   6.801   3.705   5.425  0.1388 -1.4343  0.7454
 5728TIP3   OH238674   3.538   0.940  12.195  0.0813  0.1998  0.1613
 5728TIP3    H138675   3.449   0.974  12.184 -0.5640 -1.5567 -0.2882
 5728TIP3    H238676   3.582   0.965  12.114  0.1139  1.3491  0.5138
 5729TIP3   OH238677   6.269   6.626   5.247  0.0052 -0.5087 -0.1018
 5729TIP3    H138678   6.216   6.667   5.316  0.8250  0.3215  0.0432
 5729TIP3    H238679   6.350   6.601   5.291  0.8905  0.7998 -0.9296
 5730TIP3   OH238680   1.002   3.967  15.034  0.2086  0.0910 -0.5299
 5730TIP3    H138681   1.061   3.936  14.965  0.5003 -0.0557 -0.2188
 5730TIP3    H238682   0.979   3.888  15.083 -0.0809  0.1796 -0.5198
 5731TIP3   OH238683   2.943   4.310  14.371  0.3063 -0.2243  0.2951
 5731TIP3    H138684   2.884   4.239  14.346 -0.1113  0.3257 -0.3091
 5731TIP3    H238685   3.006   4.315  14.300  0.9245 -0.6206  0.8035
 5732TIP3   OH238686   4.191   1.719   6.115 -0.3185  0.6365 -0.3708
 5732TIP3    H138687   4.179   1.692   6.024  1.2226  0.1699 -0.4645
 5732TIP3    H238688   4.162   1.810   6.117  1.9489  1.4895 -1.9673
 5733TIP3   OH238689   4.856   4.371   2.707  0.2869 -0.2953 -0.2685
 5733TIP3    H138690   4.908   4.448   2.730  0.0787  0.4005 -1.9785
 5733TIP3    H238691   4.918   4.313   2.662  0.1248 -0.5039 -0.2205
 5734TIP3   OH238692   6.703   2.562   1.103  0.3931  0.1349  0.0449
 5734TIP3    H138693   6.701   2.529   1.193  1.6867 -0.1129  0.0062
 5734TIP3    H238694   6.763   2.636   1.106 -0.1804  0.6341 -0.4701
 5735TIP3   OH238695   1.745   0.632  13.753 -0.1452  0.1381 -0.4614
 5735TIP3    H138696   1.654   0.616  13.779 -0.2785  0.2839 -0.8412
 5735TIP3    H238697   1.789   0.654  13.835 -0.4953  0.2663 -0.3064
 5736TIP3   OH238698   5.783   4.355   2.419 -0.1534 -0.3521  0.2389
 5736TIP3    H138699   5.878   4.351   2.402 -0.1142 -3.0452  0.5869
 5736TIP3    H238700   5.743   4.334   2.335 -0.5181  1.6255 -0.1162
 5737TIP3   OH238701   5.513   0.197  14.224 -0.2168  0.5106  0.3119
 5737TIP3    H138702   5.472   0.157  14.147  1.7449 -1.9664  0.4296
 5737TIP3    H238703   5.504   0.131  14.293  2.8140  0.2881  0.6279
 5738TIP3   OH238704   3.942   4.305   6.016 -0.2462 -0.0960 -0.0153
 5738TIP3    H138705   3.910   4.344   6.098  0.0749 -1.1893  0.6528
 5738TIP3    H238706   3.985   4.224   6.044 -0.5769 -0.7391 -1.3332
 5739TIP3   OH238707   1.522   0.330  15.600  0.8032 -0.0711 -0.1487
 5739TIP3    H138708   1.427   0.329  15.589  0.5428  0.6133  1.7310
 5739TIP3    H238709   1.556   0.350  15.513 -0.7548 -0.4568 -0.8815
 5740TIP3   OH238710   2.576   0.122  12.721 -0.8066  0.0595  0.0328
 5740TIP3    H138711   2.658   0.083  12.748 -1.4996  1.0612  4.2137
 5740TIP3    H238712   2.545   0.067  12.649  2.5097 -1.4736 -0.3684
 5741TIP3   OH238713   1.441   5.789  10.811  0.2835  0.5473 -0.2839
 5741TIP3    H138714   1.383   5.780  10.887  1.0750  0.4482  0.3284
 5741TIP3    H238715   1.443   5.883  10.793 -0.0074  0.5583 -0.2570
 5742TIP3   OH238716   2.130   3.637   6.467 -0.0055  0.7014 -0.0185
 5742TIP3    H138717   2.139   3.724   6.427 -0.6116 -0.3074 -2.5852
 5742TIP3    H238718   2.061   3.648   6.533  0.1645  2.2343 -0.0618
 5743TIP3   OH238719   0.369   3.282   5.730 -0.0316  0.4193  0.2062
 5743TIP3    H138720   0.465   3.281   5.735  0.2044 -3.0022 -1.8475
 5743TIP3    H238721   0.343   3.349   5.794  3.6535  1.1169  1.2542
 5744TIP3   OH238722   5.979   4.285  12.028 -0.0345 -0.4953  1.1910
 5744TIP3    H138723   5.906   4.278  11.968 -0.4683  0.4737  1.5861
 5744TIP3    H238724   6.020   4.370  12.008  2.1724 -1.8135 -0.3221
 5745TIP3   OH238725   1.645   4.117  11.292  0.2960  0.4224 -0.2542
 5745TIP3    H138726   1.681   4.058  11.225  0.5089 -1.2376  1.2549
 5745TIP3    H238727   1.558   4.140  11.259  0.2301 -0.6900 -0.9222
 5746TIP3   OH238728   5.797   3.704  11.837 -0.0308  0.4251  0.2073
 5746TIP3    H138729   5.822   3.764  11.766  3.9217 -0.0927  0.9507
 5746TIP3    H238730   5.812   3.754  11.917  2.0013 -1.0003  0.7933
 5747TIP3   OH238731   6.106   5.975  12.987 -0.8503  0.0719  0.0040
 5747TIP3    H138732   6.029   6.027  13.009 -1.5290 -0.7572 -0.3546
 5747TIP3    H238733   6.071   5.889  12.963  0.1924 -0.3454 -0.0819
 5748TIP3   OH238734   3.847   6.717  12.831 -0.4711 -0.2636 -0.0705
 5748TIP3    H138735   3.917   6.656  12.810 -1.1115 -0.7815 -0.7907
 5748TIP3    H238736   3.889   6.803  12.832  0.4573 -0.7095  1.0220
 5749TIP3   OH238737   5.116   3.902  16.803 -0.1492  0.2776  0.5479
 5749TIP3    H138738   5.097   3.816  16.765  2.3288 -1.0732  2.0530
 5749TIP3    H238739   5.133   3.958  16.727  1.0363 -1.3717 -0.4916
 5750TIP3   OH238740   1.803   5.289   0.961 -0.5593 -0.5731 -0.0909
 5750TIP3    H138741   1.815   5.201   0.995  0.0048 -0.4355  0.0805
 5750TIP3    H238742   1.871   5.299   0.894 -0.6895 -0.3091 -0.1868
 5751TIP3   OH238743   0.129   1.284  13.874  0.5083 -0.3340  0.4197
 5751TIP3    H138744   0.147   1.280  13.780  2.7415  0.3878  0.7491
 5751TIP3    H238745   0.101   1.195  13.897 -0.9578 -0.2970 -1.0426
 5752TIP3   OH238746   3.095   0.633   4.389 -0.4970 -0.3300 -1.1185
 5752TIP3    H138747   3.066   0.561   4.444 -1.0205  0.6616 -0.0403
 5752TIP3    H238748   3.070   0.608   4.300 -0.4860 -1.5432 -0.7885
 5753TIP3   OH238749   5.572   0.114   3.218 -0.1796  0.0872 -0.2618
 5753TIP3    H138750   5.638   0.147   3.279  1.0956 -0.3056 -1.3786
 5753TIP3    H238751   5.525   0.047   3.268 -0.6127  1.2385  0.9530
 5754TIP3   OH238752   6.041   4.596  13.925  0.1066  0.4167  0.1631
 5754TIP3    H138753   6.015   4.505  13.912  0.0712  0.6462 -1.6258
 5754TIP3    H238754   5.961   4.640  13.956 -0.5971  0.3183 -1.4294
 5755TIP3   OH238755   4.952   0.243  11.154  0.3023  1.0419  0.3513
 5755TIP3    H138756   4.865   0.204  11.141  0.8531 -1.0291  2.1647
 5755TIP3    H238757   4.986   0.257  11.066 -0.8461 -0.5807 -0.3999
 5756TIP3   OH238758   1.809   3.100  16.750 -0.0245 -0.5317  0.0887
 5756TIP3    H138759   1.834   3.147  16.671 -1.7106  1.8914  0.8798
 5756TIP3    H238760   1.797   3.009  16.722 -0.8843  0.3143 -2.5312
 5757TIP3   OH238761   5.123   6.651   6.718 -0.0598 -0.5373  0.4797
 5757TIP3    H138762   5.098   6.653   6.625 -2.5899  1.7151  1.0686
 5757TIP3    H238763   5.196   6.713   6.724  0.2491 -0.8451 -0.0230
 5758TIP3   OH238764   1.995   1.432  14.212  0.1256  0.4762 -0.0100
 5758TIP3    H138765   2.021   1.501  14.152 -1.5403  2.1859  1.0910
 5758TIP3    H238766   1.908   1.406  14.182 -0.0181  0.1622  0.6553
 5759TIP3   OH238767   2.222   0.797  14.399  0.1592 -0.4107 -0.0287
 5759TIP3    H138768   2.214   0.835  14.487  0.6706 -1.8791  0.6818
 5759TIP3    H238769   2.260   0.867  14.346  2.2080 -0.2573  1.5188
 5760TIP3   OH238770   4.008   5.592   0.172 -0.1112  0.2097 -0.9274
 5760TIP3    H138771   4.058   5.513   0.188 -0.1397  0.1659 -1.0478
 5760TIP3    H238772   4.074   5.660   0.154 -0.0041  0.6608  1.0306
 5761TIP3   OH238773   6.072   4.989  12.574  0.6850 -0.2650  0.3499
 5761TIP3    H138774   6.010   4.965  12.643 -1.2559  0.9679 -0.8847
 5761TIP3    H238775   6.028   4.967  12.492  1.4835  1.4544 -0.6069
 5762TIP3   OH238776   0.588   1.839   0.724  0.0400  0.2387 -0.4963
 5762TIP3    H138777   0.496   1.862   0.735 -0.9650 -2.6339 -1.9285
 5762TIP3    H238778   0.614   1.802   0.808  0.6629  3.0685  0.6660
 5763TIP3   OH238779   2.487   3.428   3.019  0.3311  0.3721 -0.0292
 5763TIP3    H138780   2.487   3.333   3.033 -1.6664  0.6178  2.2937
 5763TIP3    H238781   2.394   3.452   3.015  0.7768  2.3035  0.0993
 5764TIP3   OH238782   6.066   1.839  12.684 -0.7022 -0.2826 -0.0299
 5764TIP3    H138783   6.002   1.848  12.614 -0.6610  0.6104  0.0387
 5764TIP3    H238784   6.129   1.908  12.669 -0.6379 -0.1374  0.8301
 5765TIP3   OH238785   2.104   2.043   3.002  0.2695 -0.2756 -0.4046
 5765TIP3    H138786   2.017   2.082   3.007  1.1489  1.6551  1.8513
 5765TIP3    H238787   2.097   1.961   3.051 -0.4094 -0.4846 -0.8349
 5766TIP3   OH238788   0.399   2.611   3.034  0.5499  0.3381 -0.0276
 5766TIP3    H138789   0.426   2.589   3.124 -0.6513  2.7451  1.0256
 5766TIP3    H238790   0.475   2.657   2.998  1.2061 -1.0322 -0.4470
 5767TIP3   OH238791   1.611   4.630   5.280  0.3228 -0.2962  0.5664
 5767TIP3    H138792   1.642   4.541   5.297  0.7274 -0.3311 -0.3044
 5767TIP3    H238793   1.688   4.685   5.292  0.1027 -0.0682  0.9736
 5768TIP3   OH238794   6.789   4.715  12.383  0.1001  0.2032 -0.0552
 5768TIP3    H138795   6.866   4.661  12.399  0.0815  0.9370  3.4220
 5768TIP3    H238796   6.784   4.772  12.460 -3.0856  1.1774 -0.8391
 5769TIP3   OH238797   4.880   5.818  16.326 -0.3055 -0.3209 -0.4098
 5769TIP3    H138798   4.836   5.769  16.395 -0.6914  1.3946  0.6138
 5769TIP3    H238799   4.809   5.855  16.273 -0.0873  1.0356  0.2204
 5770TIP3   OH238800   5.647   1.624  16.596 -0.1273 -0.5110 -0.7497
 5770TIP3    H138801   5.551   1.625  16.604 -0.0769 -0.7662 -0.0497
 5770TIP3    H238802   5.677   1.692  16.656  0.1634 -0.8967 -0.4545
 5771TIP3   OH238803   4.702   6.655   4.441  0.2793  0.1117  0.1389
 5771TIP3    H138804   4.760   6.580   4.454  1.1804  0.8333  0.3764
 5771TIP3    H238805   4.695   6.664   4.346  3.1268  1.8842 -0.0296
 5772TIP3   OH238806   1.553   0.773  14.284 -0.4404  0.5576  0.1846
 5772TIP3    H138807   1.458   0.767  14.287 -0.4893  0.6680 -0.7891
 5772TIP3    H238808   1.576   0.835  14.353 -1.2026  1.7577 -0.6160
 5773TIP3   OH238809   6.320   2.787   5.120  0.4468  0.4207 -0.7859
 5773TIP3    H138810   6.241   2.789   5.174  0.1416  1.6736 -1.2373
 5773TIP3    H238811   6.315   2.704   5.074 -1.6211  1.2525 -2.2231
 5774TIP3   OH238812   4.710   6.598  13.109 -0.0108  0.3861  0.5048
 5774TIP3    H138813   4.649   6.628  13.041 -0.5671 -0.2658  0.7028
 5774TIP3    H238814   4.654   6.551  13.171  0.6640  0.0132  0.8298
 5775TIP3   OH238815   3.776   5.811   1.392  0.0654 -0.7018  0.2606
 5775TIP3    H138816   3.842   5.794   1.459 -1.1646  1.1249  2.0591
 5775TIP3    H238817   3.716   5.737   1.397  1.9578 -2.5100 -1.5623
 5776TIP3   OH238818   1.752   2.646   0.780 -0.3795 -0.1978 -0.2047
 5776TIP3    H138819   1.811   2.709   0.823  1.3067 -1.4447 -0.5964
 5776TIP3    H238820   1.695   2.616   0.850 -1.4750  1.9859 -0.0705
 5777TIP3   OH238821   6.004   2.248  14.962  0.2875  0.2048 -0.6190
 5777TIP3    H138822   6.057   2.184  15.009  1.5677  2.7620  1.7054
 5777TIP3    H238823   5.913   2.220  14.976  0.8212 -1.4712 -0.3231
 5778TIP3   OH238824   1.765   2.289  10.508 -0.1534 -0.1706 -0.2230
 5778TIP3    H138825   1.849   2.288  10.461 -0.1996  2.7019 -0.5629
 5778TIP3    H238826   1.787   2.256  10.596  0.6715 -2.2082 -1.1254
 5779TIP3   OH238827   3.792   2.987  13.055 -0.1093  0.1796  0.1867
 5779TIP3    H138828   3.756   2.975  12.967  0.8477 -1.9261  0.0162
 5779TIP3    H238829   3.822   2.900  13.081  3.3701  1.4179  0.9307
 5780TIP3   OH238830   6.544   4.065  12.457 -0.2334  0.4686  0.0812
 5780TIP3    H138831   6.537   4.159  12.473 -0.2268  0.4450  0.2208
 5780TIP3    H238832   6.483   4.049  12.384 -1.7045  0.2724  1.2971
 5781TIP3   OH238833   3.726   0.529   6.819  0.1296  0.0949 -0.2150
 5781TIP3    H138834   3.721   0.445   6.865  2.0461  0.5795  0.9891
 5781TIP3    H238835   3.820   0.545   6.809 -0.2186  1.5564 -1.4644
 5782TIP3   OH238836   1.181   1.323   2.207  0.4818 -0.5536  0.4934
 5782TIP3    H138837   1.266   1.367   2.200  0.8834 -1.5070 -1.2067
 5782TIP3    H238838   1.194   1.255   2.272  0.5741  0.2504  1.3281
 5783TIP3   OH238839   1.004   3.188   1.839 -0.8695  0.3817  0.0417
 5783TIP3    H138840   0.954   3.217   1.763 -0.8558 -1.1545 -0.6013
 5783TIP3    H238841   1.007   3.092   1.830  1.5749  0.3610  0.4265
 5784TIP3   OH238842   1.810   0.203  10.656 -1.0370 -0.4625  0.5919
 5784TIP3    H138843   1.790   0.217  10.563 -0.0124 -1.6516  0.1763
 5784TIP3    H238844   1.879   0.266  10.675 -1.1454 -0.3190  0.5171
 5785TIP3   OH238845   6.570   4.629  12.228 -0.1926 -0.0120  0.0551
 5785TIP3    H138846   6.518   4.654  12.304  1.8718 -1.2317  1.9794
 5785TIP3    H238847   6.660   4.625  12.261  0.6660 -1.4869 -2.2398
 5786TIP3   OH238848   4.406   2.485  10.499 -0.2340  0.0158 -0.1090
 5786TIP3    H138849   4.410   2.393  10.473 -1.2145  0.0716 -0.4965
 5786TIP3    H238850   4.490   2.502  10.541  0.4210 -0.7449 -1.0810
 5787TIP3   OH238851   0.970   2.660   6.499  0.2708 -0.4607 -0.1378
 5787TIP3    H138852   0.984   2.599   6.427  0.2104 -0.0562 -0.4946
 5787TIP3    H238853   1.024   2.626   6.570 -0.7378 -1.6565  0.1005
 5788TIP3   OH238854   6.721   4.102   5.030  0.4190  0.3916  0.4516
 5788TIP3    H138855   6.655   4.110   5.099 -0.0392 -1.9117  0.3454
 5788TIP3    H238856   6.793   4.159   5.059 -0.4891  0.8580  1.9047
 5789TIP3   OH238857   0.092   6.855   4.816 -0.2296  0.3589 -0.8474
 5789TIP3    H138858   0.099   6.841   4.721  0.4438  3.8003 -1.4528
 5789TIP3    H238859   0.177   6.892   4.840 -0.3935 -0.4634  1.1412
 5790TIP3   OH238860   1.799   5.175  10.646 -0.4173  0.1083  0.0034
 5790TIP3    H138861   1.848   5.176  10.728  0.6981 -0.2735 -0.6357
 5790TIP3    H238862   1.773   5.266  10.631 -0.1749  0.2609  0.5082
 5791TIP3   OH238863   5.973   4.758   5.659  0.2820  0.0346 -0.3914
 5791TIP3    H138864   6.062   4.730   5.638  0.2278  0.9557 -2.0057
 5791TIP3    H238865   5.930   4.766   5.574 -0.7483  1.5464  0.2284
 5792TIP3   OH238866   1.321   5.933   6.549 -0.4262 -0.1389 -0.2823
 5792TIP3    H138867   1.269   5.859   6.520  1.9582 -2.5457  1.1795
 5792TIP3    H238868   1.377   5.955   6.475 -0.5973 -0.3042 -0.4603
 5793TIP3   OH238869   3.973   3.078   6.370 -0.5931  0.3050  0.0233
 5793TIP3    H138870   3.940   3.054   6.283  1.6758  0.1706 -0.8724
 5793TIP3    H238871   3.901   3.127   6.411 -1.2625  1.5166 -2.4323
 5794TIP3   OH238872   6.009   2.804   5.806 -0.7784 -0.4859  0.4067
 5794TIP3    H138873   6.038   2.748   5.878 -0.9372 -2.0501 -0.6911
 5794TIP3    H238874   6.049   2.889   5.823  1.1955 -1.4879  1.0444
 5795TIP3   OH238875   2.569   4.277  14.575 -0.2975 -0.2431 -0.1835
 5795TIP3    H138876   2.560   4.324  14.493 -2.0239  1.5719  0.9522
 5795TIP3    H238877   2.613   4.338  14.634 -1.5998 -0.3925  1.0162
 5796TIP3   OH238878   0.656   6.617   0.774 -0.6659 -0.1038  0.2128
 5796TIP3    H138879   0.617   6.552   0.833 -1.4337  0.3417  0.2147
 5796TIP3    H238880   0.679   6.690   0.831 -0.1640 -0.2203  0.1567
 5797TIP3   OH238881   1.982   6.491   5.388  0.0172 -0.5203 -0.2419
 5797TIP3    H138882   1.928   6.426   5.343  0.0144  0.7780 -2.2713
 5797TIP3    H238883   2.049   6.514   5.324  1.5503 -0.3529  1.3714
 5798TIP3   OH238884   1.446   4.211  10.452 -0.1539 -0.8221 -0.5345
 5798TIP3    H138885   1.457   4.256  10.536 -0.2221 -2.0489  0.1633
 5798TIP3    H238886   1.358   4.233  10.424 -0.3169 -0.8146 -0.0225
 5799TIP3   OH238887   5.901   0.151  14.725 -0.0033  0.5992 -0.5816
 5799TIP3    H138888   5.858   0.232  14.750 -0.6060  0.0079  0.3528
 5799TIP3    H238889   5.901   0.098  14.805 -0.8029 -0.8338 -1.4863
 5800TIP3   OH238890   6.607   0.407  16.438  0.5671  0.3299 -0.1431
 5800TIP3    H138891   6.693   0.370  16.459 -0.0368 -0.7938  0.4356
 5800TIP3    H238892   6.567   0.343  16.380  0.2052  0.9573 -0.5907
 5801TIP3   OH238893   4.050   1.720   5.799 -0.5653 -0.1306  0.3524
 5801TIP3    H138894   3.980   1.726   5.864 -1.0140 -0.1632 -0.1212
 5801TIP3    H238895   4.011   1.751   5.718 -0.2492 -0.8326 -0.0847
 5802TIP3   OH238896   3.135   3.995  12.101 -0.2053  0.1955 -0.0865
 5802TIP3    H138897   3.198   3.981  12.172  0.5863 -1.0535 -0.9813
 5802TIP3    H238898   3.173   4.066  12.048 -0.0516  0.1293 -0.0654
 5803TIP3   OH238899   1.683   2.939   3.360  0.6265 -0.1422  0.1639
 5803TIP3    H138900   1.698   2.994   3.284 -1.1184  1.3948  0.8575
 5803TIP3    H238901   1.735   2.979   3.429 -1.0072  1.0462  0.7922
 5804TIP3   OH238902   4.437   2.038   1.033  0.0125  0.5508 -0.1460
 5804TIP3    H138903   4.442   2.063   0.940 -0.2021 -0.7999 -0.5335
 5804TIP3    H238904   4.509   1.976   1.045  1.8212  2.7434  1.3078
 5805TIP3   OH238905   5.739   1.925  14.884 -0.8328  0.3194 -0.6863
 5805TIP3    H138906   5.809   1.870  14.918 -1.4221  0.4669  0.8483
 5805TIP3    H238907   5.687   1.866  14.829 -0.7587 -0.3703 -0.0396
 5806TIP3   OH238908   4.131   5.008  15.766  0.0889  0.0218  0.2844
 5806TIP3    H138909   4.121   4.919  15.800  1.0903 -0.0030  0.5403
 5806TIP3    H238910   4.221   5.012  15.734 -0.1302  0.7644 -0.2773
 5807TIP3   OH238911   1.197   0.372   0.405 -0.5358  0.1244  0.1738
 5807TIP3    H138912   1.146   0.302   0.366 -1.0482  0.6026 -0.0236
 5807TIP3    H238913   1.288   0.349   0.386 -0.7452  0.0107 -0.7185
 5808TIP3   OH238914   0.986   5.823   4.199 -0.4591 -0.8247  0.1686
 5808TIP3    H138915   1.053   5.787   4.141 -0.1409 -2.1901  1.3260
 5808TIP3    H238916   1.034   5.869   4.267 -0.7990  0.0519 -0.1665
 5809TIP3   OH238917   0.879   4.486   2.338 -0.4682 -0.0834 -0.1028
 5809TIP3    H138918   0.836   4.465   2.422  0.1864 -1.7499 -0.1544
 5809TIP3    H238919   0.966   4.516   2.363 -1.0611  1.7560 -0.0905
 5810TIP3   OH238920   6.319   5.389  13.241 -0.2705 -0.0273 -0.0702
 5810TIP3    H138921   6.267   5.367  13.318 -1.2406  0.0693 -0.6817
 5810TIP3    H238922   6.268   5.457  13.196  1.6303  2.0229  0.6668
 5811TIP3   OH238923   3.726   6.092  13.553  0.0379  0.2791 -0.5438
 5811TIP3    H138924   3.691   6.057  13.470  0.0823 -1.7838  0.2394
 5811TIP3    H238925   3.818   6.109  13.535  0.6319 -2.3096 -0.3998
 5812TIP3   OH238926   5.343   1.348  11.697  0.1498 -0.0969  0.5975
 5812TIP3    H138927   5.268   1.310  11.742  1.2097 -1.3884  1.3355
 5812TIP3    H238928   5.392   1.392  11.766  0.5447 -0.0449  0.2837
 5813TIP3   OH238929   3.621   1.121  15.861 -0.2685  0.0091  0.2208
 5813TIP3    H138930   3.661   1.116  15.774  0.5029 -0.4856  0.5828
 5813TIP3    H238931   3.689   1.086  15.919 -0.2675  1.5381  1.1866
 5814TIP3   OH238932   4.911   3.812  11.571 -0.1210 -0.3402  0.2276
 5814TIP3    H138933   4.892   3.906  11.567 -1.5152 -0.6466 -1.1968
 5814TIP3    H238934   4.831   3.773  11.605  0.6437 -1.0036  1.3475
 5815TIP3   OH238935   2.782   0.441   4.070 -0.0995 -0.4354  0.3917
 5815TIP3    H138936   2.841   0.500   4.116 -1.3734  0.9983  0.2556
 5815TIP3    H238937   2.755   0.378   4.137 -0.1486  0.2499  1.0286
 5816TIP3   OH238938   2.577   2.537  13.933 -0.7644 -0.2361 -0.2636
 5816TIP3    H138939   2.607   2.448  13.952 -1.0067 -0.4440 -0.8332
 5816TIP3    H238940   2.656   2.590  13.933 -0.7505 -0.2286  1.2725
 5817TIP3   OH238941   6.845   0.606   0.400 -0.2153 -0.2435 -0.1433
 5817TIP3    H138942   6.815   0.545   0.332 -0.9578 -0.9901  0.8153
 5817TIP3    H238943   6.862   0.550   0.476  0.1052  0.6314  0.4437
 5818TIP3   OH238944   6.774   2.307  14.336  0.1218 -0.4090 -0.1303
 5818TIP3    H138945   6.858   2.353  14.335 -0.4996  0.7578 -0.7465
 5818TIP3    H238946   6.743   2.316  14.426 -0.3840  1.1832 -0.4198
 5819TIP3   OH238947   2.604   5.941  12.951 -0.0399  0.2672  0.6315
 5819TIP3    H138948   2.514   5.959  12.979 -1.1340 -1.6676 -1.3353
 5819TIP3    H238949   2.652   5.928  13.032 -2.2751 -1.7957  1.7343
 5820TIP3   OH238950   2.617   4.718  15.638  0.1710  0.2834 -0.1073
 5820TIP3    H138951   2.573   4.800  15.659  2.3120  0.8193  2.9126
 5820TIP3    H238952   2.619   4.670  15.720  1.9155 -1.3244 -0.9998
 5821TIP3   OH238953   6.288   6.213  16.499  0.0712 -0.6946  0.8583
 5821TIP3    H138954   6.207   6.196  16.546 -0.0877  0.4049  1.0023
 5821TIP3    H238955   6.281   6.159  16.420 -0.7533 -0.6906  0.9173
 5822TIP3   OH238956   4.969   5.357  10.951  0.6004  0.5625 -0.2534
 5822TIP3    H138957   4.894   5.348  10.893  1.0028  2.3627 -1.1342
 5822TIP3    H238958   4.941   5.319  11.034 -0.8276  0.0981 -0.9209
 5823TIP3   OH238959   4.393   0.714  11.445  0.3868  0.3522 -0.6170
 5823TIP3    H138960   4.438   0.778  11.500 -0.3928 -0.0503  0.5221
 5823TIP3    H238961   4.314   0.759  11.415  0.8454  0.5978 -1.5086
 5824TIP3   OH238962   1.279   2.699   4.325 -0.2429 -0.1210  0.1181
 5824TIP3    H138963   1.288   2.748   4.407  0.8010  1.2632 -0.7680
 5824TIP3    H238964   1.303   2.609   4.348  1.3477  0.4976  1.0794
 5825TIP3   OH238965   1.130   0.928   0.834  0.3262  0.2497  1.1309
 5825TIP3    H138966   1.099   1.018   0.845 -2.0070 -0.5633  1.7122
 5825TIP3    H238967   1.099   0.902   0.747  1.7487  0.2460  0.5953
 5826TIP3   OH238968   4.055   2.333  11.127 -0.5143  0.1305 -0.0866
 5826TIP3    H138969   3.991   2.296  11.187 -1.0643  0.9092 -0.1852
 5826TIP3    H238970   4.047   2.280  11.047  0.7670 -1.4300  0.7316
 5827TIP3   OH238971   0.232   5.181  14.649 -0.0492  0.3406 -0.2267
 5827TIP3    H138972   0.262   5.272  14.650 -1.0790  0.6920  0.0990
 5827TIP3    H238973   0.211   5.164  14.557  0.2750  0.3788 -0.3108
 5828TIP3   OH238974   4.260   4.791  15.181 -0.0448  0.5991  0.2206
 5828TIP3    H138975   4.326   4.844  15.136 -0.3554  1.3763  0.6598
 5828TIP3    H238976   4.218   4.740  15.111  0.2910  0.8947 -0.2032
 5829TIP3   OH238977   4.798   3.012   0.032  0.2434 -0.2951  0.0884
 5829TIP3    H138978   4.776   3.005  -0.061  0.6547 -0.4296 -0.0001
 5829TIP3    H238979   4.886   2.976   0.039  0.4923  0.3443  0.4179
 5830TIP3   OH238980   0.417   0.808  11.629  0.4631  0.7529  0.0406
 5830TIP3    H138981   0.471   0.824  11.552 -0.6788  1.8204 -0.5669
 5830TIP3    H238982   0.327   0.816  11.598 -0.0983 -1.2934  0.9686
 5831TIP3   OH238983   3.090   1.502   3.204  0.0482 -0.0070  0.0224
 5831TIP3    H138984   3.012   1.551   3.229 -0.4441 -0.5128 -0.4923
 5831TIP3    H238985   3.125   1.469   3.287 -0.4026  0.0539  0.2403
 5832TIP3   OH238986   5.430   1.103  14.818 -0.4145 -0.2274 -1.2765
 5832TIP3    H138987   5.365   1.035  14.797 -0.3893 -0.3252 -1.0323
 5832TIP3    H238988   5.378   1.177  14.849 -0.3122 -1.0359  0.9978
 5833TIP3   OH238989   0.637   4.748  16.288  0.2894  0.0536 -0.2878
 5833TIP3    H138990   0.584   4.688  16.235  1.2094 -0.5413 -0.5775
 5833TIP3    H238991   0.617   4.835  16.254 -0.1806 -0.2014 -0.6720
 5834TIP3   OH238992   5.467   4.133  14.536 -0.1012  0.2660  0.3587
 5834TIP3    H138993   5.562   4.128  14.550  0.1548  0.1383 -1.2547
 5834TIP3    H238994   5.445   4.225  14.552  0.2357  0.2290  1.0538
 5835TIP3   OH238995   0.117   4.885  15.374 -0.1588 -0.4582 -0.3713
 5835TIP3    H138996   0.069   4.905  15.293  0.0860 -1.0418 -0.6701
 5835TIP3    H238997   0.169   4.807  15.352  0.4663 -0.1900  0.1281
 5836TIP3   OH238998   4.278   0.000   0.556 -0.3580  0.2613  0.0468
 5836TIP3    H138999   4.315   0.068   0.500  4.8357 -1.2843  1.0626
 5836TIP3    H239000   4.239   0.048   0.629 -1.2681  2.1316 -1.5760
 5837TIP3   OH239001   6.471   4.057   0.653  0.0996 -0.0109 -0.3540
 5837TIP3    H139002   6.561   4.034   0.629  0.1395 -0.3909  0.1533
 5837TIP3    H239003   6.477   4.088   0.743 -0.0460  1.4786 -0.8288
 5838TIP3   OH239004   4.717   2.811  13.381 -0.0067  0.1678 -0.2640
 5838TIP3    H139005   4.791   2.809  13.320 -0.1465  0.0574 -0.4301
 5838TIP3    H239006   4.694   2.719  13.394 -0.5828  0.2402 -0.7809
 5839TIP3   OH239007   1.151   5.993  14.866 -0.1824  0.3111  0.0164
 5839TIP3    H139008   1.138   5.999  14.961 -2.2176  2.3959 -0.3059
 5839TIP3    H239009   1.239   5.956  14.856 -0.1698 -0.5787  2.6904
 5840TIP3   OH239010   4.518   4.036  15.495 -0.2176  0.5389  0.3129
 5840TIP3    H139011   4.579   3.969  15.464 -0.0823  0.8874 -0.1872
 5840TIP3    H239012   4.563   4.078  15.568  0.9859  2.0719 -1.2390
 5841TIP3   OH239013   6.600   0.406   3.358 -0.1081 -0.0857  0.4121
 5841TIP3    H139014   6.638   0.411   3.271 -2.3044 -0.8726 -0.6565
 5841TIP3    H239015   6.536   0.335   3.353  0.0074 -0.4635  2.8027
 5842TIP3   OH239016   2.419   0.271   4.454 -0.1761  0.1492 -0.5901
 5842TIP3    H139017   2.351   0.238   4.513 -1.6274 -2.1651 -3.2985
 5842TIP3    H239018   2.490   0.208   4.461 -0.6885 -0.5950 -1.8180
 5843TIP3   OH239019   1.678   3.823  14.585 -0.0930 -0.3740 -0.0035
 5843TIP3    H139020   1.638   3.838  14.499 -0.3745 -0.8166  0.0513
 5843TIP3    H239021   1.734   3.900  14.598 -2.8617  1.6257  1.0499
 5844TIP3   OH239022   4.209   5.451   0.862  0.0630 -0.4453 -0.2780
 5844TIP3    H139023   4.128   5.497   0.884  0.8626  0.8153  0.1299
 5844TIP3    H239024   4.211   5.376   0.921  0.8451  1.4133  2.2496
 5845TIP3   OH239025   2.585   3.039  12.642  0.5709 -0.8034  0.3772
 5845TIP3    H139026   2.615   3.104  12.578  0.6183 -1.9146 -0.7774
 5845TIP3    H239027   2.577   2.958  12.591  0.6340 -1.7333  1.8009
 5846TIP3   OH239028   4.557   4.294  13.632  0.9478 -0.2379 -0.4020
 5846TIP3    H139029   4.615   4.245  13.574  1.3590 -1.0120  0.6416
 5846TIP3    H239030   4.534   4.372  13.582  3.8371  0.7218 -0.4195
 5847TIP3   OH239031   1.157   3.799   4.516  0.7251 -0.7247  0.3571
 5847TIP3    H139032   1.108   3.724   4.482  1.6560 -2.2292  2.1367
 5847TIP3    H239033   1.093   3.845   4.571  0.5001 -0.9416  0.2801
 5848TIP3   OH239034   4.596   1.632  16.157  0.2795  0.1498 -0.4218
 5848TIP3    H139035   4.622   1.689  16.230  1.0341  0.0722 -0.6222
 5848TIP3    H239036   4.533   1.684  16.108 -0.8959 -0.1171  0.7501
 5849TIP3   OH239037   2.846   0.636   0.310  0.2155  0.4185 -0.1554
 5849TIP3    H139038   2.873   0.727   0.298  0.0727  0.3872 -0.7199
 5849TIP3    H239039   2.794   0.616   0.233  0.7308 -0.3237 -0.3193
 5850TIP3   OH239040   4.396   0.608  16.098 -0.2367  0.1666  0.3877
 5850TIP3    H139041   4.383   0.526  16.145 -0.1664  0.0932  0.2809
 5850TIP3    H239042   4.443   0.583  16.018  1.2137  0.5078  1.0935
 5851TIP3   OH239043   2.725   3.793   0.152  0.6407  0.9023  0.1472
 5851TIP3    H139044   2.803   3.767   0.103 -1.0073  0.1044 -2.2127
 5851TIP3    H239045   2.704   3.881   0.120  0.7082  1.2345  0.9877
 5852TIP3   OH239046   5.994   3.588   0.126 -0.0322  0.0502 -0.6697
 5852TIP3    H139047   6.012   3.628   0.211  0.1284  0.2283 -0.7875
 5852TIP3    H239048   6.003   3.494   0.142  0.5649  0.1099 -0.6207
 5853TIP3   OH239049   0.364   6.754  10.708 -0.6429  0.3255  0.0157
 5853TIP3    H139050   0.313   6.762  10.627 -0.2494 -0.4773 -0.3345
 5853TIP3    H239051   0.414   6.835  10.713 -1.0228  0.5804 -0.3077
 5854TIP3   OH239052   3.432   5.855   4.772  0.3143  0.4907  0.8140
 5854TIP3    H139053   3.385   5.898   4.701 -0.5858  2.5911  2.5741
 5854TIP3    H239054   3.513   5.823   4.732 -0.2010  1.5354 -1.1496
 5855TIP3   OH239055   0.245   1.859   5.899  0.6568 -0.2834  0.2600
 5855TIP3    H139056   0.224   1.765   5.900 -1.0276  0.0424 -0.6385
 5855TIP3    H239057   0.163   1.902   5.924  1.4432  0.9612  0.7690
 5856TIP3   OH239058   5.454   2.984  17.014  0.0259 -0.3797  0.2183
 5856TIP3    H139059   5.439   2.896  17.048 -0.7975 -0.7101 -0.9574
 5856TIP3    H239060   5.539   2.980  16.971 -0.1118 -0.6511 -0.0250
 5857TIP3   OH239061   4.175   0.831  11.322 -0.3020  0.2694 -0.0257
 5857TIP3    H139062   4.097   0.885  11.309 -0.5069  1.2154  3.9705
 5857TIP3    H239063   4.248   0.892  11.309 -0.5140  1.4292  3.2498
 5858TIP3   OH239064   6.270   3.308   0.063 -0.0343 -0.9512 -0.3168
 5858TIP3    H139065   6.299   3.389   0.020  1.4199 -1.5184 -0.4395
 5858TIP3    H239066   6.221   3.261  -0.006 -1.9483  0.3183  0.0939
 5859TIP3   OH239067   6.080   1.989   0.980 -0.6838  0.1247 -0.1204
 5859TIP3    H139068   6.003   1.958   0.933 -1.7802 -1.1397  2.2991
 5859TIP3    H239069   6.078   1.940   1.063  3.5175 -1.0609 -0.4907
 5860TIP3   OH239070   5.468   3.270   5.086  0.4278 -0.0255  0.0778
 5860TIP3    H139071   5.444   3.284   4.994 -1.8425  1.9048  0.8581
 5860TIP3    H239072   5.411   3.199   5.115  0.1690  0.2890  0.3391
 5861TIP3   OH239073   2.421   3.072  16.194  0.1710  0.0943 -0.0135
 5861TIP3    H139074   2.350   3.080  16.258  1.0425 -1.5301  1.2296
 5861TIP3    H239075   2.499   3.100  16.242  0.6149  0.4130 -0.8938
 5862TIP3   OH239076   1.791   5.582   1.408  0.1541 -0.0454  0.1970
 5862TIP3    H139077   1.739   5.576   1.488 -0.4766 -1.7784 -0.3082
 5862TIP3    H239078   1.737   5.542   1.341  1.4246 -0.2809 -0.7186
 5863TIP3   OH239079   0.564   1.271  14.740 -0.0747 -0.0580  0.0694
 5863TIP3    H139080   0.571   1.178  14.758 -0.1922 -0.3174 -1.1334
 5863TIP3    H239081   0.513   1.277  14.659 -2.2012  1.1777  1.4026
 5864TIP3   OH239082   6.156   0.768  16.724  0.5228 -0.7025  0.0587
 5864TIP3    H139083   6.159   0.760  16.629 -0.9531 -0.1294 -0.0743
 5864TIP3    H239084   6.214   0.699  16.756 -0.5771 -2.3154 -1.2208
 5865TIP3   OH239085   5.924   6.268   4.649 -0.0170 -0.1362 -0.1260
 5865TIP3    H139086   5.885   6.188   4.685  0.9658 -1.1012 -1.1429
 5865TIP3    H239087   5.857   6.334   4.662 -0.9278 -1.1489  0.5956
 5866TIP3   OH239088   3.085   1.197   0.981 -0.0317 -0.4528 -0.3627
 5866TIP3    H139089   3.079   1.257   0.906  1.5394  0.0470 -0.1266
 5866TIP3    H239090   3.060   1.112   0.945 -2.7859  0.3493 -0.6073
 5867TIP3   OH239091   5.447   4.102   0.560  0.1849  0.2439  0.1747
 5867TIP3    H139092   5.454   4.152   0.641  1.1627 -0.9573  0.8604
 5867TIP3    H239093   5.503   4.025   0.574  0.3816  0.0202 -1.6475
 5868TIP3   OH239094   3.051   5.930  12.667  0.2888 -0.2149 -0.2759
 5868TIP3    H139095   3.038   6.001  12.730 -0.2898 -0.7546  0.2189
 5868TIP3    H239096   3.118   5.964  12.608 -0.3094  0.9305 -0.3285
 5869TIP3   OH239097   1.339   6.281  12.052  0.3093 -0.4951 -0.5410
 5869TIP3    H139098   1.282   6.316  11.984  0.9234 -0.9937 -1.3336
 5869TIP3    H239099   1.339   6.347  12.120 -1.1149 -0.4380 -0.5762
 5870TIP3   OH239100   4.619   4.104   3.730 -0.5544 -0.1571 -0.0601
 5870TIP3    H139101   4.545   4.095   3.791 -0.7111 -0.9088 -0.3398
 5870TIP3    H239102   4.679   4.164   3.774 -0.0377 -1.7014  1.4772
 5871TIP3   OH239103   1.635   6.146   5.734  0.2678  0.4023  0.3965
 5871TIP3    H139104   1.613   6.053   5.737 -0.3543  0.5492  0.5026
 5871TIP3    H239105   1.582   6.181   5.663  0.7071  0.6270  0.1755
 5872TIP3   OH239106   0.622   2.775   4.166  0.0081  0.5954 -0.2649
 5872TIP3    H139107   0.667   2.706   4.215  1.5350  0.8517 -1.2441
 5872TIP3    H239108   0.635   2.752   4.074 -4.2809 -0.8430 -0.7536
 5873TIP3   OH239109   0.868   0.588   4.707 -0.4056  0.4067  0.1391
 5873TIP3    H139110   0.841   0.549   4.624 -1.9341  1.0181  0.3268
 5873TIP3    H239111   0.900   0.514   4.759  0.4884  0.0009 -0.9298
 5874TIP3   OH239112   2.981   3.015  15.039  0.5786  0.0206  0.3215
 5874TIP3    H139113   3.018   2.990  14.954 -1.7582 -0.0124 -0.7690
 5874TIP3    H239114   2.937   3.098  15.021  0.3293  0.1807  1.6191
 5875TIP3   OH239115   0.473   0.840   0.031  0.0163 -0.3406  0.0283
 5875TIP3    H139116   0.558   0.879   0.010 -0.7680  1.9566  0.7909
 5875TIP3    H239117   0.469   0.761  -0.024  1.5221  0.9138 -2.0662
 5876TIP3   OH239118   5.426   3.888   3.710  0.1056  0.7637 -0.3093
 5876TIP3    H139119   5.339   3.851   3.697  0.6702 -0.5415 -0.5417
 5876TIP3    H239120   5.410   3.976   3.745 -1.3086  1.2153 -1.9639
 5877TIP3   OH239121   2.194   2.278  14.364  0.0642  0.0352 -0.0261
 5877TIP3    H139122   2.163   2.231  14.442  0.9802  0.8494  0.8555
 5877TIP3    H239123   2.284   2.304  14.386 -0.5328  2.5890 -0.2785
 5878TIP3   OH239124   6.355   6.057   1.767 -0.5387  0.1358 -0.4914
 5878TIP3    H139125   6.330   5.988   1.829 -0.7268  0.0555 -0.6572
 5878TIP3    H239126   6.310   6.135   1.799 -0.8520  0.0330 -0.6854
 5879TIP3   OH239127   1.494   2.740  16.943  0.4875 -0.3039  0.1414
 5879TIP3    H139128   1.579   2.727  16.984  1.3426 -0.0303 -1.4780
 5879TIP3    H239129   1.494   2.682  16.868 -0.4868  0.2037 -0.2679
 5880TIP3   OH239130   4.968   2.216   6.028  0.0635  0.0823 -0.9060
 5880TIP3    H139131   5.062   2.200   6.035  0.1109  0.7670  0.4200
 5880TIP3    H239132   4.961   2.309   6.010 -0.3523  0.5135  1.1488
 5881TIP3   OH239133   0.604   6.537  12.363  0.9428 -0.1960 -0.3124
 5881TIP3    H139134   0.572   6.580  12.443  2.8510 -0.8590  0.9000
 5881TIP3    H239135   0.604   6.606  12.297  1.6429  1.0651  0.9401
 5882TIP3   OH239136   3.105   0.188   3.823  0.0875 -0.3778 -0.2550
 5882TIP3    H139137   3.052   0.251   3.773  1.3100  0.4211 -0.5991
 5882TIP3    H239138   3.128   0.234   3.904  1.3918 -0.1448 -0.7178
 5883TIP3   OH239139   1.114   5.414  12.672 -0.3377 -0.9462  0.2992
 5883TIP3    H139140   1.041   5.418  12.610  0.8767 -0.1006 -1.1392
 5883TIP3    H239141   1.091   5.479  12.739 -0.7991 -0.5435 -0.2414
 5884TIP3   OH239142   4.704   3.489   3.785  0.0924 -0.8624 -0.1219
 5884TIP3    H139143   4.780   3.532   3.824 -1.1352  1.7080 -0.3909
 5884TIP3    H239144   4.722   3.489   3.691 -0.7260  0.9163 -0.3168
 5885TIP3   OH239145   4.843   2.101  11.531  0.2770 -0.0051  0.2419
 5885TIP3    H139146   4.898   2.133  11.603 -0.0605  0.6549  0.2175
 5885TIP3    H239147   4.758   2.086  11.572  0.7331 -2.0741  0.5203
 5886TIP3   OH239148   1.149   5.081   2.706  0.5020  0.3666  0.2153
 5886TIP3    H139149   1.066   5.038   2.685 -0.2987  2.2916 -0.8018
 5886TIP3    H239150   1.172   5.048   2.793 -1.1984 -0.3859  0.4250
 5887TIP3   OH239151   4.752   1.042   2.148 -0.3091 -0.4772  0.3084
 5887TIP3    H139152   4.742   0.985   2.224  1.0079  0.4102  1.1977
 5887TIP3    H239153   4.812   0.994   2.090  2.8567  0.8922  2.1636
 5888TIP3   OH239154   4.141   3.036   3.946 -0.5661  0.1172  0.0710
 5888TIP3    H139155   4.107   3.119   3.979  0.1426  0.1804  0.6688
 5888TIP3    H239156   4.165   2.987   4.024 -2.6542 -1.4263 -0.1550
 5889TIP3   OH239157   3.869   1.878   6.345 -0.0618  0.3238 -0.1940
 5889TIP3    H139158   3.831   1.963   6.366  1.0263  0.6963  0.3458
 5889TIP3    H239159   3.917   1.852   6.424  2.9270  1.0928 -1.5927
 5890TIP3   OH239160   2.381   3.679   2.009  0.1822 -0.1474  0.0937
 5890TIP3    H139161   2.422   3.724   2.083 -2.0424  0.7188  0.8916
 5890TIP3    H239162   2.401   3.734   1.933  1.6366 -0.5052  0.1891
 5891TIP3   OH239163   1.718   5.492   0.435 -0.2749  0.7960  0.2039
 5891TIP3    H139164   1.683   5.426   0.376 -1.8513  0.0829  1.8366
 5891TIP3    H239165   1.640   5.535   0.472  0.5214 -0.0728  3.1318
 5892TIP3   OH239166   2.343   1.861  16.649  0.2909  0.5053 -0.5036
 5892TIP3    H139167   2.283   1.916  16.598  0.1864 -0.4601 -1.4565
 5892TIP3    H239168   2.291   1.783  16.670  0.8612  0.1525 -0.3903
 5893TIP3   OH239169   5.246   3.372   1.255  0.3133 -0.6953 -0.1438
 5893TIP3    H139170   5.196   3.373   1.336 -1.2257 -0.1255 -1.0479
 5893TIP3    H239171   5.337   3.379   1.282 -0.2459  0.9183  1.4766
 5894TIP3   OH239172   1.663   0.186   2.111 -0.3077 -0.4906  0.7146
 5894TIP3    H139173   1.633   0.100   2.083  0.0786 -0.5964  0.6180
 5894TIP3    H239174   1.757   0.175   2.125 -0.3235 -0.1828  1.0749
 5895TIP3   OH239175   6.583   3.601  15.212 -0.6108 -0.2103  0.4522
 5895TIP3    H139176   6.549   3.685  15.181 -1.4828  0.2163  2.4094
 5895TIP3    H239177   6.672   3.620  15.241 -1.5590  0.6630  3.0559
 5896TIP3   OH239178   6.119   1.243   0.161  0.2342 -0.2701 -0.5697
 5896TIP3    H139179   6.125   1.222   0.254  0.9297 -0.1009 -0.5737
 5896TIP3    H239180   6.111   1.159   0.117 -0.2008 -0.3445 -0.3512
 5897TIP3   OH239181   4.156   4.646   4.894  0.0137  0.1874  0.3233
 5897TIP3    H139182   4.110   4.721   4.856 -0.7041 -1.1166 -1.5368
 5897TIP3    H239183   4.087   4.581   4.910  0.6026 -0.0600  2.0300
 5898TIP3   OH239184   0.082   1.147   1.833  0.7223 -0.2393  0.0828
 5898TIP3    H139185  -0.007   1.147   1.800  0.6088 -0.8961  0.3707
 5898TIP3    H239186   0.109   1.239   1.830 -0.5238  0.2089  1.4592
 5899TIP3   OH239187   6.249   0.215  13.491 -0.4683 -0.4272  0.2090
 5899TIP3    H139188   6.247   0.304  13.525  2.8065 -0.5168  1.0013
 5899TIP3    H239189   6.231   0.224  13.398 -1.0859  0.9294  0.4414
 5900TIP3   OH239190   3.396   1.639  15.571  0.1786  0.7901 -0.2753
 5900TIP3    H139191   3.441   1.641  15.656  0.1123 -2.7469  0.0092
 5900TIP3    H239192   3.307   1.667  15.590 -0.5325 -2.2311  1.4765
 5901TIP3   OH239193   5.986   4.409  14.342  0.2686 -0.1656  0.0640
 5901TIP3    H139194   6.011   4.464  14.417  0.3834 -3.5751  2.8171
 5901TIP3    H239195   6.045   4.333  14.348 -1.1346 -1.5653 -2.2437
 5902TIP3   OH239196   1.187   1.504  13.068 -0.0240  0.1304 -0.2262
 5902TIP3    H139197   1.192   1.481  13.161 -1.7662  2.2912  0.4922
 5902TIP3    H239198   1.111   1.456  13.036  1.3076 -1.6136 -0.9334
 5903TIP3   OH239199   6.231   2.399  16.686  0.3171  0.8575 -0.2674
 5903TIP3    H139200   6.223   2.475  16.743  0.3858  1.0534 -0.5198
 5903TIP3    H239201   6.184   2.329  16.732  1.0232  0.8090  0.3934
 5904TIP3   OH239202   0.587   1.959   2.747 -0.2350 -0.3572  0.0603
 5904TIP3    H139203   0.676   1.929   2.730  0.7057  0.7075  2.4898
 5904TIP3    H239204   0.555   1.992   2.663  1.1752 -1.9046 -1.1306
 5905TIP3   OH239205   2.471   0.818   3.033  0.1810 -0.4304 -0.1883
 5905TIP3    H139206   2.538   0.868   2.985 -0.2134 -0.6245 -0.9534
 5905TIP3    H239207   2.506   0.729   3.037  0.5698 -0.2518  0.5783
 5906TIP3   OH239208   0.010   3.733  16.495 -0.6707  0.1480 -0.2863
 5906TIP3    H139209  -0.050   3.807  16.486 -1.2245 -0.0479  1.3684
 5906TIP3    H239210  -0.046   3.661  16.524  0.0284 -0.6481 -0.8886
 5907TIP3   OH239211   4.756   5.282  15.568  0.2460  0.3207  0.7611
 5907TIP3    H139212   4.675   5.321  15.603  0.6144  0.7151  1.1847
 5907TIP3    H239213   4.728   5.240  15.486 -0.2003  1.3674  0.3430
 5908TIP3   OH239214   5.947   1.186   2.815  0.5291  0.2548 -0.0653
 5908TIP3    H139215   5.854   1.211   2.818  0.9769  2.4449 -1.9529
 5908TIP3    H239216   5.955   1.132   2.737  0.6623 -1.0147  0.7931
 5909TIP3   OH239217   2.892   3.857   0.618 -0.0637  0.3228  0.3564
 5909TIP3    H139218   2.839   3.925   0.660 -0.9984 -1.2386  1.8478
 5909TIP3    H239219   2.921   3.801   0.691 -0.1810 -1.4528 -0.8960
 5910TIP3   OH239220   5.825   0.359  12.173  0.2581 -0.0095  0.0337
 5910TIP3    H139221   5.801   0.450  12.191  0.3940 -0.0435  0.3905
 5910TIP3    H239222   5.774   0.308  12.236  2.4599  0.0064  1.9509
 5911TIP3   OH239223   0.553   1.428   1.258 -0.1824  0.7319  0.1096
 5911TIP3    H139224   0.498   1.506   1.259 -1.7976 -0.3588 -0.0336
 5911TIP3    H239225   0.570   1.412   1.165 -0.0756  0.7759  0.1222
 5912TIP3   OH239226   3.583   3.644  11.292 -0.8650  0.6863 -0.2237
 5912TIP3    H139227   3.546   3.715  11.239 -1.2096 -0.0939 -1.0475
 5912TIP3    H239228   3.541   3.565  11.259  0.2475 -0.0222  0.0005
 5913TIP3   OH239229   1.710   0.927   0.749 -0.2590 -0.1139 -0.0446
 5913TIP3    H139230   1.654   0.985   0.698 -1.7500 -1.1713  0.3448
 5913TIP3    H239231   1.734   0.978   0.826 -0.4363  0.4495 -0.3583
 5914TIP3   OH239232   6.841   3.882   3.810 -0.4798 -0.2855  0.3387
 5914TIP3    H139233   6.816   3.845   3.726 -0.5305  1.3250 -0.3808
 5914TIP3    H239234   6.817   3.815   3.874 -0.9525 -1.2930 -0.8696
 5915TIP3   OH239235   5.531   3.598  16.336 -0.0890  0.7492 -0.1325
 5915TIP3    H139236   5.548   3.658  16.408 -0.2887  0.4570  0.1601
 5915TIP3    H239237   5.579   3.518  16.358 -0.9662  0.2929  0.1920
 5916TIP3   OH239238   0.505   1.081  16.775  0.5256 -0.3454  0.4120
 5916TIP3    H139239   0.515   1.135  16.696 -0.0011 -0.3697  0.3268
 5916TIP3    H239240   0.583   1.100  16.827 -0.0055  1.0899  0.7378
 5917TIP3   OH239241   6.266   0.483   3.265  0.1642  0.5369 -0.0279
 5917TIP3    H139242   6.212   0.556   3.295  0.5607  1.2036 -0.9122
 5917TIP3    H239243   6.216   0.405   3.289 -0.7613  1.1197 -0.0231
 5918TIP3   OH239244   3.122   3.378  14.500  0.2188  0.3976  0.3073
 5918TIP3    H139245   3.122   3.323  14.422  0.5032 -0.4130  0.8639
 5918TIP3    H239246   3.036   3.420  14.499  0.3774  0.7216 -0.6601
 5919TIP3   OH239247   0.498   6.074  15.409  0.5196 -0.2737  0.1152
 5919TIP3    H139248   0.566   6.011  15.385 -0.4837 -1.1360 -0.5084
 5919TIP3    H239249   0.417   6.036  15.376 -0.0901  1.4591 -0.5007
 5920TIP3   OH239250   0.378   6.789   2.201  0.0868 -0.0929  0.1629
 5920TIP3    H139251   0.370   6.740   2.119  2.2222 -0.3371  0.0377
 5920TIP3    H239252   0.419   6.871   2.176 -0.9768  0.6352  0.7543
 5921TIP3   OH239253   3.467   2.608   6.710 -0.1256 -0.8230  0.1658
 5921TIP3    H139254   3.474   2.514   6.692 -0.1723 -0.9998  1.0244
 5921TIP3    H239255   3.380   2.632   6.678  0.7684 -0.5332 -2.2856
 5922TIP3   OH239256   1.371   4.955  11.358 -0.6849  0.1771  0.5116
 5922TIP3    H139257   1.334   4.998  11.435 -2.1561  0.1268 -0.1354
 5922TIP3    H239258   1.440   4.899  11.393  0.0483  1.6814  1.5628
 5923TIP3   OH239259   1.527   2.593   0.959 -0.3939 -0.2443  0.0602
 5923TIP3    H139260   1.451   2.651   0.953  1.1221  1.7193 -1.2988
 5923TIP3    H239261   1.494   2.507   0.932 -2.0003  0.6917 -1.0998
 5924TIP3   OH239262   6.695   2.249   3.895 -0.3114  0.3055 -0.2229
 5924TIP3    H139263   6.646   2.329   3.917 -1.8148  0.1850 -2.7373
 5924TIP3    H239264   6.781   2.280   3.868 -0.6708  1.0388 -0.5548
 5925TIP3   OH239265   6.722   6.088  13.075  0.2390 -0.0576  0.7115
 5925TIP3    H139266   6.804   6.107  13.028  0.8330 -1.4845  1.1173
 5925TIP3    H239267   6.748   6.031  13.147 -1.3707 -2.3864 -0.4270
 5926TIP3   OH239268   0.074   2.625   2.640  0.3088 -0.2561 -0.3758
 5926TIP3    H139269   0.041   2.702   2.595 -0.9440 -1.8641 -2.4121
 5926TIP3    H239270   0.152   2.600   2.590  0.6638 -0.3658  0.2224
 5927TIP3   OH239271   0.053   4.913  11.088  0.2116  0.1010  0.1834
 5927TIP3    H139272   0.019   4.891  11.175  0.1936 -0.2415  0.0906
 5927TIP3    H239273  -0.007   4.869  11.027 -1.0632  2.0422 -0.0771
 5928TIP3   OH239274   3.865   3.918  15.877  0.3451 -0.0814  0.0622
 5928TIP3    H139275   3.814   3.846  15.841  0.5318  0.0583 -0.4896
 5928TIP3    H239276   3.809   3.995  15.865  0.4042 -0.0352  0.0797
 5929TIP3   OH239277   6.643   2.761   6.598  0.5717 -0.2959  0.3623
 5929TIP3    H139278   6.716   2.794   6.545 -1.5138  1.1703 -1.8336
 5929TIP3    H239279   6.644   2.816   6.677  1.5602 -0.0180  0.1752
 5930TIP3   OH239280   0.056   0.097   3.886 -0.3249 -0.0990 -0.8353
 5930TIP3    H139281   0.107   0.137   3.816  1.5008 -0.5271  0.1782
 5930TIP3    H239282   0.110   0.109   3.964 -2.0526 -0.1124  0.4058
 5931TIP3   OH239283   3.722   4.348  12.729 -0.1726  0.7985 -0.7857
 5931TIP3    H139284   3.636   4.344  12.772  0.5346  1.2063  0.7298
 5931TIP3    H239285   3.785   4.332  12.800  1.1028  2.5940 -1.4519
 5932TIP3   OH239286   3.799   6.077   2.010 -0.3155  0.5952 -0.3458
 5932TIP3    H139287   3.721   6.126   2.037 -0.1184  0.8813 -0.2960
 5932TIP3    H239288   3.786   5.989   2.045  0.8279  1.4260  2.3707
 5933TIP3   OH239289   2.027   2.836   3.416 -0.0579  0.5638  0.0971
 5933TIP3    H139290   1.964   2.765   3.424 -0.2977  0.5033 -1.8237
 5933TIP3    H239291   2.028   2.878   3.502 -2.5054  0.3781  0.2638
 5934TIP3   OH239292   5.799   6.594  10.367  0.4687 -0.4276  0.2401
 5934TIP3    H139293   5.744   6.672  10.368  0.6442 -0.2637  2.3361
 5934TIP3    H239294   5.886   6.625  10.394  0.5526 -1.2942  1.0656
 5935TIP3   OH239295   4.597   5.341   0.234 -0.3862  0.0719  0.1605
 5935TIP3    H139296   4.638   5.382   0.158  0.1045  1.3292  1.0739
 5935TIP3    H239297   4.651   5.263   0.250 -0.2208  0.0416 -0.4924
 5936TIP3   OH239298   3.045   1.557   3.886 -0.2905  0.3066  0.1332
 5936TIP3    H139299   3.101   1.633   3.905  0.6614 -0.7632  1.8554
 5936TIP3    H239300   3.004   1.579   3.802  1.9941  1.5684 -0.7655
 5937TIP3   OH239301   5.907   2.658   5.320  0.2648  0.5952 -0.1528
 5937TIP3    H139302   5.968   2.730   5.338 -0.3924  1.1622 -0.1920
 5937TIP3    H239303   5.943   2.615   5.242  1.6868 -0.2759  0.9172
 5938TIP3   OH239304   0.116   4.175   0.890  0.0751  0.4481  0.4086
 5938TIP3    H139305   0.146   4.132   0.809 -1.1340 -0.2951  0.3377
 5938TIP3    H239306   0.082   4.104   0.943 -1.3128  1.2331  0.5924
 5939TIP3   OH239307   2.482   2.541   3.515  0.2831  0.0788 -0.8954
 5939TIP3    H139308   2.388   2.551   3.527  0.4520  1.0415 -0.3188
 5939TIP3    H239309   2.521   2.616   3.560  1.3818 -0.8151 -0.3088
 5940TIP3   OH239310   3.914   4.847   1.607 -0.1091 -0.4921 -0.9554
 5940TIP3    H139311   3.895   4.938   1.582 -0.7913 -0.2157  0.4683
 5940TIP3    H239312   3.871   4.794   1.540 -0.9388  0.2224 -1.0074
 5941TIP3   OH239313   2.866   2.909  15.288  0.8912 -1.0784 -0.4053
 5941TIP3    H139314   2.947   2.869  15.321  0.8743  0.1112  1.2521
 5941TIP3    H239315   2.896   2.973  15.223  1.5989  0.9809  1.7939
 5942TIP3   OH239316   5.023   6.040  16.376  1.0874 -0.6037  0.5531
 5942TIP3    H139317   4.979   5.956  16.367  2.8878 -1.6381  0.8488
 5942TIP3    H239318   4.954   6.105  16.366 -0.1855 -2.0769 -0.7827
 5943TIP3   OH239319   0.065   2.012   4.942 -0.4714 -0.4803 -0.7940
 5943TIP3    H139320   0.156   1.987   4.928  0.0202  0.9080 -0.2973
 5943TIP3    H239321   0.023   1.934   4.978  0.4968 -1.1713 -1.1494
 5944TIP3   OH239322   1.183   0.191  14.615  0.1266 -0.7655 -0.5733
 5944TIP3    H139323   1.142   0.106  14.630  0.8353 -0.8384  1.1295
 5944TIP3    H239324   1.110   0.250  14.599 -0.8884 -0.6528  3.5005
 5945TIP3   OH239325   0.296   0.270   3.795 -0.0428 -0.3489 -0.0378
 5945TIP3    H139326   0.320   0.202   3.858  0.8750 -0.8593 -0.8943
 5945TIP3    H239327   0.322   0.352   3.836 -1.0076 -0.5033  0.9412
 5946TIP3   OH239328   3.368   1.181   2.814 -0.0638  0.3917 -0.8931
 5946TIP3    H139329   3.450   1.170   2.767  1.2033 -0.8623  1.4148
 5946TIP3    H239330   3.390   1.162   2.906 -2.6572  1.2875  0.0136
 5947TIP3   OH239331   5.031   0.122  15.523  0.1077 -0.3093  0.2065
 5947TIP3    H139332   5.113   0.172  15.524 -0.5802  0.8890 -0.1014
 5947TIP3    H239333   5.056   0.035  15.494  1.7007 -0.8351  2.8691
 5948TIP3   OH239334   6.283   3.110  10.994  0.3759  0.3216 -0.2456
 5948TIP3    H139335   6.213   3.105  11.059 -2.1976 -2.2323 -2.9409
 5948TIP3    H239336   6.324   3.024  10.996  0.4382  0.2904 -1.7646
 5949TIP3   OH239337   3.285   2.488  16.024  0.1833 -0.0400 -0.1558
 5949TIP3    H139338   3.221   2.553  15.996 -0.3425 -0.9604 -1.1499
 5949TIP3    H239339   3.366   2.514  15.981  0.0185  0.0726 -0.4021
 5950TIP3   OH239340   3.822   6.558  15.524 -0.3372 -0.3888 -0.3474
 5950TIP3    H139341   3.738   6.549  15.480 -0.1197 -2.4733 -0.4346
 5950TIP3    H239342   3.827   6.483  15.583  1.5806 -0.5004 -0.5728
 5951TIP3   OH239343   6.800   5.871   3.943 -0.3144  0.0687  0.0570
 5951TIP3    H139344   6.772   5.919   4.021  0.7944  1.4341 -0.3560
 5951TIP3    H239345   6.794   5.779   3.969  0.7817  0.4983  2.0477
 5952TIP3   OH239346   0.016   2.341  11.433  0.1905 -0.2606  0.0877
 5952TIP3    H139347  -0.028   2.271  11.384  1.2339 -0.0072 -1.2919
 5952TIP3    H239348   0.067   2.387  11.366  1.0193  0.6225  1.3067
 5953TIP3   OH239349   5.767   4.845   5.041  0.6092 -0.0360  0.3076
 5953TIP3    H139350   5.862   4.859   5.042  0.7088 -0.6307  1.8641
 5953TIP3    H239351   5.731   4.925   5.079  0.7447 -1.1105  2.8713
 5954TIP3   OH239352   5.853   6.095  13.040 -0.4366  0.5842 -0.1480
 5954TIP3    H139353   5.806   6.143  13.108 -1.7080  0.9400 -1.2428
 5954TIP3    H239354   5.787   6.038  13.000  0.7289 -1.1492  0.2390
 5955TIP3   OH239355   6.199   2.321  11.938 -0.1368  0.2744 -0.3986
 5955TIP3    H139356   6.109   2.301  11.911  0.2277 -1.2389 -0.5814
 5955TIP3    H239357   6.249   2.241  11.917  1.2027  0.9996 -0.0863
 5956TIP3   OH239358   4.161   1.551   2.948 -0.0215  0.3041 -0.0227
 5956TIP3    H139359   4.221   1.484   2.982  1.4199  1.2661 -0.5749
 5956TIP3    H239360   4.217   1.612   2.901 -1.2280  2.1321  0.7826
 5957TIP3   OH239361   6.194   1.688  12.381 -0.0610 -0.4011 -0.2190
 5957TIP3    H139362   6.247   1.767  12.396  0.8954 -0.8823 -0.9892
 5957TIP3    H239363   6.138   1.711  12.306  1.0010 -0.8081 -1.1647
 5958TIP3   OH239364   3.668   2.887   4.316  0.4411 -0.2273  0.4883
 5958TIP3    H139365   3.612   2.860   4.389 -0.8218 -1.0333 -0.7237
 5958TIP3    H239366   3.676   2.981   4.326 -0.7509 -0.1524  0.9992
 5959TIP3   OH239367   2.517   2.366  15.401  0.1609  0.1514 -0.1430
 5959TIP3    H139368   2.462   2.387  15.477  0.9386  0.0344  0.4688
 5959TIP3    H239369   2.535   2.272  15.410 -2.6529 -0.7499 -2.4367
 5960TIP3   OH239370   2.838   3.966  13.331 -0.1632 -0.0251 -0.4369
 5960TIP3    H139371   2.877   4.049  13.304  0.8285  0.1516  1.3413
 5960TIP3    H239372   2.902   3.899  13.303 -0.6151 -0.1372 -1.2253
 5961TIP3   OH239373   0.770   5.733  10.431 -0.0471  0.7315 -0.2003
 5961TIP3    H139374   0.733   5.662  10.379  0.2984  1.1305 -1.0029
 5961TIP3    H239375   0.758   5.705  10.522 -2.5283  0.9429 -0.3892
 5962TIP3   OH239376   3.814   3.192  16.553 -0.1964 -0.5442 -0.1899
 5962TIP3    H139377   3.893   3.140  16.567  1.1114  0.9492 -1.5691
 5962TIP3    H239378   3.754   3.163  16.621  1.7490 -1.3108  1.3048
 5963TIP3   OH239379   1.598   6.238  14.398 -0.1853  0.4388  0.0329
 5963TIP3    H139380   1.608   6.156  14.447  0.0924  1.0317  1.0140
 5963TIP3    H239381   1.650   6.226  14.319  2.0920  0.6050  1.4035
 5964TIP3   OH239382   1.078   5.953  16.972 -0.3306 -0.0441  0.2038
 5964TIP3    H139383   0.997   6.003  16.979 -1.1900 -1.5253  1.5426
 5964TIP3    H239384   1.095   5.947  16.878 -2.0174 -0.0482 -0.1219
 5965TIP3   OH239385   3.105   6.165   3.471  0.3564  0.3343 -0.8409
 5965TIP3    H139386   3.087   6.174   3.564 -0.1009 -0.3215 -0.8571
 5965TIP3    H239387   3.128   6.253   3.442 -2.0104  1.1087 -0.6208
 5966TIP3   OH239388   4.853   5.860   3.630 -0.1566  0.3778  0.1114
 5966TIP3    H139389   4.890   5.843   3.544 -2.0358  0.8137 -0.8226
 5966TIP3    H239390   4.758   5.861   3.617 -0.4666  2.1689  1.8347
 5967TIP3   OH239391   4.920   0.665   5.199  0.7250  0.9271  0.2207
 5967TIP3    H139392   4.858   0.593   5.188 -0.6470  2.0411  0.2566
 5967TIP3    H239393   4.995   0.641   5.145  0.6953 -0.9271  0.9446
 5968TIP3   OH239394   1.850   4.246   3.367 -0.3737  0.4026 -0.4186
 5968TIP3    H139395   1.917   4.185   3.400 -0.8177  1.0335  1.8441
 5968TIP3    H239396   1.791   4.191   3.315 -0.4917 -1.0645  1.1576
 5969TIP3   OH239397   4.901   5.034  12.432 -0.4267 -0.5507 -0.1627
 5969TIP3    H139398   4.820   5.032  12.381 -1.0562 -0.2484  0.7995
 5969TIP3    H239399   4.923   4.942  12.445  0.9035 -0.6702 -2.7231
 5970TIP3   OH239400   3.648   1.164   5.836  0.1970  0.5671  0.0720
 5970TIP3    H139401   3.737   1.172   5.870  1.2151 -1.2328 -1.9166
 5970TIP3    H239402   3.636   1.240   5.780  0.4100  0.8989  0.4729
 5971TIP3   OH239403   4.042   5.075   5.205  0.0913  0.4452  0.1934
 5971TIP3    H139404   4.015   5.048   5.117 -0.6416 -0.1189  0.5843
 5971TIP3    H239405   3.972   5.043   5.263 -0.4270  2.4520  0.7759
 5972TIP3   OH239406   4.023   2.237  12.173  0.6428  0.3335 -0.6065
 5972TIP3    H139407   3.936   2.268  12.150  0.0173 -1.1873 -0.4391
 5972TIP3    H239408   4.026   2.242  12.269  0.5423 -0.0554 -0.5782
 5973TIP3   OH239409   5.477   1.352   2.456 -0.3828 -0.3683 -0.1035
 5973TIP3    H139410   5.563   1.392   2.458 -0.9111  0.8013 -0.2191
 5973TIP3    H239411   5.486   1.273   2.510  0.4514  0.3318  0.8165
 5974TIP3   OH239412   2.744   6.359   6.511  0.2909  0.4021 -0.3756
 5974TIP3    H139413   2.679   6.295   6.481 -0.2446  0.9208 -0.3475
 5974TIP3    H239414   2.814   6.306   6.549 -0.3395 -0.1618  0.0346
 5975TIP3   OH239415   6.345   0.461   6.229 -0.2408  0.2590 -0.1221
 5975TIP3    H139416   6.385   0.517   6.163  0.5440  0.8898  0.8569
 5975TIP3    H239417   6.334   0.377   6.185  2.6485 -0.1202 -0.3462
 5976TIP3   OH239418   1.307   0.597  15.744  0.0235  0.1549 -0.2593
 5976TIP3    H139419   1.218   0.578  15.775  0.2817  1.3660  1.3460
 5976TIP3    H239420   1.300   0.592  15.648 -1.6431 -0.2907 -0.1503
 5977TIP3   OH239421   0.359   1.193   0.075  0.3045 -0.2770  0.2654
 5977TIP3    H139422   0.275   1.214   0.032  0.9928 -0.1078 -1.0651
 5977TIP3    H239423   0.350   1.229   0.163 -1.4584 -1.2811  0.5515
 5978TIP3   OH239424   6.200   2.736   4.519 -0.1514  0.4478  0.1431
 5978TIP3    H139425   6.266   2.794   4.481 -1.8472  2.2178 -0.2942
 5978TIP3    H239426   6.240   2.701   4.598  1.5254  0.9413 -0.4629
 5979TIP3   OH239427   6.597   1.282   1.857 -0.1896 -0.6336  0.2298
 5979TIP3    H139428   6.599   1.306   1.950  0.0996 -0.9204  0.2988
 5979TIP3    H239429   6.653   1.346   1.814  1.7197 -1.9573  0.6034
 5980TIP3   OH239430   4.456   0.876   3.363 -0.3168 -0.0615 -0.2795
 5980TIP3    H139431   4.448   0.796   3.312  1.6709  0.5004 -1.5593
 5980TIP3    H239432   4.441   0.946   3.300  0.2207  0.6124  0.3277
 5981TIP3   OH239433   6.658   4.228  11.433  0.0260 -0.2364 -0.4017
 5981TIP3    H139434   6.693   4.147  11.394 -0.0631  0.4202 -1.9247
 5981TIP3    H239435   6.588   4.199  11.491 -0.3843 -1.2273 -1.3624
 5982TIP3   OH239436   0.061   1.438   4.976 -0.0493 -0.1726 -0.0227
 5982TIP3    H139437   0.141   1.385   4.967  0.0031  0.0752 -1.1541
 5982TIP3    H239438   0.040   1.466   4.887 -0.2386  1.4889  0.5019
 5983TIP3   OH239439   3.469   3.229   3.402  0.0458 -0.4435 -0.1965
 5983TIP3    H139440   3.472   3.198   3.493  1.3221  1.1019  0.3359
 5983TIP3    H239441   3.520   3.164   3.354  2.2551  0.4168  0.8180
 5984TIP3   OH239442   4.299   0.102   2.650 -0.3522 -0.1633  1.1022
 5984TIP3    H139443   4.294   0.197   2.664 -0.5728  0.6232 -3.0848
 5984TIP3    H239444   4.390   0.080   2.670  0.2588  1.3774  0.1920
 5985TIP3   OH239445   0.029   4.236  15.007 -0.1621 -0.0991  0.2457
 5985TIP3    H139446   0.016   4.164  14.945  1.0479 -0.8647  0.8319
 5985TIP3    H239447  -0.051   4.238  15.059  0.3537 -1.9959  1.1683
 5986TIP3   OH239448   4.025   4.753   2.058  0.3428 -0.0740 -0.1650
 5986TIP3    H139449   4.070   4.827   2.098 -1.9628  0.7469  1.1248
 5986TIP3    H239450   4.022   4.774   1.965  3.2148 -0.5598 -0.4320
 5987TIP3   OH239451   0.986   6.289   1.705 -0.5698  0.4536 -0.0368
 5987TIP3    H139452   1.050   6.358   1.721 -1.0696  0.8114  0.4266
 5987TIP3    H239453   1.008   6.221   1.769  1.1351 -0.6978 -1.7135
 5988TIP3   OH239454   0.243   0.990   0.754  0.6359  0.5089 -0.6373
 5988TIP3    H139455   0.245   0.936   0.675 -0.7873  0.2509 -0.5210
 5988TIP3    H239456   0.257   0.928   0.826  0.7186  0.5594 -0.6099
 5989TIP3   OH239457   2.940   6.203   6.604  0.3413  0.3023 -0.4964
 5989TIP3    H139458   2.995   6.252   6.665 -0.4574  0.1740  0.3386
 5989TIP3    H239459   2.918   6.123   6.652 -0.3270  0.2170 -0.9431
 5990TIP3   OH239460   4.961   2.843  13.233  0.2510 -0.3757  0.0138
 5990TIP3    H139461   4.963   2.917  13.172  0.6836 -0.2404  0.1857
 5990TIP3    H239462   4.979   2.882  13.318  2.1232 -0.8786 -0.1100
 5991TIP3   OH239463   3.084   4.296  12.027  1.1328 -0.0905 -0.3116
 5991TIP3    H139464   3.019   4.235  11.993  1.2106 -0.7807  0.7268
 5991TIP3    H239465   3.110   4.349  11.951 -0.0766 -0.3041 -0.8949
 5992TIP3   OH239466   1.274   2.915  12.317  0.0322  0.6953  0.4380
 5992TIP3    H139467   1.303   2.832  12.279  1.5271  1.4944 -0.2431
 5992TIP3    H239468   1.183   2.924  12.289  0.6357  0.5287 -1.6959
 5993TIP3   OH239469   3.357   1.611  14.185 -0.3047  0.0813  0.0524
 5993TIP3    H139470   3.305   1.532  14.169 -2.4516  1.5637 -0.8011
 5993TIP3    H239471   3.293   1.677  14.210  1.4889  1.4407  1.3409
 5994TIP3   OH239472   4.523   5.501  16.985 -0.1744 -0.4049  1.0021
 5994TIP3    H139473   4.454   5.468  17.043 -0.9474 -0.9984 -0.1967
 5994TIP3    H239474   4.527   5.595  17.004 -2.2712 -0.0878  0.2233
 5995TIP3   OH239475   6.227   2.734  15.940 -0.3761 -0.0266 -0.4780
 5995TIP3    H139476   6.205   2.686  15.860 -0.7326  0.3220 -0.5899
 5995TIP3    H239477   6.259   2.666  16.000  0.1491 -0.2569 -0.9989
 5996TIP3   OH239478   4.405   1.100  11.339 -0.3788 -0.5358 -0.7006
 5996TIP3    H139479   4.363   1.130  11.420  0.3700 -0.9108 -0.1643
 5996TIP3    H239480   4.385   1.168  11.275 -1.9775 -0.7955 -0.5235
 5997TIP3   OH239481   2.417   6.740  12.220 -0.3207 -0.1447  0.7011
 5997TIP3    H139482   2.472   6.668  12.188  0.9173  1.7786 -1.9237
 5997TIP3    H239483   2.339   6.738  12.164 -0.5011  0.2471  0.9304
 5998TIP3   OH239484   0.091   5.832  16.270 -0.3732  0.4700 -0.1910
 5998TIP3    H139485   0.063   5.831  16.362 -0.1453  1.0921 -0.1114
 5998TIP3    H239486   0.186   5.846  16.274 -0.5936  2.2479 -0.5543
 5999TIP3   OH239487   6.306   1.476  15.354 -0.1030 -0.3964  0.2210
 5999TIP3    H139488   6.325   1.413  15.423 -0.6232 -1.9579 -0.9942
 5999TIP3    H239489   6.358   1.553  15.376  0.2289 -1.0826  1.9807
 6000TIP3   OH239490   2.156   0.900  16.439 -0.2439  0.3846  0.2758
 6000TIP3    H139491   2.099   0.972  16.412  0.7092  0.7676 -0.7739
 6000TIP3    H239492   2.243   0.925  16.409  0.3460 -0.5759  1.1148
 6001TIP3   OH239493   5.439   1.300  13.047  0.2165  0.0069 -0.1197
 6001TIP3    H139494   5.350   1.336  13.053 -0.7771 -2.3592  0.7675
 6001TIP3    H239495   5.488   1.366  12.998 -2.0162  1.4037 -0.6616
 6002TIP3   OH239496   6.279   4.546  16.223  0.7303  0.0842  0.2709
 6002TIP3    H139497   6.246   4.552  16.133  0.9944  1.2905  0.2475
 6002TIP3    H239498   6.252   4.628  16.264  0.3136 -0.5953  1.4118
 6003TIP3   OH239499   2.159   5.222  12.013  0.2590 -0.1970  0.2016
 6003TIP3    H139500   2.173   5.315  12.028  0.3175  0.2044 -2.0324
 6003TIP3    H239501   2.246   5.188  11.990  0.1412 -0.7005  0.4842
 6004TIP3   OH239502   1.181   1.736  12.874  0.3719  0.4275 -0.0891
 6004TIP3    H139503   1.267   1.711  12.842  0.7704  0.8329  0.6294
 6004TIP3    H239504   1.176   1.699  12.962  0.1309  1.0675  0.1783
 6005TIP3   OH239505   2.565   5.526  11.513 -0.5215  0.1647 -0.0677
 6005TIP3    H139506   2.507   5.546  11.440  1.0043 -1.8491 -1.9887
 6005TIP3    H239507   2.653   5.546  11.480  0.1633 -0.2468  1.4160
 6006TIP3   OH239508   1.402   2.764  13.859  0.0855 -0.0431  0.6123
 6006TIP3    H139509   1.317   2.807  13.847  0.2743  0.5287  1.2054
 6006TIP3    H239510   1.382   2.670  13.858 -0.1678 -0.0429 -2.0154
 6007TIP3   OH239511   0.964   1.331  15.057  0.3328  0.4069  0.3504
 6007TIP3    H139512   1.010   1.407  15.090  2.3138 -0.6307  0.1049
 6007TIP3    H239513   1.014   1.303  14.981 -1.4866 -0.0085 -0.7720
 6008TIP3   OH239514   1.345   2.114   9.943  0.1131  0.3443  0.3347
 6008TIP3    H139515   1.347   2.137  10.036 -0.4818  1.1941  0.1548
 6008TIP3    H239516   1.301   2.029   9.940 -1.7808  1.2677  0.6837
 6009TIP3   OH239517   3.858   0.175  12.791 -0.1133 -0.0611 -0.1404
 6009TIP3    H139518   3.894   0.241  12.850  0.7984  0.2797 -1.0321
 6009TIP3    H239519   3.768   0.203  12.775 -0.0230  0.4460  0.2230
 6010TIP3   OH239520   3.292   2.865  12.205  0.3944 -0.3072  0.5410
 6010TIP3    H139521   3.373   2.864  12.154  0.0096 -1.5827 -0.0965
 6010TIP3    H239522   3.283   2.775  12.236 -0.7877 -0.1810  0.5854
 6011TIP3   OH239523   3.389   2.563  13.994  0.4441 -0.5469  0.4371
 6011TIP3    H139524   3.293   2.572  13.991  0.2657 -2.0253  1.0501
 6011TIP3    H239525   3.413   2.534  13.906  0.3233 -0.2925  0.3183
 6012TIP3   OH239526   2.193   3.829   6.003  0.1117 -0.4625 -0.3818
 6012TIP3    H139527   2.101   3.815   6.026  0.6798 -1.0567  1.6813
 6012TIP3    H239528   2.189   3.875   5.918 -2.0444 -1.2790 -0.7929
 6013TIP3   OH239529   5.309   5.728   4.830 -0.0927  1.1482  0.3503
 6013TIP3    H139530   5.223   5.690   4.811  1.1177 -0.8839 -1.4565
 6013TIP3    H239531   5.298   5.770   4.915 -2.0944 -1.5987  1.5844
 6014TIP3   OH239532   6.770   0.849   0.579 -0.0655 -0.3777  0.5317
 6014TIP3    H139533   6.790   0.838   0.672  4.2087  1.0365  0.0109
 6014TIP3    H239534   6.806   0.771   0.538  0.2778  0.1250 -0.1375
 6015TIP3   OH239535   1.155   0.114  11.587  0.7119 -0.2032 -0.1202
 6015TIP3    H139536   1.192   0.117  11.498  0.0037 -0.5815 -0.4377
 6015TIP3    H239537   1.093   0.186  11.589  0.4363 -0.4404 -0.0692
 6016TIP3   OH239538   2.459   0.762  13.866 -0.1466  1.1469 -0.1057
 6016TIP3    H139539   2.552   0.774  13.887 -0.1074 -0.1396  0.5360
 6016TIP3    H239540   2.460   0.715  13.782 -0.1995  0.5745  0.2111
 6017TIP3   OH239541   2.539   3.406  16.500 -0.2188 -0.1480 -0.2904
 6017TIP3    H139542   2.553   3.441  16.412  0.1741 -0.0054 -0.1712
 6017TIP3    H239543   2.526   3.312  16.487 -2.4651  0.1682 -0.7440
 6018TIP3   OH239544   0.939   5.875  13.785  0.1367 -0.5002  0.7482
 6018TIP3    H139545   0.887   5.798  13.810  0.9280 -0.7893  1.5783
 6018TIP3    H239546   1.018   5.868  13.839  0.4933  0.5698  0.3779
 6019TIP3   OH239547   0.003   4.419   3.161  0.7422 -0.1100  0.5706
 6019TIP3    H139548   0.014   4.503   3.206  0.4104 -0.5259  1.4502
 6019TIP3    H239549   0.014   4.354   3.230 -0.4924 -0.7499  0.1838
 6020TIP3   OH239550   1.193   0.620   3.880  0.4675  0.0520 -0.1661
 6020TIP3    H139551   1.141   0.678   3.824 -0.9495 -0.4577  0.5959
 6020TIP3    H239552   1.245   0.569   3.818 -0.0068  0.4975 -0.9567
 6021TIP3   OH239553   4.781   0.151  13.899 -0.3839 -0.3146  0.0305
 6021TIP3    H139554   4.864   0.123  13.938 -0.2819  0.2902  0.2617
 6021TIP3    H239555   4.764   0.237  13.938 -1.1608 -0.4637  0.0430
 6022TIP3   OH239556   6.828   2.989  17.033  0.8359 -0.0033  0.3855
 6022TIP3    H139557   6.798   3.069  16.990 -0.0826 -0.2907  0.4791
 6022TIP3    H239558   6.911   2.968  16.990  1.7182  1.6454  1.1636
 6023TIP3   OH239559   5.226   2.353   0.620  0.2411  0.2895  0.1842
 6023TIP3    H139560   5.209   2.351   0.526 -0.6636 -0.0475  0.3451
 6023TIP3    H239561   5.275   2.273   0.637 -0.5031 -0.1808  0.1567
 6024TIP3   OH239562   6.163   6.844   4.005 -0.1694  0.0342  0.0786
 6024TIP3    H139563   6.185   6.807   4.090 -0.1550 -0.8632 -0.3055
 6024TIP3    H239564   6.105   6.918   4.025  2.1176  1.6755  1.0187
 6025TIP3   OH239565   1.230   6.085  10.874 -0.5617 -0.4112 -0.3788
 6025TIP3    H139566   1.244   6.149  10.944 -2.2424  1.3529 -1.5478
 6025TIP3    H239567   1.318   6.064  10.842  0.0399  1.7173 -0.2592
 6026TIP3   OH239568   0.648   1.798   2.401  0.2898  0.1130 -0.3302
 6026TIP3    H139569   0.712   1.757   2.460  0.5677  0.2861 -0.5085
 6026TIP3    H239570   0.565   1.758   2.425  0.4176  0.1018  0.1053
 6027TIP3   OH239571   1.607   2.333   1.232  0.5868  0.1610 -0.3737
 6027TIP3    H139572   1.695   2.341   1.196 -0.1609  2.9021 -1.8938
 6027TIP3    H239573   1.599   2.241   1.256  3.4247 -0.4223 -1.3013
 6028TIP3   OH239574   1.330   1.468   6.161 -0.3462 -0.2205  0.2821
 6028TIP3    H139575   1.336   1.374   6.175  0.2069 -0.2346 -0.0036
 6028TIP3    H239576   1.247   1.494   6.201 -1.5090 -1.1511 -1.3970
 6029TIP3   OH239577   3.669   1.726   6.217 -0.2898 -0.3798  0.3361
 6029TIP3    H139578   3.749   1.764   6.252 -0.4867 -0.3528  0.7535
 6029TIP3    H239579   3.601   1.789   6.238  0.1327  1.8240 -3.7559
 6030TIP3   OH239580   5.051   3.140   4.924 -0.1193 -0.1582  0.2062
 6030TIP3    H139581   5.035   3.050   4.952  0.1572 -0.2229  0.1578
 6030TIP3    H239582   5.048   3.191   5.005  0.7310 -0.3535  0.3677
 6031TIP3   OH239583   5.078   4.356  13.246 -0.1496  0.1182 -0.3080
 6031TIP3    H139584   5.013   4.381  13.311  1.4142  2.1463  0.6053
 6031TIP3    H239585   5.034   4.291  13.191 -1.5716 -1.7305  2.7193
 6032TIP3   OH239586   2.981   4.716   5.456 -0.3172  0.4019 -0.3708
 6032TIP3    H139587   2.998   4.775   5.382  1.0372  0.5819  0.0645
 6032TIP3    H239588   2.999   4.770   5.533 -3.2901  0.7325  0.1963
 6033TIP3   OH239589   3.736   4.199   5.060  0.4249 -0.2103 -0.0804
 6033TIP3    H139590   3.737   4.255   5.138 -0.2588  0.2066 -0.3568
 6033TIP3    H239591   3.662   4.140   5.074  0.6493 -0.5052 -0.1532
 6034TIP3   OH239592   6.857   6.740   3.450  0.1001  0.5308 -0.1529
 6034TIP3    H139593   6.946   6.732   3.483 -0.0905  0.7393  0.4145
 6034TIP3    H239594   6.801   6.713   3.523 -0.3661  2.0389  0.0884
 6035TIP3   OH239595   6.449   1.098  16.922 -0.1244 -0.4352  0.2558
 6035TIP3    H139596   6.363   1.113  16.881 -1.0411  1.3421  2.5919
 6035TIP3    H239597   6.430   1.087  17.015  2.2452  1.5827  1.0907
 6036TIP3   OH239598   1.216   1.748   0.281  0.6099 -0.3773 -0.5884
 6036TIP3    H139599   1.292   1.738   0.339  0.5554 -1.5804 -0.7058
 6036TIP3    H239600   1.193   1.841   0.288  0.8854 -0.3963  0.9627
 6037TIP3   OH239601   0.661   0.944  12.133  0.4865 -0.0592  0.0161
 6037TIP3    H139602   0.631   1.004  12.201  2.2418  2.0538 -0.9426
 6037TIP3    H239603   0.706   0.874  12.181  1.8025  1.4429  1.0519
 6038TIP3   OH239604   4.658   4.252  12.641 -0.3524 -0.2190 -0.4284
 6038TIP3    H139605   4.575   4.214  12.669 -0.6627  0.4642 -0.4074
 6038TIP3    H239606   4.635   4.307  12.567 -0.2669  1.6371  0.8588
 6039TIP3   OH239607   6.499   3.562   5.930  0.5085 -0.2577 -0.6983
 6039TIP3    H139608   6.570   3.546   5.992  0.9695  1.0172 -0.8657
 6039TIP3    H239609   6.536   3.624   5.867 -0.5191 -0.1416 -1.2074
 6040TIP3   OH239610   0.107   1.564  13.628  0.0449 -0.4906  0.6534
 6040TIP3    H139611   0.098   1.487  13.572 -1.7577 -0.4445  0.8038
 6040TIP3    H239612   0.124   1.636  13.567 -3.5290 -0.1445 -0.1545
 6041TIP3   OH239613   6.714   2.000   0.165 -0.0748  0.1558 -0.0627
 6041TIP3    H139614   6.638   2.052   0.139  0.7735  2.5183  1.7879
 6041TIP3    H239615   6.764   1.989   0.084 -1.4266  0.2156 -0.9416
 6042TIP3   OH239616   1.062   0.142   1.518 -0.2369  0.0904 -0.6996
 6042TIP3    H139617   1.046   0.066   1.573 -1.2574  1.9760  1.8053
 6042TIP3    H239618   1.157   0.148   1.511 -0.1348 -1.8622 -1.7507
 6043TIP3   OH239619   2.529   2.682  11.009  0.4317 -0.4419  0.0373
 6043TIP3    H139620   2.541   2.642  10.923  0.2407 -1.3544  0.4175
 6043TIP3    H239621   2.435   2.696  11.017  0.5662  0.7987 -0.3918
 6044TIP3   OH239622   0.555   2.438  11.692  0.1250 -0.4172  0.0284
 6044TIP3    H139623   0.559   2.363  11.632 -0.0587 -0.8160  0.5075
 6044TIP3    H239624   0.462   2.459  11.698  0.2308  0.2898 -0.6315
 6045TIP3   OH239625   1.666   1.440   0.408 -0.2529 -0.5648 -0.2613
 6045TIP3    H139626   1.729   1.395   0.466  0.2877  1.1001  0.5123
 6045TIP3    H239627   1.657   1.381   0.333  1.0372 -1.5824  0.3291
 6046TIP3   OH239628   5.061   2.759  16.609  0.1167 -0.3633  0.0197
 6046TIP3    H139629   5.137   2.815  16.590 -0.2032  0.7180  1.7378
 6046TIP3    H239630   5.047   2.768  16.703 -0.5512 -2.6261  0.2043
 6047TIP3   OH239631   2.502   5.671  15.972  0.4060 -0.0896  0.5057
 6047TIP3    H139632   2.456   5.742  16.017  2.3205  2.2155 -0.8977
 6047TIP3    H239633   2.478   5.682  15.880  0.5467 -1.4689  0.2818
 6048TIP3   OH239634   1.585   1.444  15.483 -0.0190 -0.1886  0.4367
 6048TIP3    H139635   1.503   1.493  15.472  0.4948  0.5526 -0.2587
 6048TIP3    H239636   1.594   1.433  15.577 -0.9219 -0.2856  0.5219
 6049TIP3   OH239637   5.139   3.697  10.722 -0.0418 -0.3530 -0.4591
 6049TIP3    H139638   5.164   3.735  10.638  0.1543 -0.6094 -0.5168
 6049TIP3    H239639   5.056   3.740  10.745  0.6736  0.8594 -0.0484
 6050TIP3   OH239640   5.029   6.401   3.246 -0.1064  0.6507 -0.3304
 6050TIP3    H139641   4.992   6.467   3.187 -0.3730 -0.1824 -1.1161
 6050TIP3    H239642   4.976   6.323   3.231 -0.1078  0.3818  0.9456
 6051TIP3   OH239643   6.853   0.954  14.477 -0.2695 -0.8851  0.1455
 6051TIP3    H139644   6.886   0.972  14.565  1.1718  0.7721 -0.6742
 6051TIP3    H239645   6.773   1.007  14.471 -0.0189 -0.4865  0.2502
 6052TIP3   OH239646   5.763   0.954  13.485  0.2536  0.1767  0.0618
 6052TIP3    H139647   5.668   0.966  13.486  0.2563  0.2947  1.2454
 6052TIP3    H239648   5.792   0.998  13.405 -0.6134  0.8125  0.0736
 6053TIP3   OH239649   4.647   1.062  13.184  0.7532  0.0288 -0.3444
 6053TIP3    H139650   4.683   0.981  13.221  1.4702  0.4139 -0.1809
 6053TIP3    H239651   4.694   1.073  13.101  0.8662  0.4350 -0.2264
 6054TIP3   OH239652   6.609   5.476   5.988 -0.7740 -0.2458  0.0938
 6054TIP3    H139653   6.685   5.522   6.025 -1.1092  0.0744  0.3991
 6054TIP3    H239654   6.563   5.440   6.064 -0.5938 -0.9668 -0.1353
 6055TIP3   OH239655   3.790   2.269   3.188  0.2638  0.5183  0.5261
 6055TIP3    H139656   3.854   2.225   3.244  0.2585 -0.0926  0.0675
 6055TIP3    H239657   3.842   2.332   3.137  0.4329  0.3317  0.4669
 6056TIP3   OH239658   3.259   3.906  16.074  0.1462 -0.2000  0.0894
 6056TIP3    H139659   3.280   3.820  16.110 -0.1533 -0.3130 -0.0054
 6056TIP3    H239660   3.286   3.901  15.983 -0.4479 -0.4010 -0.0761
 6057TIP3   OH239661   2.399   0.822   2.665  0.3663 -0.2502 -0.3850
 6057TIP3    H139662   2.343   0.766   2.718 -0.2489  0.0485 -0.7040
 6057TIP3    H239663   2.459   0.862   2.728  2.3995 -3.0176 -0.4217
 6058TIP3   OH239664   2.078   3.397  15.784 -0.3959  0.1469 -1.0219
 6058TIP3    H139665   2.009   3.359  15.838 -0.5934  0.5361 -0.9982
 6058TIP3    H239666   2.104   3.476  15.831 -1.8025  1.4657 -2.3579
 6059TIP3   OH239667   0.061   3.937  16.061  0.1115  0.1317 -0.6363
 6059TIP3    H139668   0.060   3.874  15.989 -0.7359 -0.7084  0.0857
 6059TIP3    H239669   0.110   3.893  16.131  0.7153  0.8424 -0.5907
 6060TIP3   OH239670   3.479   3.025  14.255 -0.0817 -0.2339 -0.0898
 6060TIP3    H139671   3.438   3.054  14.174 -0.5816  0.8227  0.5241
 6060TIP3    H239672   3.571   3.049  14.245 -0.2942  0.6323 -0.0254
 6061TIP3   OH239673   3.960   4.138  11.679  0.3372 -0.4501 -0.4597
 6061TIP3    H139674   3.989   4.088  11.602 -1.3271 -0.4891 -1.1209
 6061TIP3    H239675   3.945   4.071  11.746 -0.5742 -0.7183 -0.9116
 6062TIP3   OH239676   3.572   3.540  10.951 -0.7400  0.8418  0.5603
 6062TIP3    H139677   3.509   3.605  10.918 -0.5943  0.0450 -1.4203
 6062TIP3    H239678   3.599   3.492  10.873  0.6558 -0.3038  1.7101
 6063TIP3   OH239679   1.941   3.882  11.696 -0.1226  0.2285 -0.2646
 6063TIP3    H139680   1.900   3.934  11.766  3.3214 -0.1774  2.3477
 6063TIP3    H239681   1.987   3.946  11.643  2.1384  0.2145  1.5264
 6064TIP3   OH239682   1.856   6.709  10.649 -0.3563  0.1621 -0.7777
 6064TIP3    H139683   1.926   6.743  10.704  0.1542  0.5102 -1.6120
 6064TIP3    H239684   1.901   6.676  10.571 -0.9781 -1.2112 -0.5718
 6065TIP3   OH239685   5.651   3.190   0.754 -0.4507 -0.2806  0.2940
 6065TIP3    H139686   5.582   3.249   0.785 -1.2477 -1.1400  0.2182
 6065TIP3    H239687   5.715   3.188   0.825 -1.3113 -0.7398  1.0786
 6066TIP3   OH239688   5.218   1.770  14.820 -0.2722  0.1660  0.2820
 6066TIP3    H139689   5.226   1.761  14.915  1.0053 -1.4872  0.0678
 6066TIP3    H239690   5.156   1.702  14.794 -1.0402  0.9589 -0.0552
 6067TIP3   OH239691   3.331   2.083   3.867 -0.4890  0.2700 -0.2597
 6067TIP3    H139692   3.366   2.086   3.778 -1.4381  0.9998 -0.6305
 6067TIP3    H239693   3.236   2.097   3.856 -0.7372 -0.4482  0.7953
 6068TIP3   OH239694   5.061   3.574  11.821  0.0660 -0.3980 -0.4284
 6068TIP3    H139695   5.081   3.513  11.750  1.2213 -1.8188  1.0434
 6068TIP3    H239696   5.037   3.655  11.776 -0.2118 -1.5121 -2.4391
 6069TIP3   OH239697   1.146   5.857  13.479 -0.3676 -0.3093  0.2201
 6069TIP3    H139698   1.058   5.819  13.484 -0.1072 -0.9109  0.3453
 6069TIP3    H239699   1.180   5.827  13.394 -0.2799 -0.0868  0.1753
 6070TIP3   OH239700   5.597   0.845   4.166 -0.3242 -0.0791 -0.2819
 6070TIP3    H139701   5.542   0.841   4.244 -0.8344 -0.0281 -0.6337
 6070TIP3    H239702   5.591   0.757   4.128 -0.7932  0.1486 -0.7455
 6071TIP3   OH239703   0.579   4.317  15.293  0.0742 -0.1119 -0.1744
 6071TIP3    H139704   0.601   4.264  15.216  0.8293  0.0583 -0.0919
 6071TIP3    H239705   0.494   4.285  15.321 -0.0565 -0.4086 -0.8797
 6072TIP3   OH239706   6.336   1.763   1.257 -0.1140  0.1114 -0.4851
 6072TIP3    H139707   6.390   1.730   1.185  2.5993  2.5782  0.2387
 6072TIP3    H239708   6.361   1.855   1.265 -2.1158  0.5337  2.0658
 6073TIP3   OH239709   1.764   5.088  15.665 -0.6405  0.4501 -0.0655
 6073TIP3    H139710   1.774   5.000  15.701 -1.1331  0.7373  0.8016
 6073TIP3    H239711   1.706   5.077  15.590 -2.9273  0.3785  1.6188
 6074TIP3   OH239712   2.338   3.525  10.118 -1.0943  0.0786  0.3171
 6074TIP3    H139713   2.266   3.588  10.121  0.2720  1.7665 -0.4775
 6074TIP3    H239714   2.388   3.540  10.198 -1.0233 -0.3517  0.3606
 6075TIP3   OH239715   0.146   1.944   3.854  0.4669  0.7149 -0.0513
 6075TIP3    H139716   0.173   2.013   3.914 -1.6298 -1.1244  3.3283
 6075TIP3    H239717   0.216   1.879   3.859  0.3315  0.5997  0.3175
 6076TIP3   OH239718   0.347   2.422   2.641  0.0253  0.0632 -0.7951
 6076TIP3    H139719   0.441   2.423   2.658  0.0449  2.1890 -0.8121
 6076TIP3    H239720   0.311   2.369   2.712  1.1871 -0.4272 -0.5424
 6077TIP3   OH239721   6.066   0.740  15.697  0.4816  0.7503  0.0994
 6077TIP3    H139722   6.093   0.692  15.776 -0.4120  0.6851  0.3723
 6077TIP3    H239723   6.093   0.830  15.714  1.2590  0.5443  0.0150
 6078TIP3   OH239724   1.907   4.761  10.936  0.3251 -0.5274 -0.6117
 6078TIP3    H139725   1.875   4.754  10.846  1.1307 -1.8406 -0.8117
 6078TIP3    H239726   1.970   4.833  10.933 -0.9553  0.6429 -0.6747
 6079TIP3   OH239727   1.935   5.602  13.507 -0.2734 -0.8533 -0.7847
 6079TIP3    H139728   1.986   5.678  13.479 -1.6392  2.2764  3.9541
 6079TIP3    H239729   2.000   5.541  13.541  0.7184 -0.4916 -1.9572
 6080TIP3   OH239730   1.316   5.795  12.877 -0.2348  0.1032  0.8676
 6080TIP3    H139731   1.259   5.871  12.884  0.3458  0.6009  0.3181
 6080TIP3    H239732   1.261   5.721  12.902 -1.4783  0.4136 -0.7485
 6081TIP3   OH239733   6.620   6.075   5.551 -0.6002 -0.5700  0.1896
 6081TIP3    H139734   6.692   6.019   5.521  1.2409  1.9345 -0.4425
 6081TIP3    H239735   6.542   6.035   5.514  0.8509 -1.5920 -2.0122
 6082TIP3   OH239736   1.204   1.399   4.937  0.3212  0.8280 -0.2396
 6082TIP3    H139737   1.196   1.490   4.967  4.1794  1.0100  0.7943
 6082TIP3    H239738   1.298   1.383   4.936 -0.1880 -2.9358 -1.2640
 6083TIP3   OH239739   2.686   4.006  14.116  0.1120 -0.1366 -0.3305
 6083TIP3    H139740   2.760   4.038  14.167  0.3079  0.5011 -1.0037
 6083TIP3    H239741   2.622   4.077  14.117 -0.2637 -0.4707 -0.2148
 6084TIP3   OH239742   6.807   6.330   5.395 -0.1307  0.2867 -0.1925
 6084TIP3    H139743   6.729   6.369   5.434  0.0376  0.5074 -0.0754
 6084TIP3    H239744   6.774   6.252   5.350 -0.5279  0.7432 -0.7179
 6085TIP3   OH239745   0.128   1.651   2.232  0.0861 -0.3066 -0.0543
 6085TIP3    H139746   0.053   1.592   2.239 -0.6606  0.6659  0.5818
 6085TIP3    H239747   0.098   1.731   2.276  1.3409  0.2598 -0.2057
 6086TIP3   OH239748   1.973   5.252  13.840  0.6672  0.4741  0.3529
 6086TIP3    H139749   1.882   5.232  13.862  0.5070  0.7699 -0.0401
 6086TIP3    H239750   2.001   5.315  13.907  1.0983 -0.8355  1.4492
 6087TIP3   OH239751   1.858   4.019  15.206  0.3484  0.0113  0.4067
 6087TIP3    H139752   1.921   4.090  15.218  0.1255  0.0885  1.1405
 6087TIP3    H239753   1.831   4.026  15.115  0.2640  0.9176  0.4934
 6088TIP3   OH239754   3.040   3.162   5.423 -0.0158  0.0005  0.5202
 6088TIP3    H139755   2.977   3.120   5.364  0.1353 -0.2221  0.5174
 6088TIP3    H239756   2.986   3.205   5.489 -0.1630 -1.6846  1.5593
 6089TIP3   OH239757   0.189   1.461  15.750 -0.3696 -0.1377  0.6965
 6089TIP3    H139758   0.174   1.492  15.840  1.4349 -0.1163  1.0184
 6089TIP3    H239759   0.278   1.426  15.751 -0.8735 -1.5626 -0.7153
 6090TIP3   OH239760   6.310   5.499   1.398  0.0454 -0.1814 -0.4773
 6090TIP3    H139761   6.369   5.440   1.445  1.4041  0.6263 -1.0820
 6090TIP3    H239762   6.223   5.460   1.408  0.6636 -1.3787  0.5148
 6091TIP3   OH239763   2.790   2.292   2.484 -0.1403  0.7301  0.1151
 6091TIP3    H139764   2.773   2.386   2.474  1.5370  1.1109  0.4861
 6091TIP3    H239765   2.703   2.253   2.493 -0.9266  2.1245 -0.9583
 6092TIP3   OH239766   0.121   2.462  11.209  0.0830 -0.2247 -0.3565
 6092TIP3    H139767   0.141   2.555  11.216 -2.3171  0.5002 -1.7676
 6092TIP3    H239768   0.183   2.429  11.144  0.4312  0.5855 -0.4499
 6093TIP3   OH239769   0.741   4.117  15.580 -0.8998  0.3333  0.4342
 6093TIP3    H139770   0.744   4.092  15.488  1.6819 -0.3403  0.6371
 6093TIP3    H239771   0.748   4.035  15.628 -0.8832  0.7868  1.2276
 6094TIP3   OH239772   1.922   6.723   5.511 -0.4853 -0.1310 -0.0714
 6094TIP3    H139773   1.919   6.651   5.448 -0.3715  1.4458 -1.9942
 6094TIP3    H239774   1.971   6.688   5.585  2.1551 -1.2000 -2.1330
 6095TIP3   OH239775   5.755   3.809  15.812 -0.1285 -0.1580 -0.0207
 6095TIP3    H139776   5.824   3.770  15.867 -0.5012 -1.7920 -0.6506
 6095TIP3    H239777   5.692   3.738  15.799 -1.4378  1.0122 -0.2980
 6096TIP3   OH239778   5.056   1.782   5.038 -0.0819 -0.5914 -0.3609
 6096TIP3    H139779   5.014   1.700   5.009 -0.2003 -0.4401 -0.6193
 6096TIP3    H239780   5.046   1.841   4.963  0.4558 -0.5033 -0.3653
 6097TIP3   OH239781   4.431   1.050  16.291  0.0784  0.1671 -0.3092
 6097TIP3    H139782   4.501   1.113  16.302  1.3792 -1.0571 -1.2445
 6097TIP3    H239783   4.386   1.077  16.211  2.2087 -1.4400 -2.1560
 6098TIP3   OH239784   1.206   3.878  10.657 -0.0748  0.2192 -0.7439
 6098TIP3    H139785   1.146   3.862  10.584 -0.2466  0.4231 -0.6474
 6098TIP3    H239786   1.196   3.801  10.714  0.2850 -0.0867 -1.0857
 6099TIP3   OH239787   5.953   4.241  16.154  0.2673 -0.5422 -0.0224
 6099TIP3    H139788   6.022   4.305  16.134 -0.9928  0.8422 -0.1254
 6099TIP3    H239789   5.872   4.291  16.147 -0.6560 -1.6948  1.8046
 6100TIP3   OH239790   0.538   0.116   6.118 -0.1665  0.2962 -0.0490
 6100TIP3    H139791   0.571   0.184   6.177  1.3921 -0.4021 -0.0856
 6100TIP3    H239792   0.444   0.115   6.134 -0.0843  1.7179  0.7329
 6101TIP3   OH239793   0.015   4.530  13.399  0.1547  0.2229 -0.5677
 6101TIP3    H139794   0.094   4.549  13.348  0.6018  0.3933  0.1829
 6101TIP3    H239795   0.026   4.578  13.481 -0.2012 -0.6738  0.0252
 6102TIP3   OH239796   3.037   6.701  13.448 -0.4287  0.2382  0.2511
 6102TIP3    H139797   3.110   6.643  13.424 -0.3210 -0.3641  1.9506
 6102TIP3    H239798   2.999   6.726  13.364 -0.1936 -1.9366 -0.5759
 6103TIP3   OH239799   1.225   2.844  11.498 -0.3162 -0.1281 -0.1336
 6103TIP3    H139800   1.188   2.796  11.573 -0.2401  1.1148  0.7272
 6103TIP3    H239801   1.304   2.885  11.533  0.0361 -0.0098 -1.0645
 6104TIP3   OH239802   1.669   3.585   3.798 -0.2662 -0.3252  0.3755
 6104TIP3    H139803   1.706   3.649   3.859  2.3644  0.0839 -1.4730
 6104TIP3    H239804   1.578   3.612   3.787 -0.4354  0.4079  2.9639
 6105TIP3   OH239805   3.036   5.687   6.056 -0.5279 -0.0005 -0.8994
 6105TIP3    H139806   3.058   5.656   6.144  0.1851 -0.2889 -1.1672
 6105TIP3    H239807   3.110   5.744   6.032 -0.1779 -0.7775 -1.7259
 6106TIP3   OH239808   6.179   4.176  15.875 -0.8139 -0.1268  0.0620
 6106TIP3    H139809   6.152   4.103  15.931 -0.7325 -1.0594 -1.0635
 6106TIP3    H239810   6.113   4.178  15.806 -0.5181  0.5326 -0.2065
 6107TIP3   OH239811   4.132   0.765  15.891 -0.1539  0.6244 -0.0365
 6107TIP3    H139812   4.108   0.725  15.808  1.6136  0.2024 -0.3827
 6107TIP3    H239813   4.159   0.692  15.946  1.7968  1.1660 -0.2113
 6108TIP3   OH239814   0.859   0.080   0.072  0.1633  0.4956  0.0853
 6108TIP3    H139815   0.936   0.045   0.115 -0.3187 -0.9065 -0.1176
 6108TIP3    H239816   0.821   0.004   0.027 -0.7468  1.3766 -0.6746
 6109TIP3   OH239817   0.737   0.387   3.087  0.1008  0.4354  0.1761
 6109TIP3    H139818   0.669   0.410   3.024 -1.4815 -0.4538  1.4767
 6109TIP3    H239819   0.803   0.456   3.077 -0.1265  0.3728 -2.3256
 6110TIP3   OH239820   5.718   1.342   5.068 -0.2680 -0.4680  0.3795
 6110TIP3    H139821   5.796   1.328   5.121 -0.1791  1.3353  0.7879
 6110TIP3    H239822   5.662   1.267   5.088  0.3431 -0.5309  1.9908
 6111TIP3   OH239823   4.345   0.426  11.763  0.1357 -0.0142 -0.1475
 6111TIP3    H139824   4.379   0.461  11.846  0.1366 -1.4507  0.4853
 6111TIP3    H239825   4.282   0.359  11.790  0.4925 -0.8403 -1.3098
 6112TIP3   OH239826   0.614   1.667  15.525 -0.1891 -0.3906 -0.4524
 6112TIP3    H139827   0.677   1.715  15.578 -1.3992  0.8223 -0.0661
 6112TIP3    H239828   0.664   1.594  15.489  1.9509  1.5126 -1.6649
 6113TIP3   OH239829   3.841   2.702  15.031  0.3371  1.1747 -0.0478
 6113TIP3    H139830   3.817   2.696  14.939  0.6598  0.8912 -0.1162
 6113TIP3    H239831   3.850   2.611  15.060 -1.2673  1.1925  0.6753
 6114TIP3   OH239832   6.585   6.193  12.831  0.5418 -0.5286 -0.1330
 6114TIP3    H139833   6.645   6.121  12.852  0.8186  0.0221  1.0355
 6114TIP3    H239834   6.497   6.155  12.840  0.6932 -0.9915 -0.5681
 6115TIP3   OH239835   4.011   0.094   5.117 -0.1058 -0.1986  0.2854
 6115TIP3    H139836   4.016   0.125   5.027  2.2577 -0.2657  0.3315
 6115TIP3    H239837   4.012   0.174   5.170 -2.5901 -0.1050  0.2987
 6116TIP3   OH239838   5.571   5.369   4.313 -0.1153 -0.0344 -0.1439
 6116TIP3    H139839   5.625   5.396   4.387  1.6695 -0.9097 -1.0498
 6116TIP3    H239840   5.586   5.437   4.246  0.6611 -0.7683 -0.7388
 6117TIP3   OH239841   5.802   1.334  11.037 -0.1301  0.4490  0.0702
 6117TIP3    H139842   5.798   1.307  10.945 -0.3164  0.6027  0.0319
 6117TIP3    H239843   5.821   1.253  11.085 -0.2457  0.3302 -0.0833
 6118TIP3   OH239844   5.416   6.370  16.568  0.0010  0.1752 -0.4061
 6118TIP3    H139845   5.387   6.431  16.636  1.7163 -0.2706  0.7977
 6118TIP3    H239846   5.470   6.423  16.510  0.9447 -0.0276  0.2653
 6119TIP3   OH239847   6.101   3.656   0.375  0.0630  0.1277  0.6054
 6119TIP3    H139848   6.132   3.567   0.357  0.7797  0.6071 -0.6705
 6119TIP3    H239849   6.161   3.689   0.442 -0.7591 -0.6377  1.7567
 6120TIP3   OH239850   1.352   4.900   1.782  0.1612  0.0131  1.3337
 6120TIP3    H139851   1.257   4.888   1.788 -0.0145 -0.0734 -0.8340
 6120TIP3    H239852   1.385   4.816   1.749  0.8404  0.4499  0.8701
 6121TIP3   OH239853   3.471   3.557  13.506  0.5708 -0.3233 -0.1346
 6121TIP3    H139854   3.552   3.538  13.553  0.0839  1.6795  1.7080
 6121TIP3    H239855   3.411   3.488  13.535  0.8352 -0.2014  0.7577
 6122TIP3   OH239856   2.928   3.150  11.414 -0.3063 -0.5578 -0.1602
 6122TIP3    H139857   2.835   3.168  11.398 -0.9930 -1.6200  2.1469
 6122TIP3    H239858   2.953   3.211  11.483  1.0804  0.4809 -1.5184
 6123TIP3   OH239859   3.269   2.406   1.979  0.0330  0.4116  0.6433
 6123TIP3    H139860   3.293   2.352   1.904 -0.9299 -0.5426  0.9896
 6123TIP3    H239861   3.200   2.464   1.945 -1.4750 -1.0289  1.0940
 6124TIP3   OH239862   1.262   3.786  13.166 -0.0373 -0.4338 -0.4755
 6124TIP3    H139863   1.230   3.875  13.181  0.3242 -0.3594 -0.1059
 6124TIP3    H239864   1.357   3.794  13.166  0.0667 -1.0872  1.5101
 6125TIP3   OH239865   2.284   2.623   2.504 -0.2203 -0.2647 -0.1346
 6125TIP3    H139866   2.347   2.684   2.541 -2.3698  2.2254 -0.3185
 6125TIP3    H239867   2.262   2.660   2.419 -3.6799  0.3650  0.9091
 6126TIP3   OH239868   0.238   3.832   4.142  0.6477 -0.5009 -0.1966
 6126TIP3    H139869   0.208   3.763   4.083  0.6434  0.1505 -0.9773
 6126TIP3    H239870   0.159   3.885   4.158  0.7409 -0.4442  0.0780
 6127TIP3   OH239871   2.511   3.167   3.038  0.1984  0.1350  0.4407
 6127TIP3    H139872   2.606   3.165   3.052 -0.0831  0.2311  2.8112
 6127TIP3    H239873   2.480   3.082   3.070 -0.3004 -1.2538 -3.2059
 6128TIP3   OH239874   3.077   0.925  11.060 -0.3112  0.4572  0.0221
 6128TIP3    H139875   3.159   0.965  11.032  0.3463  0.1863  1.4424
 6128TIP3    H239876   3.011   0.994  11.048  0.5904  1.6137  1.3078
 6129TIP3   OH239877   4.143   4.743   2.868 -0.2529 -0.3927  0.1514
 6129TIP3    H139878   4.144   4.779   2.780 -0.5985  0.5994  0.5342
 6129TIP3    H239879   4.199   4.801   2.919 -2.1992  0.7277  1.1740
 6130TIP3   OH239880   6.624   0.873  13.008  0.1513  0.0196  0.0134
 6130TIP3    H139881   6.695   0.819  12.973 -0.0769 -0.5099  0.3579
 6130TIP3    H239882   6.667   0.934  13.068  0.2274 -0.8271  0.8385
 6131TIP3   OH239883   5.608   4.575  10.282 -0.0418  0.1347 -0.3329
 6131TIP3    H139884   5.544   4.555  10.350 -1.6094 -0.6201 -1.9419
 6131TIP3    H239885   5.612   4.671  10.279 -0.4583  0.1707  0.3533
 6132TIP3   OH239886   0.956   2.761  14.792  0.8677 -0.4576 -0.3204
 6132TIP3    H139887   1.048   2.761  14.817  1.1094 -0.1036 -1.1759
 6132TIP3    H239888   0.929   2.853  14.798 -0.3350 -0.8883  3.0163
 6133TIP3   OH239889   0.937   3.505  13.261 -0.0275 -0.5679 -0.6641
 6133TIP3    H139890   0.878   3.477  13.330  0.3872  0.7257  0.2631
 6133TIP3    H239891   0.884   3.561  13.204  0.5979  1.9640  1.0887
 6134TIP3   OH239892   3.678   6.363   0.809 -0.0631 -0.2806 -0.3290
 6134TIP3    H139893   3.751   6.381   0.750 -0.0088 -0.4019 -0.2989
 6134TIP3    H239894   3.682   6.433   0.874  0.1284 -0.3798 -0.2318
 6135TIP3   OH239895   3.770   0.074   5.926  0.9711 -0.6829  0.1685
 6135TIP3    H139896   3.691   0.055   5.977  1.2180 -1.4587  0.2716
 6135TIP3    H239897   3.759   0.024   5.845  0.5248  0.6309 -0.6194
 6136TIP3   OH239898   1.028   2.406  16.599 -0.2611  0.2291  0.1834
 6136TIP3    H139899   1.029   2.338  16.533 -0.8743  0.6084 -0.2266
 6136TIP3    H239900   0.963   2.377  16.664 -1.1216  0.7993 -0.4078
 6137TIP3   OH239901   4.746   6.806   6.409  0.4459 -0.1246  0.6112
 6137TIP3    H139902   4.704   6.762   6.335 -1.1407  0.1105  1.3168
 6137TIP3    H239903   4.818   6.856   6.370 -0.7601  0.5250 -0.8837
 6138TIP3   OH239904   4.140   0.091  11.601 -0.2852  0.8709  0.7089
 6138TIP3    H139905   4.138   0.161  11.536  1.4319 -1.4667 -2.1215
 6138TIP3    H239906   4.048   0.076  11.624 -1.4562 -0.2753 -3.7666
 6139TIP3   OH239907   4.682   1.018  10.794  0.0083 -0.4084 -0.3948
 6139TIP3    H139908   4.739   0.945  10.816  0.9882  0.5995  0.5398
 6139TIP3    H239909   4.620   1.023  10.868  1.0346  0.7373  0.4380
 6140TIP3   OH239910   3.013   4.100   4.597 -0.6319 -0.2108  0.0532
 6140TIP3    H139911   3.092   4.075   4.549  0.7636 -0.4877  2.3610
 6140TIP3    H239912   2.995   4.190   4.567  0.9269  0.0906 -0.0579
 6141TIP3   OH239913   0.058   4.153  12.182  0.2600 -0.0105  0.1493
 6141TIP3    H139914   0.100   4.127  12.100 -0.1122 -1.2089  0.3205
 6141TIP3    H239915   0.130   4.172  12.242  0.5733 -1.4297  0.2465
 6142TIP3   OH239916   3.696   5.549  17.016  0.2433 -0.2781  0.3697
 6142TIP3    H139917   3.717   5.553  17.109 -0.1999  0.3358  0.4516
 6142TIP3    H239918   3.662   5.461  17.002 -1.0332  0.0809  1.0827
 6143TIP3   OH239919   4.576   4.866  12.900 -0.0715 -0.2675  0.3334
 6143TIP3    H139920   4.581   4.960  12.916  1.3387  0.1717 -2.0904
 6143TIP3    H239921   4.646   4.828  12.952  0.6653  0.3244 -0.2054
 6144TIP3   OH239922   5.158   5.718   0.167 -0.0698 -0.4678 -0.3849
 6144TIP3    H139923   5.145   5.795   0.222 -1.2788 -2.2849  2.0800
 6144TIP3    H239924   5.253   5.709   0.161  0.0906  1.0735 -0.5668
 6145TIP3   OH239925   0.761   3.251  13.030 -0.0090  0.1792 -0.0852
 6145TIP3    H139926   0.716   3.307  13.094 -1.4181 -1.4896  0.4701
 6145TIP3    H239927   0.695   3.232  12.964  0.0649 -1.7534  0.3595
 6146TIP3   OH239928   3.327   5.752   4.997 -0.1253  0.1852  0.5706
 6146TIP3    H139929   3.304   5.666   4.959  1.9105 -1.1705  2.1723
 6146TIP3    H239930   3.383   5.792   4.931 -1.8386  0.7524 -0.5998
 6147TIP3   OH239931   6.675   3.498  12.840 -0.5065 -0.7630 -0.0939
 6147TIP3    H139932   6.719   3.507  12.756 -1.0153  0.3537 -0.2487
 6147TIP3    H239933   6.615   3.572  12.845  0.5905  0.1016  1.8984
 6148TIP3   OH239934   4.207   5.499  13.647  0.5528 -0.6692  0.1644
 6148TIP3    H139935   4.137   5.463  13.701 -1.3801  0.4373 -1.5006
 6148TIP3    H239936   4.200   5.455  13.563  1.5419 -0.1818 -0.2025
 6149TIP3   OH239937   5.289   0.746  11.032  0.2026  0.4580  0.6750
 6149TIP3    H139938   5.242   0.665  11.015  1.3284 -0.2469  0.8096
 6149TIP3    H239939   5.299   0.787  10.946  0.2607  0.1017  0.5118
 6150TIP3   OH239940   5.520   1.430   1.867  0.7675 -0.9808  0.1192
 6150TIP3    H139941   5.580   1.488   1.821  1.7268 -1.1439  1.1395
 6150TIP3    H239942   5.516   1.464   1.956  1.4693 -2.5323  0.7855
 6151TIP3   OH239943   2.114   0.884  12.368 -0.1264  0.3972  0.3954
 6151TIP3    H139944   2.023   0.852  12.370 -0.3479  1.0180  0.4589
 6151TIP3    H239945   2.165   0.812  12.405 -0.3150 -0.8187 -1.5971
 6152TIP3   OH239946   1.270   3.728  12.052 -0.6627  0.0425  0.2976
 6152TIP3    H139947   1.256   3.633  12.046 -0.4065  0.0035  0.3001
 6152TIP3    H239948   1.221   3.755  12.130 -0.6688 -0.1020  0.3446
 6153TIP3   OH239949   5.142   4.647   3.137 -0.0953 -0.6786 -0.6625
 6153TIP3    H139950   5.205   4.706   3.096 -1.0526 -0.8103 -2.3802
 6153TIP3    H239951   5.068   4.704   3.161  0.6718 -0.4841  1.5370
 6154TIP3   OH239952   2.169   6.064  12.810  0.2665 -0.2624 -0.2252
 6154TIP3    H139953   2.201   6.154  12.806  0.2861 -0.2711 -0.2679
 6154TIP3    H239954   2.213   6.020  12.737 -1.3836  0.1955 -1.5449
 6155TIP3   OH239955   6.629   3.436   6.447  0.2218 -0.2515  0.2964
 6155TIP3    H139956   6.539   3.451   6.420 -0.4615 -0.0769  2.4411
 6155TIP3    H239957   6.654   3.516   6.494  0.6201 -1.2175  1.8065
 6156TIP3   OH239958   2.454   6.559  11.299  0.2048  0.3266  0.0042
 6156TIP3    H139959   2.410   6.642  11.317  3.4974  2.0804  0.6612
 6156TIP3    H239960   2.435   6.542  11.206 -1.6596  1.0359  0.2166
 6157TIP3   OH239961   4.341   1.786  11.021  0.3960 -0.1884 -0.3430
 6157TIP3    H139962   4.345   1.791  10.926 -0.2380  1.0123 -0.3273
 6157TIP3    H239963   4.279   1.855  11.046  0.5666 -0.4746  0.9363
 6158TIP3   OH239964   4.565   5.600  11.422  0.5348  0.0379  0.1076
 6158TIP3    H139965   4.498   5.538  11.392  0.4350 -0.3981  1.1993
 6158TIP3    H239966   4.537   5.684  11.386 -1.8045  0.2930  2.2408
 6159TIP3   OH239967   1.974   0.585  13.468  0.6894 -0.4759  0.2452
 6159TIP3    H139968   1.942   0.584  13.378  1.1118 -0.0031  0.0779
 6159TIP3    H239969   1.940   0.505  13.508 -1.5241  0.4755  0.3835
 6160TIP3   OH239970   0.070   3.823  15.509  0.0284 -0.2709  0.3276
 6160TIP3    H139971   0.129   3.758  15.548  0.9167  1.0461  1.2473
 6160TIP3    H239972   0.123   3.867  15.443 -1.2516 -1.9796 -2.0075
 6161TIP3   OH239973   0.331   6.484  10.742  0.0623 -0.0377  0.6211
 6161TIP3    H139974   0.238   6.466  10.751  0.2462 -1.5934 -0.2150
 6161TIP3    H239975   0.337   6.579  10.736 -1.4774  0.0753  0.5409
 6162TIP3   OH239976   5.078   1.828  11.928  0.1281 -0.1044 -0.0459
 6162TIP3    H139977   5.085   1.905  11.985 -0.2478  0.4632 -0.7614
 6162TIP3    H239978   5.138   1.764  11.968  1.5391  1.0436 -0.2203
 6163TIP3   OH239979   4.016   6.169  14.374  0.3175  0.3141 -0.3029
 6163TIP3    H139980   4.011   6.252  14.326 -0.7164  0.0860 -0.6226
 6163TIP3    H239981   3.925   6.151  14.399  0.8948  0.8253  2.4862
 6164TIP3   OH239982   4.405   1.011  12.120 -0.0014 -0.1046 -0.0320
 6164TIP3    H139983   4.427   1.043  12.207  0.2861  1.0019 -0.4915
 6164TIP3    H239984   4.310   1.015  12.116  0.0210  0.5619 -0.0226
 6165TIP3   OH239985   1.844   0.528   3.739 -0.2371 -0.2099 -0.1223
 6165TIP3    H139986   1.909   0.519   3.809 -0.2922  1.4420  0.1910
 6165TIP3    H239987   1.851   0.447   3.689  0.9353 -0.7444  0.8521
 6166TIP3   OH239988   1.065   2.922  13.485 -0.4858 -0.1354 -0.5868
 6166TIP3    H139989   0.993   2.862  13.505  0.7483 -0.7686  2.4707
 6166TIP3    H239990   1.033   3.008  13.512 -0.1176 -0.4250  0.8252
 6167TIP3   OH239991   0.152   4.709   4.858 -0.0667 -0.1119 -0.2257
 6167TIP3    H139992   0.173   4.803   4.860 -1.4783  0.2151  0.1179
 6167TIP3    H239993   0.221   4.671   4.804 -1.0541  1.5495 -2.8241
 6168TIP3   OH239994   3.538   0.496   1.852 -0.1684 -0.0554 -0.2180
 6168TIP3    H139995   3.480   0.428   1.819  0.7282 -0.5672 -0.7791
 6168TIP3    H239996   3.500   0.578   1.819 -1.8431 -0.1392  1.3266
 6169TIP3   OH239997   1.761   1.840  11.627  0.2397  0.0948  0.6895
 6169TIP3    H139998   1.786   1.911  11.568  1.6628 -1.2685 -0.4506
 6169TIP3    H239999   1.843   1.816  11.670 -0.8877  1.6115  4.0044
 6170TIP3   OH240000   4.827   2.929  14.971  0.5627 -0.2476 -0.0065
 6170TIP3    H140001   4.883   2.925  15.049 -0.3503 -2.5555  0.6051
 6170TIP3    H240002   4.851   2.851  14.920 -0.0473  0.3321 -1.2159
 6171TIP3   OH240003   0.068   3.047   0.940  0.0642  0.0647 -0.4375
 6171TIP3    H140004   0.151   3.000   0.942  0.6409  0.8892 -2.4490
 6171TIP3    H240005   0.092   3.137   0.917 -1.1905  0.8973  1.2720
 6172TIP3   OH240006   1.735   0.309   0.321 -0.3883 -0.3785  0.7952
 6172TIP3    H140007   1.750   0.250   0.394 -0.6219  1.0920  2.0657
 6172TIP3    H240008   1.793   0.383   0.338 -0.6658  0.1224 -0.3619
 6173TIP3   OH240009   5.088   2.214  15.350 -0.0213  1.0904 -0.2371
 6173TIP3    H140010   5.044   2.287  15.395  1.3555  1.8892 -0.1165
 6173TIP3    H240011   5.168   2.253  15.314  0.1990 -0.1288 -1.1249
 6174TIP3   OH240012   3.685   6.352   6.453  0.0617 -0.0242  0.4997
 6174TIP3    H140013   3.772   6.379   6.483 -0.1381 -0.5485  1.5958
 6174TIP3    H240014   3.650   6.430   6.409  1.1657  0.1203 -0.1665
 6175TIP3   OH240015   2.884   5.940  13.112 -0.3351  0.0725  0.3622
 6175TIP3    H140016   2.844   5.855  13.095 -0.4346  0.0748  0.5844
 6175TIP3    H240017   2.887   5.983  13.026  1.0635 -0.7261 -0.0152
 6176TIP3   OH240018   1.010   1.055   0.526 -0.1991  0.6203 -0.0689
 6176TIP3    H140019   0.976   1.099   0.604 -1.4709 -0.1734 -0.1476
 6176TIP3    H240020   1.045   0.972   0.559  0.6463  0.9264 -0.1567
 6177TIP3   OH240021   6.415   5.100  13.331 -0.6252 -0.4092 -0.4318
 6177TIP3    H140022   6.444   5.166  13.395 -1.3831  0.1068 -0.5952
 6177TIP3    H240023   6.351   5.048  13.379 -2.5148  1.0643 -1.2041
 6178TIP3   OH240024   0.554   4.890   3.833  0.0606  0.1342  0.2601
 6178TIP3    H140025   0.576   4.870   3.742  0.0312  1.4338 -0.0452
 6178TIP3    H240026   0.524   4.806   3.869 -0.1821 -0.3410 -0.9943
 6179TIP3   OH240027   1.494   1.090   2.918  0.2662 -0.8393  0.5882
 6179TIP3    H140028   1.433   1.159   2.943  0.1659 -0.9344  0.6091
 6179TIP3    H240029   1.438   1.016   2.894  0.3745 -0.9462  0.6614
 6180TIP3   OH240030   3.935   5.526   5.057 -0.2484  0.3877  0.4990
 6180TIP3    H140031   3.875   5.595   5.087 -1.5533 -0.7842  0.6664
 6180TIP3    H240032   3.914   5.514   4.964  1.4281  1.6162 -0.1068
 6181TIP3   OH240033   3.320   5.399  13.212  0.2724 -0.2934  0.1047
 6181TIP3    H140034   3.234   5.357  13.199  0.1782  0.1332 -0.7703
 6181TIP3    H240035   3.383   5.329  13.195  0.1022 -0.5940  0.6897
 6182TIP3   OH240036   6.570   2.445   0.760  0.2146  0.5511 -0.1197
 6182TIP3    H140037   6.607   2.360   0.781  0.2663  1.2806  3.2527
 6182TIP3    H240038   6.645   2.500   0.739  0.1025 -0.4024 -3.5720
 6183TIP3   OH240039   6.186   6.309   4.966 -0.4924 -0.2713 -0.0764
 6183TIP3    H140040   6.229   6.392   4.987 -1.1480 -0.0148  0.2529
 6183TIP3    H240041   6.176   6.310   4.871 -1.8482  0.6974  0.0549
 6184TIP3   OH240042   1.374   2.481  14.832  0.6227  0.4276 -0.0514
 6184TIP3    H140043   1.446   2.421  14.811  0.9465  0.8277 -0.1131
 6184TIP3    H240044   1.338   2.506  14.747 -0.6732 -1.0391  0.0248
 6185TIP3   OH240045   4.801   4.731   3.541 -0.4954 -0.0167 -0.2146
 6185TIP3    H140046   4.891   4.703   3.551 -0.2849  1.1432  1.6226
 6185TIP3    H240047   4.750   4.671   3.597 -0.8552 -0.5469 -1.0905
 6186TIP3   OH240048   1.498   4.623   2.875 -0.4771  0.8259  0.4034
 6186TIP3    H140049   1.545   4.697   2.913  1.7967 -0.4767  0.2986
 6186TIP3    H240050   1.539   4.609   2.790 -0.3108 -1.0018  0.7373
 6187TIP3   OH240051   2.086   2.421   5.352 -0.0195 -0.0869 -0.1713
 6187TIP3    H140052   1.995   2.406   5.327  0.4049  0.6279 -2.3456
 6187TIP3    H240053   2.131   2.338   5.332  0.0323 -0.0584 -0.1742
 6188TIP3   OH240054   3.565   4.478   6.380 -0.0964 -0.4154  0.1502
 6188TIP3    H140055   3.485   4.442   6.419  0.3582 -1.1174  0.4514
 6188TIP3    H240056   3.633   4.460   6.444  0.5221 -0.8855 -0.6194
 6189TIP3   OH240057   3.708   3.025   1.688 -0.0176 -0.2253  0.0160
 6189TIP3    H140058   3.649   3.075   1.632  0.1312 -0.3443 -0.2501
 6189TIP3    H240059   3.796   3.050   1.659  0.1042  1.1036  1.4238
 6190TIP3   OH240060   3.703   1.637   6.508  0.4172  0.9022  0.0799
 6190TIP3    H140061   3.721   1.707   6.571 -0.5362  0.3691  0.9820
 6190TIP3    H240062   3.612   1.651   6.481  0.7757  1.0554 -1.1202
 6191TIP3   OH240063   0.850   3.842   1.728 -0.0700  0.2079 -0.1683
 6191TIP3    H140064   0.848   3.937   1.717 -0.7312  0.4362  1.6153
 6191TIP3    H240065   0.801   3.826   1.809  1.2525 -1.5416  0.3438
 6192TIP3   OH240066   5.491   5.930  11.615 -0.4526 -0.2021 -0.2874
 6192TIP3    H140067   5.500   5.990  11.541 -0.1910  0.5102  0.3052
 6192TIP3    H240068   5.398   5.935  11.638 -0.4051  0.0821 -0.1534
 6193TIP3   OH240069   3.756   4.138  14.716 -0.2375 -0.3912 -0.2769
 6193TIP3    H140070   3.843   4.171  14.693 -0.3711 -0.3598 -0.7350
 6193TIP3    H240071   3.762   4.044  14.705 -0.5128 -0.3104 -1.1514
 6194TIP3   OH240072   0.540   6.182  12.724  0.1648 -0.1009  0.4077
 6194TIP3    H140073   0.470   6.128  12.687  0.1690  1.1599 -1.5668
 6194TIP3    H240074   0.610   6.119  12.744 -0.1934 -0.9673 -0.9301
 6195TIP3   OH240075   6.584   6.460  16.973  0.3812  0.2519 -0.5607
 6195TIP3    H140076   6.614   6.389  17.029  2.9234  1.0950 -0.7198
 6195TIP3    H240077   6.500   6.430  16.939  1.9970 -3.3848 -1.8681
 6196TIP3   OH240078   6.385   4.782  15.167 -0.5869  0.0539 -0.1442
 6196TIP3    H140079   6.466   4.832  15.159 -0.3083 -0.0068  1.8991
 6196TIP3    H240080   6.413   4.691  15.175 -0.7765  0.1002  1.3015
 6197TIP3   OH240081   5.237   4.752   0.407 -0.2981  0.0512  0.0813
 6197TIP3    H140082   5.315   4.789   0.366 -1.6117  1.1214 -1.6181
 6197TIP3    H240083   5.240   4.659   0.387  0.0090  0.2681 -0.9101
 6198TIP3   OH240084   1.526   0.882  14.753  0.1115  0.1713 -0.1381
 6198TIP3    H140085   1.516   0.842  14.839 -0.8834  0.1808 -0.2457
 6198TIP3    H240086   1.563   0.969  14.770  0.5955 -0.0982  0.2176
 6199TIP3   OH240087   5.533   4.118  16.986  0.3287 -0.3834 -0.5409
 6199TIP3    H140088   5.509   4.026  16.976 -1.4331 -0.1001  0.6062
 6199TIP3    H240089   5.468   4.154  17.047  1.1468  1.5538 -0.7150
 6200TIP3   OH240090   6.100   4.548   3.572 -0.1608 -0.5579 -0.0841
 6200TIP3    H140091   6.052   4.623   3.606  2.8447  0.6502  1.8634
 6200TIP3    H240092   6.066   4.537   3.483  0.4474  4.3637 -1.2432
 6201TIP3   OH240093   0.227   4.499   3.289 -0.0771 -0.5403  0.4167
 6201TIP3    H140094   0.315   4.498   3.326  0.5093  1.7066 -0.7009
 6201TIP3    H240095   0.182   4.570   3.337 -1.2561 -1.5648  0.8807
 6202TIP3   OH240096   3.401   0.632  16.293 -0.4703 -0.2724 -0.2441
 6202TIP3    H140097   3.466   0.650  16.225  0.3132  0.1315  0.6009
 6202TIP3    H240098   3.382   0.718  16.331 -0.4843 -0.5727  0.4282
 6203TIP3   OH240099   2.822   1.590   0.469 -0.6319  0.3591 -0.0507
 6203TIP3    H140100   2.813   1.499   0.498 -1.4673  1.0093  1.9019
 6203TIP3    H240101   2.872   1.633   0.538  1.8862  0.9207 -2.0898
 6204TIP3   OH240102   4.747   4.849  14.362 -0.1474 -0.3659  0.3973
 6204TIP3    H140103   4.711   4.762  14.344  0.0663 -0.4600  0.4274
 6204TIP3    H240104   4.805   4.867  14.288 -1.1103  0.2656 -0.2428
 6205TIP3   OH240105   3.985   0.754  17.110  0.1269 -0.6318 -0.2301
 6205TIP3    H140106   4.052   0.713  17.055  1.9930 -0.8579  2.0341
 6205TIP3    H240107   4.018   0.843  17.124 -1.5956  0.2574 -1.4195
 6206TIP3   OH240108   1.901   2.401  13.256 -0.1509 -0.3212  0.8170
 6206TIP3    H140109   1.841   2.330  13.281  0.5439 -0.0224  3.6386
 6206TIP3    H240110   1.844   2.477  13.244 -0.6836 -0.8578 -0.2046
 6207TIP3   OH240111   5.740   2.667   2.582 -0.3190 -0.8182  0.0579
 6207TIP3    H140112   5.723   2.759   2.564 -0.0794 -0.8131 -0.1393
 6207TIP3    H240113   5.788   2.666   2.664  0.0525 -0.7411 -0.1575
 6208TIP3   OH240114   1.118   5.689   6.119 -0.2204 -0.1937 -0.3347
 6208TIP3    H140115   1.039   5.732   6.150 -0.1976 -1.7545  2.1892
 6208TIP3    H240116   1.189   5.746   6.149 -0.3072  0.1465 -0.7644
 6209TIP3   OH240117   2.168   0.352   3.898  0.0990 -0.2108  0.2191
 6209TIP3    H140118   2.117   0.432   3.910 -0.8405 -0.9122  1.0995
 6209TIP3    H240119   2.210   0.337   3.983  1.2947  0.0238 -0.3154
 6210TIP3   OH240120   4.988   2.452  11.551  0.0688  0.3536 -0.2307
 6210TIP3    H140121   4.999   2.423  11.461  0.9147  0.8924 -0.3185
 6210TIP3    H240122   5.024   2.541  11.552  1.5959 -0.2194  0.9744
 6211TIP3   OH240123   6.170   3.113  11.988  0.1331 -0.1376 -0.0030
 6211TIP3    H140124   6.079   3.141  11.982 -0.1011 -0.8556  0.1160
 6211TIP3    H240125   6.175   3.065  12.071  0.7131  0.2153  0.1754
 6212TIP3   OH240126   1.723   5.095   4.423 -0.3970  0.1618 -0.6426
 6212TIP3    H140127   1.810   5.095   4.383 -0.9470 -1.6210 -1.9708
 6212TIP3    H240128   1.678   5.169   4.382  0.7938  1.8381  0.9139
 6213TIP3   OH240129   1.062   2.313  10.354 -0.1864  0.0075  0.0661
 6213TIP3    H140130   0.982   2.259  10.346  0.6765 -1.3827  0.3981
 6213TIP3    H240131   1.099   2.313  10.266  0.4527 -1.0193  0.3132
 6214TIP3   OH240132   1.974   1.394  11.902 -0.3069 -0.9725  0.1250
 6214TIP3    H140133   1.888   1.427  11.875 -0.7385 -1.4781  0.8484
 6214TIP3    H240134   2.017   1.469  11.943 -2.5054 -1.8621  4.7327
 6215TIP3   OH240135   1.788   6.479   5.868 -0.1322 -0.2816 -0.3733
 6215TIP3    H140136   1.811   6.389   5.889  1.2835 -0.0830 -0.9595
 6215TIP3    H240137   1.850   6.532   5.917 -0.2009  0.3320 -0.9331
 6216TIP3   OH240138   5.719   2.799   2.057 -0.1300 -0.1245 -0.1147
 6216TIP3    H140139   5.648   2.767   2.113  1.1813 -2.0736  0.5384
 6216TIP3    H240140   5.783   2.836   2.117 -0.2839  1.0486 -0.6493
 6217TIP3   OH240141   2.303   0.380  16.350 -0.1132 -0.2786 -0.7352
 6217TIP3    H140142   2.213   0.383  16.384 -0.3145 -1.7498 -1.0856
 6217TIP3    H240143   2.340   0.465  16.374 -0.7730 -0.5968  1.7115
 6218TIP3   OH240144   4.053   1.142  14.283 -0.1665  0.3092  0.0068
 6218TIP3    H140145   4.069   1.228  14.242 -2.2766  1.4322  1.3366
 6218TIP3    H240146   4.137   1.118  14.322  0.0380  2.7826  1.3053
 6219TIP3   OH240147   1.263   6.168   1.737  0.2978 -0.7068  0.4468
 6219TIP3    H140148   1.198   6.121   1.789  1.0277 -0.9881  1.1185
 6219TIP3    H240149   1.234   6.259   1.739 -1.1504 -1.0809 -0.8971
 6220TIP3   OH240150   5.313   6.466   0.214  0.0985 -0.1476 -0.7376
 6220TIP3    H140151   5.349   6.493   0.130  0.0131 -0.3424 -0.8377
 6220TIP3    H240152   5.219   6.477   0.205  0.1315  0.4002 -0.4622
 6221TIP3   OH240153   3.996   3.729   3.434 -0.1298 -0.6197 -0.0937
 6221TIP3    H140154   3.953   3.775   3.507  0.5558 -0.4477  0.2071
 6221TIP3    H240155   3.951   3.761   3.356  0.2065  0.4209  0.1274
 6222TIP3   OH240156   1.311   5.130   0.924 -0.0744 -0.3104  0.0712
 6222TIP3    H140157   1.299   5.053   0.978  0.1349  0.4697  1.2732
 6222TIP3    H240158   1.405   5.134   0.907 -0.0837 -0.3138  0.0181
 6223TIP3   OH240159   1.370   6.182  14.052 -0.1016 -0.3242  0.4356
 6223TIP3    H140160   1.308   6.168  13.981 -0.0888 -0.8870  0.5293
 6223TIP3    H240161   1.348   6.269  14.087 -1.6923 -1.0329  1.3155
 6224TIP3   OH240162   4.265   1.274  15.416 -0.1610  0.5833  0.6083
 6224TIP3    H140163   4.205   1.270  15.342  1.0613 -1.1260 -0.3452
 6224TIP3    H240164   4.209   1.262  15.493 -1.1832  0.2450 -0.1653
 6225TIP3   OH240165   2.052   1.334  14.515 -0.4519 -0.5949  0.9589
 6225TIP3    H140166   2.116   1.405  14.506 -1.4437  0.3111  0.7519
 6225TIP3    H240167   1.985   1.354  14.449 -1.9161 -0.3992  2.4240
 6226TIP3   OH240168   3.113   2.613   0.551 -0.1572  0.7260  0.6613
 6226TIP3    H140169   3.054   2.614   0.475 -1.2228  3.0368  1.4299
 6226TIP3    H240170   3.150   2.701   0.554  0.5753  0.3989  2.2863
 6227TIP3   OH240171   4.655   6.517   2.092  0.3901 -0.2906  0.0020
 6227TIP3    H140172   4.614   6.580   2.151  1.3548  0.1359  0.2241
 6227TIP3    H240173   4.640   6.552   2.005  0.9978  0.3001  0.1289
 6228TIP3   OH240174   4.771   0.846  13.294  0.0218 -0.1043  0.6968
 6228TIP3    H140175   4.864   0.837  13.315 -0.0680 -1.0772  0.6941
 6228TIP3    H240176   4.745   0.761  13.259 -1.0330 -0.0716  1.3483
 6229TIP3   OH240177   6.519   2.330   2.792  0.2937  0.7834 -0.0409
 6229TIP3    H140178   6.447   2.391   2.780  0.7860  1.4423  0.2830
 6229TIP3    H240179   6.597   2.381   2.770  0.6112 -0.1291 -1.0927
 6230TIP3   OH240180   6.149   1.025   4.567  0.0649 -0.5707 -0.4387
 6230TIP3    H140181   6.086   1.055   4.632  1.0549 -0.8380  0.6906
 6230TIP3    H240182   6.188   0.947   4.606 -0.0135 -1.3113 -1.8050
 6231TIP3   OH240183   2.255   2.023   3.719 -0.6594  0.2402  0.3697
 6231TIP3    H140184   2.191   2.066   3.775 -0.1510 -0.1596  1.2852
 6231TIP3    H240185   2.301   2.095   3.675 -1.1922  0.5490  0.3101
 6232TIP3   OH240186   1.791   0.733   0.500 -0.3365 -0.3060  0.0489
 6232TIP3    H140187   1.781   0.722   0.406  1.1939 -0.5195 -0.1162
 6232TIP3    H240188   1.717   0.788   0.526 -0.8357 -0.3278 -1.2506
 6233TIP3   OH240189   4.038   5.722   2.209  0.4067  0.2221 -0.3347
 6233TIP3    H140190   4.042   5.676   2.125  0.2361 -2.8128  1.1816
 6233TIP3    H240191   3.961   5.778   2.202  0.3076 -0.0849 -2.1309
 6234TIP3   OH240192   6.357   3.361   1.341 -0.5497 -0.0483 -0.0368
 6234TIP3    H140193   6.266   3.336   1.356 -0.4871 -0.0121  0.4267
 6234TIP3    H240194   6.398   3.354   1.428 -0.0600 -0.2825 -0.2833
 6235TIP3   OH240195   2.769   3.486   4.562  0.2807  0.0800  0.0775
 6235TIP3    H140196   2.797   3.578   4.561 -0.0287  0.2573  2.3358
 6235TIP3    H240197   2.687   3.485   4.513  0.3923  0.9712 -0.1452
 6236TIP3   OH240198   1.834   4.926   1.909 -0.3920  0.3898 -0.0395
 6236TIP3    H140199   1.828   4.831   1.919  0.6366  0.2927 -0.1906
 6236TIP3    H240200   1.776   4.946   1.835 -1.2245 -0.0113  0.4993
 6237TIP3   OH240201   0.269   2.515  11.720 -0.6033  0.1380  0.0178
 6237TIP3    H140202   0.212   2.559  11.783  0.8049  0.3347  1.2146
 6237TIP3    H240203   0.245   2.423  11.726 -1.4725  0.3366 -0.2493
 6238TIP3   OH240204   0.243   0.411   5.578  0.5196 -0.0985  0.2857
 6238TIP3    H140205   0.208   0.414   5.667 -1.5158  0.7254 -0.4860
 6238TIP3    H240206   0.169   0.385   5.524  0.9832  1.9800 -1.4862
 6239TIP3   OH240207   1.983   5.256  13.117 -0.0274  0.2658  0.2108
 6239TIP3    H140208   1.928   5.179  13.102  0.6296 -0.5847  1.8613
 6239TIP3    H240209   2.063   5.240  13.067  0.1488 -0.1904  0.6324
 6240TIP3   OH240210   2.429   0.465  16.722  0.8351  0.0864  0.0263
 6240TIP3    H140211   2.461   0.554  16.708  1.2042  0.1257  1.0218
 6240TIP3    H240212   2.334   0.476  16.733  0.9180  0.4021  0.4579
 6241TIP3   OH240213   0.769   2.542   5.040  0.2139 -0.0451  0.0316
 6241TIP3    H140214   0.721   2.459   5.030  0.7533 -0.4821  0.9196
 6241TIP3    H240215   0.766   2.582   4.953  0.1448 -1.1074 -0.4713
 6242TIP3   OH240216   4.592   4.020   2.904 -0.1184  0.0764  0.0272
 6242TIP3    H140217   4.560   4.097   2.855  0.7547 -0.3759 -1.3240
 6242TIP3    H240218   4.649   4.057   2.971  0.5326  0.6151 -0.8031
 6243TIP3   OH240219   3.239   5.221   1.286 -0.0061  0.0084  0.0805
 6243TIP3    H140220   3.235   5.278   1.209  1.5979  1.3902  0.9526
 6243TIP3    H240221   3.332   5.199   1.293 -0.4706 -2.1573  0.2189
 6244TIP3   OH240222   1.021   1.524   2.159 -0.2895 -0.2415  0.0284
 6244TIP3    H140223   0.974   1.510   2.077  1.3058  0.1509 -0.9889
 6244TIP3    H240224   1.080   1.448   2.167 -0.3574 -0.2299  0.7662
 6245TIP3   OH240225   4.647   6.354  12.371 -0.2743  0.1922 -0.1261
 6245TIP3    H140226   4.726   6.333  12.323  0.3218  0.7811  0.5756
 6245TIP3    H240227   4.655   6.446  12.393 -1.6637  0.5404 -0.9577
 6246TIP3   OH240228   0.070   1.951   2.675  0.2184  0.1185 -0.1299
 6246TIP3    H140229   0.047   2.044   2.681 -0.6150 -0.1299  0.9659
 6246TIP3    H240230   0.011   1.909   2.737  0.3245 -1.1957 -0.8956
 6247TIP3   OH240231   5.981   4.500  16.560  0.7408 -0.0347  0.3002
 6247TIP3    H140232   6.013   4.511  16.650 -1.6747  0.3216  1.1939
 6247TIP3    H240233   5.976   4.406  16.547 -0.2291 -0.1117  1.0973
 6248TIP3   OH240234   4.779   6.100   1.803  0.1131 -0.7143 -1.1793
 6248TIP3    H140235   4.805   6.017   1.764 -1.5076 -0.9473 -1.8645
 6248TIP3    H240236   4.683   6.099   1.800  0.0532  1.4823 -1.8954
 6249TIP3   OH240237   0.277   4.625   0.846  0.2378 -0.4070 -0.5946
 6249TIP3    H140238   0.350   4.568   0.822  1.1972  0.2288  0.7028
 6249TIP3    H240239   0.211   4.566   0.882  1.2139 -0.7379  0.7151
 6250TIP3   OH240240   2.488   3.048   2.251 -0.2959  0.2705  0.0290
 6250TIP3    H140241   2.480   3.140   2.274 -0.9200 -0.4533  3.1751
 6250TIP3    H240242   2.404   3.026   2.210  0.0874  1.1829 -1.3093
 6251TIP3   OH240243   0.998   4.519   1.207  0.0652  0.2020  0.0907
 6251TIP3    H140244   0.960   4.432   1.200 -0.9547  0.5607  0.9850
 6251TIP3    H240245   0.966   4.566   1.130  1.0160 -0.3350 -0.6585
 6252TIP3   OH240246   6.743   3.492  16.514  0.1308  0.2533 -0.0457
 6252TIP3    H140247   6.660   3.494  16.561  0.3641  0.8815  0.3494
 6252TIP3    H240248   6.751   3.402  16.483 -0.1025 -0.1353  0.9891
 6253TIP3   OH240249   1.029   3.151   3.935 -0.2631  0.0420  0.4374
 6253TIP3    H140250   0.968   3.083   3.964 -1.1863 -0.7701 -2.8798
 6253TIP3    H240251   0.998   3.173   3.847  2.9215  1.2878 -0.4844
 6254TIP3   OH240252   1.673   6.570   4.629 -0.1454  0.0362 -0.4190
 6254TIP3    H140253   1.680   6.570   4.534 -1.3590  2.7849 -0.5971
 6254TIP3    H240254   1.579   6.560   4.646 -0.1043  0.9453  0.4190
 6255TIP3   OH240255   1.901   5.972   5.938  0.4852  0.0360 -0.4437
 6255TIP3    H140256   1.860   5.967   5.852 -1.6476 -2.1298  0.5592
 6255TIP3    H240257   1.990   6.001   5.921  0.6852 -1.9029 -3.5913
 6256TIP3   OH240258   5.861   6.043  17.116 -0.1510 -0.1644  0.1861
 6256TIP3    H140259   5.846   6.134  17.091  0.6872  0.3738  1.5157
 6256TIP3    H240260   5.858   6.044  17.211  2.1584 -1.0896  0.3169
 6257TIP3   OH240261   3.296   0.291  10.392 -0.2456  0.1334 -0.0911
 6257TIP3    H140262   3.236   0.355  10.430  1.6011  2.3699 -0.7513
 6257TIP3    H240263   3.371   0.290  10.452  0.3588 -0.3971 -0.8394
 6258TIP3   OH240264   6.727   0.129   3.686  0.6595  0.1260 -0.0391
 6258TIP3    H140265   6.737   0.044   3.642  0.8106 -0.1803  0.5761
 6258TIP3    H240266   6.779   0.121   3.765 -0.8068  0.1156  0.9630
 6259TIP3   OH240267   2.961   3.798   0.011 -0.1656  0.0218 -0.0702
 6259TIP3    H140268   3.052   3.770   0.022  0.0788  0.9938  0.5834
 6259TIP3    H240269   2.950   3.809  -0.083  1.2712  2.5211 -0.0482
 6260TIP3   OH240270   4.141   2.291   2.820 -0.3413 -0.3010 -0.2258
 6260TIP3    H140271   4.109   2.213   2.775  1.1901 -0.5492 -0.9556
 6260TIP3    H240272   4.236   2.283   2.818 -0.1493  1.4141  0.0010
 6261TIP3   OH240273   0.305   5.273  16.224 -0.1026 -0.5115 -0.1749
 6261TIP3    H140274   0.228   5.284  16.281 -0.1026 -1.2033 -0.0334
 6261TIP3    H240275   0.377   5.255  16.285  0.2881  0.6442 -0.2677
 6262TIP3   OH240276   4.736   2.616  16.882  0.1981  0.4125  0.1490
 6262TIP3    H140277   4.826   2.648  16.895  0.3746  0.0200 -0.0793
 6262TIP3    H240278   4.735   2.584  16.792  0.5447 -1.8653  0.8899
 6263TIP3   OH240279   1.952   6.002  16.060 -1.1196 -0.3914 -0.2472
 6263TIP3    H140280   1.856   6.006  16.067 -1.1190 -1.3802  0.5026
 6263TIP3    H240281   1.982   5.992  16.150 -0.3144 -0.2126 -0.4934
 6264TIP3   OH240282   1.385   0.851  10.403  0.4567  0.1783 -0.6415
 6264TIP3    H140283   1.437   0.921  10.363  0.3446 -0.6849 -2.4383
 6264TIP3    H240284   1.294   0.880  10.393  0.4804  0.5640  0.2269
 6265TIP3   OH240285   4.322   5.759   3.165 -0.2084  0.0145  0.1382
 6265TIP3    H140286   4.400   5.800   3.129  0.3319  0.3297  1.5929
 6265TIP3    H240287   4.249   5.809   3.128  0.3558  0.8807  0.1711
 6266TIP3   OH240288   0.115   5.214  12.593  0.2234  0.3571 -0.4255
 6266TIP3    H140289   0.185   5.150  12.585 -0.0042 -0.0738  0.7866
 6266TIP3    H240290   0.078   5.221  12.505  0.5887 -0.7963 -0.6854
 6267TIP3   OH240291   2.033   1.099  14.141 -0.0523 -0.3501 -0.3009
 6267TIP3    H140292   2.099   1.145  14.194  0.8292 -0.0917 -1.5591
 6267TIP3    H240293   2.019   1.016  14.186  0.8780 -0.2545  0.1903
 6268TIP3   OH240294   5.160   3.211  13.311  0.3069  0.2793  0.0624
 6268TIP3    H140295   5.116   3.261  13.379  1.2262  0.7809  0.3076
 6268TIP3    H240296   5.111   3.129  13.306 -0.3518  0.6264  0.6527
 6269TIP3   OH240297   4.638   3.277  14.078  0.4186  0.0547 -0.0932
 6269TIP3    H140298   4.581   3.284  14.001  2.0939 -1.6708 -1.5797
 6269TIP3    H240299   4.727   3.282  14.043  1.2624  1.4348  2.0281
 6270TIP3   OH240300   3.661   4.442   4.036 -0.0485  0.2090  0.5789
 6270TIP3    H140301   3.605   4.461   3.961 -0.7506  1.9765  1.4799
 6270TIP3    H240302   3.749   4.461   4.005 -0.4237  1.9134  0.4257
 6271TIP3   OH240303   0.019   5.650  15.029 -0.2894  0.3637 -0.2494
 6271TIP3    H140304   0.065   5.575  15.066 -0.9014  0.0795 -0.0538
 6271TIP3    H240305   0.086   5.717  15.020  0.4423 -0.4710 -1.1858
 6272TIP3   OH240306   4.941   6.793  15.922  0.1807  0.0292  0.0468
 6272TIP3    H140307   4.869   6.744  15.881  0.1913  0.9278 -1.1039
 6272TIP3    H240308   5.017   6.737  15.910  0.3219  0.5679 -1.8621
 6273TIP3   OH240309   5.171   4.878   1.122 -0.1370 -0.3707  0.0374
 6273TIP3    H140310   5.172   4.889   1.217 -1.3054 -1.7266  0.2378
 6273TIP3    H240311   5.263   4.865   1.098  0.0920 -0.6944  1.0637
 6274TIP3   OH240312   2.267   4.567  17.083 -0.6376  0.3961  0.1583
 6274TIP3    H140313   2.217   4.582  17.003 -1.1038  1.5343  0.6391
 6274TIP3    H240314   2.246   4.477  17.109 -2.0137  0.6803  0.0623
 6275TIP3   OH240315   0.733   4.592   4.542  0.1445  1.0807 -0.6078
 6275TIP3    H140316   0.733   4.558   4.632  1.2957 -0.2769 -1.0733
 6275TIP3    H240317   0.788   4.670   4.546  0.5524  0.7813 -0.1913
 6276TIP3   OH240318   4.478   5.095   5.623  0.3284  0.0058 -0.4593
 6276TIP3    H140319   4.409   5.029   5.620  1.6387 -1.4123 -0.7284
 6276TIP3    H240320   4.493   5.109   5.716  1.2537 -1.4553 -0.3511
 6277TIP3   OH240321   6.768   6.005   1.337  0.0086 -0.3914 -0.0224
 6277TIP3    H140322   6.784   6.091   1.376  0.0656 -0.9493  1.2294
 6277TIP3    H240323   6.783   5.943   1.408 -1.4398 -1.3477 -0.4915
 6278TIP3   OH240324   4.586   5.918  15.228 -0.3574  0.4780 -0.2439
 6278TIP3    H140325   4.494   5.892  15.228 -0.9471  2.2969  1.6455
 6278TIP3    H240326   4.593   5.980  15.156  0.4740 -2.6643 -3.1130
 6279TIP3   OH240327   3.946   5.925  12.078 -0.4864 -0.5613 -0.1120
 6279TIP3    H140328   3.919   5.862  12.145  0.0316 -0.1606  0.4811
 6279TIP3    H240329   3.868   5.980  12.065 -0.5453 -0.5541  0.2619
 6280TIP3   OH240330   4.085   6.292  11.410  0.4492 -0.3787 -0.8235
 6280TIP3    H140331   4.105   6.344  11.332 -2.1960 -1.9664 -2.7164
 6280TIP3    H240332   4.081   6.202  11.378 -0.8706 -1.0746  1.1356
 6281TIP3   OH240333   0.854   1.315   0.927  0.0116  0.7579  0.2089
 6281TIP3    H140334   0.905   1.257   0.869 -1.0862  0.2379 -0.2787
 6281TIP3    H240335   0.917   1.378   0.960  1.1953 -0.5486  0.5147
 6282TIP3   OH240336   6.300   5.306   1.670 -0.1679 -0.0854  0.0317
 6282TIP3    H140337   6.279   5.400   1.676 -1.4770 -0.3624 -0.0026
 6282TIP3    H240338   6.219   5.265   1.642  0.8240 -1.0508 -1.5901
 6283TIP3   OH240339   6.104   4.217   1.387 -0.0614 -0.1406 -0.4934
 6283TIP3    H140340   6.074   4.293   1.437  0.3285 -0.0887 -0.3293
 6283TIP3    H240341   6.061   4.226   1.302 -1.4108 -0.6928  0.1108
 6284TIP3   OH240342   1.379   4.390   1.507  0.4859 -0.6717 -0.1992
 6284TIP3    H140343   1.330   4.309   1.499  0.5729 -0.7207 -0.2384
 6284TIP3    H240344   1.404   4.413   1.417 -1.9917  0.9348 -0.5696
 6285TIP3   OH240345   4.297   1.519   5.593  0.2729  0.4239 -0.6305
 6285TIP3    H140346   4.343   1.482   5.669  1.0824 -0.4729 -1.5357
 6285TIP3    H240347   4.346   1.599   5.572  1.1521 -0.2692 -1.2879
 6286TIP3   OH240348   0.727   3.713  14.831 -0.3130 -0.2924  0.1266
 6286TIP3    H140349   0.696   3.772  14.899  1.4606 -1.1694  1.7843
 6286TIP3    H240350   0.740   3.770  14.755 -0.9025  0.9967  0.9490
 6287TIP3   OH240351   4.393   0.851   0.150  0.4093  0.1325  0.2578
 6287TIP3    H140352   4.344   0.855   0.069 -0.1795 -0.5625  0.5665
 6287TIP3    H240353   4.422   0.760   0.156  0.4653  0.1812  0.8080
 6288TIP3   OH240354   5.275   3.499   5.192 -0.0969  0.0802  0.2785
 6288TIP3    H140355   5.370   3.503   5.179 -0.1599  1.3379  0.0581
 6288TIP3    H240356   5.240   3.565   5.132 -1.0616  0.0144  0.7510
 6289TIP3   OH240357   0.074   2.396   6.529  0.2688  0.5200  0.3969
 6289TIP3    H140358  -0.016   2.382   6.559 -0.0812 -1.2940 -1.2850
 6289TIP3    H240359   0.068   2.391   6.433  2.2219 -0.1598  0.2650
 6290TIP3   OH240360   0.380   1.714  15.674  0.0651 -0.0160 -0.0562
 6290TIP3    H140361   0.431   1.736  15.596  0.5046 -3.4712 -0.8989
 6290TIP3    H240362   0.393   1.620  15.686 -3.9035 -0.5896  1.3057
 6291TIP3   OH240363   2.709   2.585  11.352 -0.1695 -0.0410  0.5629
 6291TIP3    H140364   2.756   2.661  11.320 -1.6698  1.4972  1.8318
 6291TIP3    H240365   2.617   2.605  11.336 -0.5448 -2.4119 -0.7115
 6292TIP3   OH240366   6.567   5.476  13.189  0.3729 -0.1768  0.3120
 6292TIP3    H140367   6.573   5.526  13.108  1.4089 -1.0577 -0.1778
 6292TIP3    H240368   6.473   5.467  13.205  0.1651  1.7114  0.2991
 6293TIP3   OH240369   1.113   3.474   1.613 -0.3426 -0.1746 -0.2315
 6293TIP3    H140370   1.194   3.438   1.648 -0.3365 -1.9716 -1.9087
 6293TIP3    H240371   1.044   3.438   1.669 -0.0756  0.5122  0.5553
 6294TIP3   OH240372   0.108   3.345   2.124 -0.4438  0.2440  0.2433
 6294TIP3    H140373   0.071   3.425   2.162  0.6238 -0.0703  2.0772
 6294TIP3    H240374   0.197   3.369   2.101  0.3487 -0.7202  2.0952
 6295TIP3   OH240375   0.394   4.369   4.760 -0.2486 -0.0690  0.1462
 6295TIP3    H140376   0.397   4.401   4.670  2.1857  0.3200  0.2956
 6295TIP3    H240377   0.380   4.275   4.752 -0.1445 -0.0256 -0.6250
 6296TIP3   OH240378   5.213   1.546  16.535 -0.2418  0.2545 -0.0466
 6296TIP3    H140379   5.209   1.630  16.488 -1.8000  0.4228  0.3152
 6296TIP3    H240380   5.126   1.509  16.523 -0.4157 -0.0838  1.9870
 6297TIP3   OH240381   6.215   3.976   2.952 -0.5590  0.2066 -0.0747
 6297TIP3    H140382   6.139   3.947   2.902  1.5905 -0.3712 -3.2963
 6297TIP3    H240383   6.191   4.063   2.984 -2.3153  0.3401 -1.5912
 6298TIP3   OH240384   4.601   3.943  11.831  0.1128  0.1181 -0.3627
 6298TIP3    H140385   4.676   3.916  11.883  0.4791 -0.7997 -1.3451
 6298TIP3    H240386   4.613   3.900  11.746 -0.5145  1.5147 -1.1919
 6299TIP3   OH240387   3.159   4.545   4.034 -0.3903  0.4035 -0.1949
 6299TIP3    H140388   3.208   4.554   3.952 -0.2671  1.8616  0.0207
 6299TIP3    H240389   3.122   4.631   4.050 -0.9526 -0.0268  0.9636
 6300TIP3   OH240390   5.762   0.526   0.585  0.1621  0.5055  0.2301
 6300TIP3    H140391   5.668   0.512   0.579  0.1247  0.5909  0.5703
 6300TIP3    H240392   5.771   0.616   0.615  0.3425  0.3938  0.5182
 6301TIP3   OH240393   1.299   2.489  12.313  0.0877 -1.0354 -0.2180
 6301TIP3    H140394   1.305   2.403  12.270  1.8222 -0.5667 -0.9789
 6301TIP3    H240395   1.390   2.514  12.329 -0.4358  0.0894  1.1957
 6302TIP3   OH240396   3.617   1.177  13.237  0.3010 -0.3407  0.1664
 6302TIP3    H140397   3.672   1.129  13.299  0.7867  0.4682  0.3838
 6302TIP3    H240398   3.679   1.224  13.181 -0.1430 -0.6423 -0.6068
 6303TIP3   OH240399   0.532   6.766   0.088  0.0419  0.1192 -0.3577
 6303TIP3    H140400   0.593   6.746   0.018  1.1695 -1.5928  1.0394
 6303TIP3    H240401   0.490   6.848   0.060  0.9915 -0.0902 -2.6231
 6304TIP3   OH240402   4.643   0.641  13.154 -0.2643 -0.0857  0.1189
 6304TIP3    H140403   4.622   0.565  13.100 -0.6904 -1.3025  1.8704
 6304TIP3    H240404   4.618   0.614  13.243 -0.7272  2.2448  0.7564
 6305TIP3   OH240405   3.395   4.423   0.796  0.0881 -1.1857 -0.0336
 6305TIP3    H140406   3.362   4.507   0.764  1.6464  0.0579  1.3999
 6305TIP3    H240407   3.327   4.392   0.856 -0.1657 -0.5643  0.0060
 6306TIP3   OH240408   5.592   1.587  11.391  0.7889  0.4008 -0.3032
 6306TIP3    H140409   5.499   1.565  11.388  1.0117 -0.5007 -1.0253
 6306TIP3    H240410   5.594   1.682  11.392 -0.1114  0.4576 -1.6568
 6307TIP3   OH240411   5.123   0.595   4.478  0.4252 -0.1210 -0.0626
 6307TIP3    H140412   5.089   0.614   4.390  1.9775 -0.1009 -0.6956
 6307TIP3    H240413   5.082   0.512   4.502  0.0198 -0.1548 -0.8305
 6308TIP3   OH240414   0.218   0.792   4.579 -0.3684  0.2761 -0.2112
 6308TIP3    H140415   0.189   0.867   4.631  0.5340  0.2933  0.2691
 6308TIP3    H240416   0.313   0.791   4.588 -0.1694  0.3328 -1.9211
 6309TIP3   OH240417   2.823   1.979   2.955 -0.6407 -0.1722 -0.0084
 6309TIP3    H140418   2.854   1.893   2.982  0.1732  0.2613  0.4912
 6309TIP3    H240419   2.776   1.964   2.873 -0.9543 -1.1559  0.3514
 6310TIP3   OH240420   5.510   1.499  14.044  0.2366  0.1733 -0.3584
 6310TIP3    H140421   5.466   1.555  14.108  1.1733 -0.5642  0.9933
 6310TIP3    H240422   5.444   1.435  14.018 -0.4756  1.1418 -0.9915
 6311TIP3   OH240423   1.931   1.278  13.517  0.2542 -0.2194  0.1128
 6311TIP3    H140424   1.836   1.285  13.514  0.3475  2.4289  0.9305
 6311TIP3    H240425   1.954   1.229  13.438 -1.6348  1.9472 -1.9461
 6312TIP3   OH240426   1.135   5.949   2.533  0.2361  0.2764 -0.7101
 6312TIP3    H140427   1.041   5.942   2.548  0.2218  0.5836 -0.6617
 6312TIP3    H240428   1.174   5.905   2.608  0.1346  0.2600 -0.6664
 6313TIP3   OH240429   5.166   1.363  15.821  0.0898  0.3278 -0.1559
 6313TIP3    H140430   5.111   1.379  15.744 -1.1389 -1.0509  0.3815
 6313TIP3    H240431   5.124   1.289  15.866  1.6579  0.0821  1.0084
 6314TIP3   OH240432   6.663   2.417  15.534  0.9622  0.2304 -0.1096
 6314TIP3    H140433   6.756   2.417  15.557  0.5720 -0.5189  1.7093
 6314TIP3    H240434   6.621   2.369  15.606 -0.8307  0.5381 -0.8933
 6315TIP3   OH240435   3.573   1.817  13.288 -0.2106 -0.1601 -0.1187
 6315TIP3    H140436   3.558   1.874  13.213  1.4049 -1.3651 -1.4368
 6315TIP3    H240437   3.578   1.729  13.251 -1.2278 -1.0355  1.6727
 6316TIP3   OH240438   2.104   3.537  13.601 -0.0811 -0.4929 -0.2758
 6316TIP3    H140439   2.074   3.452  13.633 -0.4892 -1.0993 -2.1663
 6316TIP3    H240440   2.194   3.545  13.633 -0.0504 -1.6189 -0.0466
 6317TIP3   OH240441   3.294   0.818   5.094 -0.0143  0.2204 -0.3457
 6317TIP3    H140442   3.327   0.730   5.108  3.0350  1.2932  0.1206
 6317TIP3    H240443   3.311   0.835   5.001 -1.2132  0.1053 -0.5946
 6318TIP3   OH240444   0.476   1.914   5.726  0.4646  0.6212  0.1519
 6318TIP3    H140445   0.403   1.858   5.751  0.9025  0.1830  0.4789
 6318TIP3    H240446   0.489   1.971   5.803  0.8932  0.2446  0.3609
 6319TIP3   OH240447   1.490   4.671  11.399  0.0334 -0.4489 -0.1221
 6319TIP3    H140448   1.492   4.659  11.494  2.2865 -0.6461 -0.1367
 6319TIP3    H240449   1.402   4.643  11.373 -1.7433  2.3173  2.1903
 6320TIP3   OH240450   6.425   0.203   5.347 -0.7847 -0.0476 -0.4412
 6320TIP3    H140451   6.464   0.198   5.434  0.4693 -0.0161 -0.9793
 6320TIP3    H240452   6.467   0.133   5.297 -1.0478  0.3123 -1.1931
 6321TIP3   OH240453   6.514   2.088  16.635 -0.1182  0.0909  0.0376
 6321TIP3    H140454   6.564   2.008  16.622  0.3265  0.4903 -0.8367
 6321TIP3    H240455   6.571   2.144  16.687 -1.2139 -0.8634  2.3916
 6322TIP3   OH240456   6.146   4.934   1.633 -0.4031 -0.3029  0.2772
 6322TIP3    H140457   6.122   5.007   1.576  0.7925 -0.2043 -0.1427
 6322TIP3    H240458   6.100   4.950   1.715 -0.0785  0.9793  0.2269
 6323TIP3   OH240459   5.903   1.914  16.939 -0.0492 -0.0600 -0.1456
 6323TIP3    H140460   5.944   1.977  16.999 -0.5690 -0.7961  1.0028
 6323TIP3    H240461   5.977   1.876  16.891  0.1913  2.6807 -2.2222
 6324TIP3   OH240462   1.915   0.883  13.322 -0.0305 -0.0103 -0.2355
 6324TIP3    H140463   1.894   0.820  13.252  0.6808  0.3908 -0.8277
 6324TIP3    H240464   1.971   0.834  13.382 -1.7929 -0.7999  0.8589
 6325TIP3   OH240465   2.182   1.573   1.398  0.0164 -0.0630 -0.5007
 6325TIP3    H140466   2.259   1.537   1.442 -0.3519  0.7543  0.8525
 6325TIP3    H240467   2.160   1.508   1.331  0.4608 -1.4446  0.6542
 6326TIP3   OH240468   4.804   5.761  12.912  0.1933  0.3413  0.4895
 6326TIP3    H140469   4.741   5.709  12.863  0.8426  0.3220 -0.3559
 6326TIP3    H240470   4.885   5.708  12.910  1.6453  2.4017 -2.5859
 6327TIP3   OH240471   2.732   0.248   6.143  0.2014  0.3515 -0.2883
 6327TIP3    H140472   2.760   0.303   6.216  1.8834 -1.2962  0.3769
 6327TIP3    H240473   2.698   0.169   6.184 -0.8231  0.2605 -1.2617
 6328TIP3   OH240474   6.253   6.074   6.435  0.3520 -0.0754  0.5904
 6328TIP3    H140475   6.252   6.013   6.361 -1.0231  1.1827 -0.5033
 6328TIP3    H240476   6.205   6.029   6.504  0.2405 -0.6279  0.1594
 6329TIP3   OH240477   1.663   3.868  17.106 -0.0044 -0.6635 -0.5237
 6329TIP3    H140478   1.575   3.899  17.128 -0.2812 -0.9486 -1.2062
 6329TIP3    H240479   1.683   3.911  17.023  1.7884  1.9133  1.0852
 6330TIP3   OH240480   5.708   6.687  13.488  0.9023  0.0003 -0.0989
 6330TIP3    H140481   5.790   6.717  13.450  0.3731  0.5493 -0.8441
 6330TIP3    H240482   5.734   6.638  13.566  1.9769 -0.4994 -0.7483
 6331TIP3   OH240483   5.021   5.170   5.071  0.5373  0.4563  0.5731
 6331TIP3    H140484   5.074   5.113   5.127  0.3151 -0.4658 -0.1320
 6331TIP3    H240485   5.057   5.158   4.984  1.0190  2.0464  0.5232
 6332TIP3   OH240486   5.791   2.886   3.499 -0.1934 -0.1155  0.9801
 6332TIP3    H140487   5.716   2.914   3.552  0.1418 -0.2427  1.5257
 6332TIP3    H240488   5.848   2.963   3.495  0.3793 -0.4728  1.8694
 6333TIP3   OH240489   3.993   4.333   2.350 -0.1253 -0.0453 -0.3184
 6333TIP3    H140490   4.020   4.241   2.345 -1.5968 -0.6179  1.0244
 6333TIP3    H240491   4.044   4.377   2.283  0.6092 -1.8544 -1.0227
 6334TIP3   OH240492   2.170   6.281  14.598  0.2935  0.1801  0.5851
 6334TIP3    H140493   2.104   6.232  14.548 -0.3857  1.3739  0.2949
 6334TIP3    H240494   2.137   6.370  14.600  1.1992  0.4999  1.6807
 6335TIP3   OH240495   4.268   4.327   1.239 -0.3407  0.3865  0.1493
 6335TIP3    H140496   4.273   4.286   1.326  1.4435 -0.8582 -0.4827
 6335TIP3    H240497   4.330   4.277   1.186  0.1682  2.4640 -1.3086
 6336TIP3   OH240498   2.321   0.807   2.359  0.3722  0.1745 -0.0404
 6336TIP3    H140499   2.236   0.775   2.390  0.1624  0.5743 -0.2019
 6336TIP3    H240500   2.374   0.813   2.439  0.1535  0.2143  0.1034
 6337TIP3   OH240501   1.347   6.708   5.174 -0.5767  0.8329 -0.6065
 6337TIP3    H140502   1.434   6.672   5.194 -1.0928  0.6422  1.6338
 6337TIP3    H240503   1.364   6.796   5.141  0.4632  1.2433  0.9194
 6338TIP3   OH240504   0.714   3.916   0.751  0.1154 -0.2117 -0.0277
 6338TIP3    H140505   0.705   3.831   0.795  2.4150 -0.0405  0.9169
 6338TIP3    H240506   0.624   3.945   0.736 -0.7597 -1.6022  2.0342
 6339TIP3   OH240507   4.678   0.634  16.031 -0.4748  0.5777 -0.6339
 6339TIP3    H140508   4.607   0.639  16.095  0.5207  0.4298  0.5247
 6339TIP3    H240509   4.651   0.692  15.960 -2.2308 -0.3040 -0.7216
 6340TIP3   OH240510   0.133   6.276  11.433 -0.1544 -0.3116  0.3732
 6340TIP3    H140511   0.085   6.200  11.464 -0.0435 -0.6554 -0.2820
 6340TIP3    H240512   0.069   6.324  11.379  0.2903 -0.9087 -0.7172
 6341TIP3   OH240513   0.273   3.541  11.116 -0.0236  0.4597  0.0279
 6341TIP3    H140514   0.227   3.598  11.055 -1.5195 -0.1297  0.5607
 6341TIP3    H240515   0.204   3.508  11.174  0.7285 -2.0808 -0.4006
 6342TIP3   OH240516   5.750   3.011  14.178  0.1630  0.1499  0.1595
 6342TIP3    H140517   5.801   2.948  14.229 -3.1654 -1.7801  1.4459
 6342TIP3    H240518   5.756   3.092  14.228  1.5283 -0.1385  0.5158
 6343TIP3   OH240519   6.717   1.753  13.700  0.0476 -0.3208  0.0311
 6343TIP3    H140520   6.676   1.667  13.698 -0.1488 -0.3256  2.0376
 6343TIP3    H240521   6.811   1.736  13.696 -0.0217 -0.4901 -1.3913
 6344TIP3   OH240522   6.386   4.803   2.986 -0.5067  0.3219 -0.1298
 6344TIP3    H140523   6.356   4.869   3.048  1.7024  2.6551 -1.3561
 6344TIP3    H240524   6.468   4.770   3.024 -1.1769 -1.2188  0.0763
 6345TIP3   OH240525   6.069   5.289  15.045 -0.1205  0.0342  0.5717
 6345TIP3    H140526   6.122   5.304  14.966 -1.3998  2.9593  0.1418
 6345TIP3    H240527   6.112   5.216  15.089  2.7836  0.6289 -1.0161
 6346TIP3   OH240528   5.455   4.895   2.603  0.3228  0.3164 -0.0151
 6346TIP3    H140529   5.519   4.843   2.556  0.3985  0.8750 -0.5370
 6346TIP3    H240530   5.370   4.867   2.568  0.3397  0.2554 -0.0064
 6347TIP3   OH240531   6.856   6.069  16.153  0.0158  0.5907 -0.0784
 6347TIP3    H140532   6.820   6.029  16.232 -0.8122 -0.6303 -1.0241
 6347TIP3    H240533   6.856   6.163  16.171  0.6002  0.2811  1.6487
 6348TIP3   OH240534   0.326   4.509   1.139  0.3098  0.3192  0.5313
 6348TIP3    H140535   0.305   4.453   1.214  0.7112  2.4072  2.2880
 6348TIP3    H240536   0.261   4.486   1.073 -1.0887 -0.4636  2.1061
 6349TIP3   OH240537   2.530   1.659   4.246  0.4182 -0.3945  0.2084
 6349TIP3    H140538   2.509   1.663   4.152  2.4858  1.4091 -0.2740
 6349TIP3    H240539   2.543   1.566   4.263 -2.1099 -1.0023 -0.7234
 6350TIP3   OH240540   2.482   5.767   6.199 -0.4278  0.0752 -0.3158
 6350TIP3    H140541   2.387   5.764   6.214 -0.2894  0.6395  0.7985
 6350TIP3    H240542   2.520   5.744   6.284  0.4399  1.7385 -0.2279
 6351TIP3   OH240543   4.945   5.543  12.744  0.3337  0.3572 -0.3555
 6351TIP3    H140544   4.899   5.490  12.809  1.0168  0.1924  0.0027
 6351TIP3    H240545   4.918   5.505  12.660 -0.9615  0.9023 -0.2124
 6352TIP3   OH240546   6.026   4.008  13.381 -0.1793 -0.5759 -0.0549
 6352TIP3    H140547   5.944   4.059  13.381 -1.1195 -2.0046  1.1107
 6352TIP3    H240548   6.076   4.044  13.454  0.9798  1.3490 -1.7110
 6353TIP3   OH240549   1.561   1.112   2.481 -0.0647  0.4846  0.1297
 6353TIP3    H140550   1.599   1.057   2.550 -1.1286  1.3772  1.4779
 6353TIP3    H240551   1.630   1.175   2.460  0.2018  0.3303  0.5293
 6354TIP3   OH240552   5.409   1.381   1.395  0.6277 -0.3074 -0.2832
 6354TIP3    H140553   5.408   1.467   1.438  4.1197 -0.7701  1.0572
 6354TIP3    H240554   5.434   1.400   1.304 -0.0923  0.1774 -0.3892
 6355TIP3   OH240555   2.441   2.761  13.109  0.2333 -0.1110 -0.0725
 6355TIP3    H140556   2.371   2.761  13.043  0.7034 -1.2255 -0.5992
 6355TIP3    H240557   2.394   2.764  13.193 -0.3764  1.0591 -0.4263
 6356TIP3   OH240558   5.620   4.042   1.912  0.4826 -0.0418  0.4623
 6356TIP3    H140559   5.681   4.108   1.944  0.7031 -0.3884  0.7722
 6356TIP3    H240560   5.544   4.051   1.969  0.3329  0.2431  0.2174
 6357TIP3   OH240561   5.132   0.421  11.813  0.1952  0.6219  0.1734
 6357TIP3    H140562   5.131   0.517  11.805  0.2196  0.5108 -1.4823
 6357TIP3    H240563   5.137   0.405  11.907 -1.4627  2.2310  0.5898
 6358TIP3   OH240564   4.234   6.252  17.104  0.3265 -0.2092  0.1682
 6358TIP3    H140565   4.154   6.281  17.060 -1.8468 -1.4009  3.0185
 6358TIP3    H240566   4.287   6.331  17.112 -1.6307  1.1770  0.2314
 6359TIP3   OH240567   4.678   4.133   3.440  0.0676  0.7283 -0.0868
 6359TIP3    H140568   4.649   4.137   3.531 -0.7593 -0.5165 -0.2809
 6359TIP3    H240569   4.727   4.052   3.433  0.0465  0.7679 -0.7760
 6360TIP3   OH240570   4.918   1.653   1.826  0.1587 -0.1497 -0.2366
 6360TIP3    H140571   4.981   1.619   1.761 -0.8737  0.4363 -1.6049
 6360TIP3    H240572   4.881   1.731   1.784 -0.2768  0.4567  1.2404
 6361TIP3   OH240573   5.697   1.886   3.758  0.2013  0.4700  0.3948
 6361TIP3    H140574   5.611   1.869   3.797  0.7050 -0.3438  1.1612
 6361TIP3    H240575   5.725   1.969   3.797  0.3587  0.0499  1.1919
 6362TIP3   OH240576   5.550   4.742   5.210 -0.0619 -0.3394 -0.1632
 6362TIP3    H140577   5.578   4.651   5.208 -1.0340 -0.6487 -0.1423
 6362TIP3    H240578   5.562   4.773   5.120 -1.0444 -0.9065 -0.5018
 6363TIP3   OH240579   4.638   1.513  16.754  0.4877  0.0603 -0.2839
 6363TIP3    H140580   4.608   1.543  16.668  0.5613 -0.4413 -0.4881
 6363TIP3    H240581   4.730   1.538  16.758  0.0659  1.6000  0.3421
 6364TIP3   OH240582   1.341   4.686  15.375  0.0313 -0.1435  0.1714
 6364TIP3    H140583   1.355   4.609  15.431  1.4201  1.0826  1.6054
 6364TIP3    H240584   1.346   4.653  15.286  2.4819 -1.4673  0.7182
 6365TIP3   OH240585   4.628   0.515  13.405 -0.3232 -0.3006  0.3803
 6365TIP3    H140586   4.713   0.493  13.444 -0.0374 -0.6233 -0.3996
 6365TIP3    H240587   4.572   0.537  13.480 -0.3232 -2.6581  1.1575
 6366TIP3   OH240588   3.833   5.705   2.556  0.0755  0.2457 -0.2191
 6366TIP3    H140589   3.881   5.638   2.607 -0.5156 -0.6872 -0.8540
 6366TIP3    H240590   3.819   5.664   2.471 -0.1038  1.2882 -0.7037
 6367TIP3   OH240591   4.155   2.222  14.735 -0.0273  0.2540 -0.3283
 6367TIP3    H140592   4.208   2.187  14.664 -0.7142 -0.1087 -0.6777
 6367TIP3    H240593   4.071   2.243  14.694 -0.4117  0.1067  0.3561
 6368TIP3   OH240594   4.900   4.966  15.360  0.0903 -0.2957 -0.0553
 6368TIP3    H140595   4.835   4.980  15.291  0.0142  1.1974  0.2847
 6368TIP3    H240596   4.850   4.937  15.436 -0.1239  0.3792  0.0633
 6369TIP3   OH240597   5.692   5.427   1.121 -0.1888 -0.6349 -0.0661
 6369TIP3    H140598   5.704   5.389   1.034 -1.2646 -0.9741 -0.0852
 6369TIP3    H240599   5.644   5.359   1.170  0.0001 -0.2634  0.6464
 6370TIP3   OH240600   6.013   3.883  15.734 -0.7062 -0.1502 -0.6594
 6370TIP3    H140601   5.920   3.872  15.714 -0.6931 -0.4579 -0.5568
 6370TIP3    H240602   6.027   3.977  15.733 -1.0713 -0.0950 -0.4325
 6371TIP3   OH240603   6.484   5.680   1.276 -0.7726 -0.1042 -0.3084
 6371TIP3    H140604   6.439   5.598   1.255 -1.6819  0.9504 -2.9060
 6371TIP3    H240605   6.429   5.721   1.342 -0.2867 -1.5486  1.0632
 6372TIP3   OH240606   4.077   4.560  16.142 -0.1528 -0.1607 -0.1623
 6372TIP3    H140607   4.146   4.495  16.138 -0.1863 -0.4708  2.6319
 6372TIP3    H240608   4.120   4.640  16.174 -0.8602 -0.0654  0.5971
 6373TIP3   OH240609   0.476   2.135   4.015 -0.7345  0.0772 -0.6363
 6373TIP3    H140610   0.533   2.212   4.021  0.7391 -1.0542  1.4824
 6373TIP3    H240611   0.535   2.064   3.987 -1.5461 -0.7396 -0.3205
 6374TIP3   OH240612   5.896   2.615  10.226 -0.3554  0.0051  0.0789
 6374TIP3    H140613   5.926   2.646  10.140  0.7144  1.1556  0.8373
 6374TIP3    H240614   5.806   2.648  10.234 -0.0556  0.8976 -0.1275
 6375TIP3   OH240615   6.773   6.356  13.124  0.2106  0.0901  0.3703
 6375TIP3    H140616   6.808   6.392  13.043  1.2239  0.0144  0.7672
 6375TIP3    H240617   6.724   6.278  13.097  0.3981  0.1601 -0.1817
 6376TIP3   OH240618   6.393   4.149   4.891  0.1083  0.2264 -0.1902
 6376TIP3    H140619   6.315   4.184   4.849  0.0427  0.7299  0.3408
 6376TIP3    H240620   6.367   4.137   4.983  0.9636  1.4031  0.2293
 6377TIP3   OH240621   6.016   3.225   4.656 -0.2724 -0.7467 -0.6706
 6377TIP3    H140622   5.958   3.170   4.709  0.0400 -0.7454 -0.3199
 6377TIP3    H240623   6.002   3.314   4.689 -1.7743 -0.3995 -2.1416
 6378TIP3   OH240624   4.504   0.906   2.820  0.7008 -0.8076 -0.8636
 6378TIP3    H140625   4.526   0.938   2.733  1.6796  3.7936  0.7656
 6378TIP3    H240626   4.584   0.917   2.871 -1.1177  2.2012  1.7814
 6379TIP3   OH240627   6.454   2.055   0.054  0.4726  0.9244  0.0269
 6379TIP3    H140628   6.411   2.135   0.024  1.0986  1.1304 -0.3289
 6379TIP3    H240629   6.436   1.991  -0.015 -1.0424  0.3907  0.8554
 6380TIP3   OH240630   0.923   3.129   1.535  0.4780  0.2698 -0.0560
 6380TIP3    H140631   1.017   3.127   1.519  0.6828  0.7532  0.9783
 6380TIP3    H240632   0.883   3.111   1.450  1.4971  1.3579 -0.7867
 6381TIP3   OH240633   1.547   4.732   3.924 -0.0463  0.2555  0.4486
 6381TIP3    H140634   1.452   4.720   3.918 -0.3399  2.6377 -0.8172
 6381TIP3    H240635   1.576   4.662   3.983 -2.4736 -0.9380  0.3626
 6382TIP3   OH240636   5.276   6.121   2.841  0.1047  0.2468 -0.2948
 6382TIP3    H140637   5.308   6.206   2.872  0.2393 -0.0305  0.3550
 6382TIP3    H240638   5.233   6.140   2.758  2.3542  0.5885 -1.4692
 6383TIP3   OH240639   6.682   0.434   3.097 -0.1971 -0.5173  0.2084
 6383TIP3    H140640   6.663   0.527   3.082  0.3495  0.0545  2.6377
 6383TIP3    H240641   6.597   0.391   3.094 -0.5040  0.1171 -0.5250
 6384TIP3   OH240642   2.418   6.352   2.757 -0.0695 -0.2705 -0.6195
 6384TIP3    H140643   2.382   6.377   2.672  0.1397  0.6663 -0.4423
 6384TIP3    H240644   2.504   6.394   2.761 -1.4862  2.8465  1.4920
 6385TIP3   OH240645   4.895   2.455   2.278  0.2371 -0.2253  0.4090
 6385TIP3    H140646   4.984   2.421   2.281  0.5016  0.4545  0.8068
 6385TIP3    H240647   4.865   2.440   2.189  1.4688  1.2547 -0.3087
 6386TIP3   OH240648   5.896   0.504   2.151 -0.0080  0.5577 -0.5911
 6386TIP3    H140649   5.897   0.556   2.071 -1.9528  2.1240  0.3125
 6386TIP3    H240650   5.855   0.421   2.126  2.8773 -0.5668 -1.9883
 6387TIP3   OH240651   6.670   5.290   2.615 -0.8457 -0.3940 -0.0165
 6387TIP3    H140652   6.679   5.274   2.521 -3.1322 -0.5768 -0.2594
 6387TIP3    H240653   6.683   5.204   2.655  0.0196 -0.3382 -0.1665
 6388TIP3   OH240654   5.810   3.426   0.679  0.0256 -0.1562  0.0777
 6388TIP3    H140655   5.863   3.418   0.758 -1.1316  0.0752  0.9109
 6388TIP3    H240656   5.735   3.369   0.694  0.0621 -0.5521 -1.1146
 6389TIP3   OH240657   3.039   3.413  11.990  0.0029  0.8156 -0.0270
 6389TIP3    H140658   3.122   3.366  11.990 -0.7979 -1.0338  3.9322
 6389TIP3    H240659   2.975   3.350  11.959 -0.3360  1.2344 -0.1937
 6390TIP3   OH240660   6.039   4.574   0.631 -0.2668  0.3625 -0.4322
 6390TIP3    H140661   6.129   4.556   0.604 -0.2698 -1.7514  0.7615
 6390TIP3    H240662   6.009   4.492   0.671 -2.4488  1.2796 -0.0501
 6391TIP3   OH240663   1.412   2.620   6.455  0.2536  0.0599 -0.7975
 6391TIP3    H140664   1.462   2.545   6.486 -1.3156 -1.0916 -0.9518
 6391TIP3    H240665   1.417   2.684   6.527  1.8717 -0.0249 -0.7983
 6392TIP3   OH240666   4.451   6.491  12.150 -0.1208  0.4758  0.1932
 6392TIP3    H140667   4.395   6.522  12.079 -0.9466  0.4879  0.8427
 6392TIP3    H240668   4.412   6.408  12.177  0.7686 -0.0326 -0.0190
 6393TIP3   OH240669   5.766   6.119   3.748  0.1189 -0.0207 -0.1602
 6393TIP3    H140670   5.671   6.105   3.749  0.2605 -1.0446  0.3230
 6393TIP3    H240671   5.787   6.128   3.655 -0.3986 -0.2631 -0.3091
 6394TIP3   OH240672   3.337   3.898  15.784  0.2133 -0.1323 -0.3055
 6394TIP3    H140673   3.421   3.937  15.760  0.5702 -2.0755 -2.5899
 6394TIP3    H240674   3.283   3.907  15.706 -0.0586 -3.0038 -0.5687
 6395TIP3   OH240675   2.252   6.427   0.162 -0.6258  0.2063 -0.5713
 6395TIP3    H140676   2.309   6.384   0.225  1.5476 -0.0792 -2.5879
 6395TIP3    H240677   2.231   6.511   0.202  0.4852 -0.0637  0.6441
 6396TIP3   OH240678   5.333   6.183  12.671 -0.5812 -0.6089  0.1548
 6396TIP3    H140679   5.289   6.215  12.592 -1.9802 -1.3216  0.6142
 6396TIP3    H240680   5.426   6.205  12.657 -0.8588 -0.3105 -1.4643
 6397TIP3   OH240681   3.651   4.939  12.555 -0.5317  0.3976 -0.3743
 6397TIP3    H140682   3.683   5.005  12.618 -1.6976  0.2796  0.3726
 6397TIP3    H240683   3.616   4.869  12.610 -0.6731 -0.1597 -1.1696
 6398TIP3   OH240684   3.050   1.693  11.865  0.1423 -0.7099  0.0864
 6398TIP3    H140685   2.978   1.633  11.846 -0.4651  0.1551 -0.3943
 6398TIP3    H240686   3.089   1.658  11.945 -1.9885 -0.1571  1.4521
 6399TIP3   OH240687   6.448   5.907   4.904  0.1396 -0.0075  0.1559
 6399TIP3    H140688   6.513   5.846   4.938  0.5882  0.1978 -0.3257
 6399TIP3    H240689   6.371   5.893   4.959  0.6817 -0.0440  0.9135
 6400TIP3   OH240690   2.283   2.074   2.059 -0.1364  0.4992  0.0186
 6400TIP3    H140691   2.346   2.114   2.119  0.7619  0.9423 -1.1821
 6400TIP3    H240692   2.199   2.113   2.084 -0.1245 -0.6962  2.1635
 6401TIP3   OH240693   3.408   6.307  16.013  0.4379  0.3171 -0.1244
 6401TIP3    H140694   3.475   6.321  15.946  2.1349 -0.6021  1.2990
 6401TIP3    H240695   3.336   6.264  15.966  2.2064 -1.7424 -1.1177
 6402TIP3   OH240696   6.077   2.798  11.967 -0.3631  0.1189 -0.1722
 6402TIP3    H140697   6.135   2.740  12.017 -0.1106  1.4723  1.1565
 6402TIP3    H240698   6.082   2.765  11.877 -0.6177 -2.2122  0.6065
 6403TIP3   OH240699   1.136   4.870   4.769  0.0494  0.3579  0.0769
 6403TIP3    H140700   1.142   4.966   4.766  0.6622  0.3051 -1.8682
 6403TIP3    H240701   1.224   4.841   4.790  0.9994  0.2021 -3.4430
 6404TIP3   OH240702   6.541   5.898  12.592  0.1473  0.2740  0.2133
 6404TIP3    H140703   6.467   5.859  12.638 -1.9319  2.6238 -0.8392
 6404TIP3    H240704   6.597   5.933  12.661 -0.1296 -0.8374  1.0261
 6405TIP3   OH240705   4.025   5.396   5.307  0.5302  0.2429  0.7832
 6405TIP3    H140706   3.985   5.445   5.235 -1.2313 -1.0426  0.8132
 6405TIP3    H240707   4.108   5.365   5.272 -0.2100 -0.2011 -0.6578
 6406TIP3   OH240708   2.482   2.257   1.156 -0.7112 -0.2425 -0.6087
 6406TIP3    H140709   2.541   2.256   1.081  0.3875 -1.5657  0.2137
 6406TIP3    H240710   2.458   2.165   1.169 -0.0314 -0.2060  1.2566
 6407TIP3   OH240711   0.657   6.365  13.560 -0.1527 -0.2344 -0.0543
 6407TIP3    H140712   0.752   6.366  13.566 -0.1729  0.6665  0.2809
 6407TIP3    H240713   0.630   6.448  13.600 -0.9944  0.2625 -1.6077
 6408TIP3   OH240714   2.903   1.407  15.630 -0.1241 -0.0918 -0.0956
 6408TIP3    H140715   2.982   1.354  15.639  0.5199  0.9477  0.4821
 6408TIP3    H240716   2.860   1.401  15.715 -0.7439 -0.7472 -0.4415
 6409TIP3   OH240717   3.965   3.191  15.339 -0.1614 -0.1206  0.2880
 6409TIP3    H140718   4.032   3.233  15.284 -0.3262 -0.2885 -0.0372
 6409TIP3    H240719   3.918   3.265  15.379 -0.2025  0.0030  0.0136
 6410TIP3   OH240720   4.504   2.966   0.429 -0.5553  0.5356 -0.2657
 6410TIP3    H140721   4.542   2.941   0.345 -1.9731 -0.7955 -0.5498
 6410TIP3    H240722   4.441   3.035   0.408  0.2111  1.3334 -0.0490
 6411TIP3   OH240723   5.729   5.823   3.794 -0.2942 -0.2546 -1.1666
 6411TIP3    H140724   5.822   5.830   3.814 -0.5383  1.1076 -0.4150
 6411TIP3    H240725   5.686   5.872   3.863 -1.6888 -2.0884 -0.6548
 6412TIP3   OH240726   3.472   2.304  16.986 -0.4479  0.0349 -0.0140
 6412TIP3    H140727   3.395   2.353  17.014 -1.0075  0.1699 -1.6590
 6412TIP3    H240728   3.490   2.244  17.058 -1.1756  1.0184  1.0368
 6413TIP3   OH240729   5.555   6.551  16.741  0.1253  0.3581  0.6742
 6413TIP3    H140730   5.525   6.603  16.667 -0.7370 -0.4543  0.4238
 6413TIP3    H240731   5.582   6.615  16.807  1.2995  1.0910 -0.4826
 6414TIP3   OH240732   5.177   6.765   5.154  0.3203 -0.4465  0.1858
 6414TIP3    H140733   5.125   6.812   5.219 -0.5015 -0.8373 -0.1683
 6414TIP3    H240734   5.211   6.833   5.096 -1.3465 -0.2960 -0.6771
 6415TIP3   OH240735   3.972   5.512   3.927  0.0738 -0.0613 -0.3591
 6415TIP3    H140736   3.935   5.521   3.839 -0.9052 -1.3183 -0.1066
 6415TIP3    H240737   3.895   5.510   3.985  0.7303  1.6845  0.6494
 6416TIP3   OH240738   0.396   6.341   4.255 -0.1954  0.1677  0.0432
 6416TIP3    H140739   0.306   6.351   4.286  0.0165 -2.3987  1.8616
 6416TIP3    H240740   0.450   6.361   4.331  0.8298  1.7746 -1.0584
 6417TIP3   OH240741   6.525   5.438  15.140 -0.3618 -0.1956 -0.2019
 6417TIP3    H140742   6.521   5.497  15.065  1.8861  3.0034  1.9296
 6417TIP3    H240743   6.441   5.449  15.184 -0.3875  0.5480 -0.4286
 6418TIP3   OH240744   4.941   1.777  13.015 -1.0711  0.0362  0.4569
 6418TIP3    H140745   4.923   1.797  12.924 -1.8538  0.6056  0.7237
 6418TIP3    H240746   4.858   1.742  13.048 -0.1164 -2.6622  0.3056
 6419TIP3   OH240747   4.135   5.631   5.499  0.2461  0.6256  0.0069
 6419TIP3    H140748   4.204   5.567   5.513 -1.4035 -0.9244  1.6290
 6419TIP3    H240749   4.155   5.702   5.560  0.5843  0.3329  0.2388
 6420TIP3   OH240750   5.798   0.004   0.542 -0.2752 -0.0928  0.6985
 6420TIP3    H140751   5.889  -0.027   0.536 -0.0432  0.8298 -1.1776
 6420TIP3    H240752   5.794   0.049   0.627  2.0541  2.7788 -0.5276
 6421TIP3   OH240753   5.953   1.459   5.602  0.9644 -0.0955 -0.2576
 6421TIP3    H140754   5.861   1.483   5.602  1.4054  1.7510  0.0464
 6421TIP3    H240755   5.996   1.530   5.554  2.0486 -1.7607 -1.8661
 6422TIP3   OH240756   5.279   2.059   5.615 -0.3137 -0.5297  0.6200
 6422TIP3    H140757   5.320   2.117   5.680  0.2309  0.2924 -0.4159
 6422TIP3    H240758   5.344   2.052   5.546 -1.5378  0.0538 -0.6395
 6423TIP3   OH240759   5.161   5.639   4.108  0.0986  0.0207  0.0013
 6423TIP3    H140760   5.104   5.708   4.142  0.1052 -0.2906  0.6665
 6423TIP3    H240761   5.249   5.677   4.110  0.4509 -0.7256  2.5371
 6424TIP3   OH240762   2.002   6.469   3.153 -0.4045  0.2135 -0.7366
 6424TIP3    H140763   2.021   6.519   3.073 -1.6376  1.2357 -0.4244
 6424TIP3    H240764   1.950   6.529   3.206  0.4636 -0.4277  0.8827
 6425TIP3   OH240765   1.932   6.174  12.290 -0.5474 -0.2533  0.0226
 6425TIP3    H140766   1.990   6.114  12.245 -1.5926 -0.7998 -0.6430
 6425TIP3    H240767   1.957   6.261  12.259  1.8327 -0.1661  1.9559
 6426TIP3   OH240768   2.542   3.833  14.996  0.5115 -0.1214 -0.4372
 6426TIP3    H140769   2.533   3.739  14.983  1.6163 -0.0735 -1.7329
 6426TIP3    H240770   2.562   3.843  15.089  1.6290 -1.2683 -0.5373
 6427TIP3   OH240771   0.409   5.259  13.122  0.1457  0.5289  0.0188
 6427TIP3    H140772   0.440   5.183  13.074  0.7687  0.9270 -0.2115
 6427TIP3    H240773   0.461   5.261  13.202  0.1283  0.7145  0.0272
 6428TIP3   OH240774   4.372   6.099   5.214  0.1663  0.1028 -0.1144
 6428TIP3    H140775   4.415   6.013   5.222 -1.1923 -0.5593  0.3318
 6428TIP3    H240776   4.279   6.079   5.213 -0.1669  1.5769 -0.2301
 6429TIP3   OH240777   3.892   1.706   1.379  0.1651  0.0900  0.0594
 6429TIP3    H140778   3.797   1.717   1.383 -0.0904 -1.6852 -0.0187
 6429TIP3    H240779   3.919   1.697   1.471  0.1141 -0.3528  0.0328
 6430TIP3   OH240780   3.674   1.378  14.008 -0.6821  0.2723 -0.1616
 6430TIP3    H140781   3.756   1.347  13.970 -2.1572 -1.6897 -1.9468
 6430TIP3    H240782   3.652   1.456  13.957  0.1249  0.9490  0.4788
 6431TIP3   OH240783   5.427   0.074   4.625 -0.4943  0.0890 -0.0851
 6431TIP3    H140784   5.515   0.106   4.647 -0.4566  0.1405 -0.3091
 6431TIP3    H240785   5.405   0.118   4.543 -0.8421  0.2824  0.1119
 6432TIP3   OH240786   6.133   5.862  12.151  0.0609 -0.0521 -0.2068
 6432TIP3    H140787   6.168   5.780  12.185  0.3529  0.7252  1.4799
 6432TIP3    H240788   6.101   5.840  12.063  0.0368 -1.9718  0.2332
 6433TIP3   OH240789   3.282   0.864  16.752 -0.2338  0.7748  0.1483
 6433TIP3    H140790   3.222   0.893  16.820 -1.2153 -0.3970 -0.2032
 6433TIP3    H240791   3.341   0.802  16.796 -3.2577 -3.0792 -0.7194
 6434TIP3   OH240792   0.717   5.788  11.637 -0.1694  0.5016  0.3954
 6434TIP3    H140793   0.667   5.707  11.649 -0.0011  0.4810  1.0021
 6434TIP3    H240794   0.789   5.763  11.579  0.0604  0.1367  0.8316
 6435TIP3   OH240795   5.767   4.181   5.421 -0.3918  0.3831 -0.9394
 6435TIP3    H140796   5.675   4.207   5.427 -0.6563 -0.7875  0.6252
 6435TIP3    H240797   5.765   4.085   5.423  0.9161  0.3591  0.4553
 6436TIP3   OH240798   0.724   0.725   1.257 -0.0346  0.1688 -0.0007
 6436TIP3    H140799   0.805   0.773   1.242  0.7595 -1.1056  0.0432
 6436TIP3    H240800   0.719   0.663   1.184 -1.7506  1.1910 -0.8283
 6437TIP3   OH240801   4.029   4.895  11.354 -0.1496 -0.4090 -0.3035
 6437TIP3    H140802   4.037   4.983  11.389  0.2682 -1.2299  1.8456
 6437TIP3    H240803   3.936   4.876  11.354 -0.3082  0.2614 -1.4991
 6438TIP3   OH240804   6.339   6.809   1.305 -0.0428  0.2547  0.4984
 6438TIP3    H140805   6.299   6.743   1.249  0.4284  0.1369  0.2941
 6438TIP3    H240806   6.405   6.761   1.355 -0.9534  0.2051  1.7077
 6439TIP3   OH240807   3.483   5.031   0.609 -0.1946  0.5164  0.5605
 6439TIP3    H140808   3.432   4.957   0.577  0.3902  0.1211  0.5195
 6439TIP3    H240809   3.564   5.028   0.559 -0.6615  1.9346 -0.3302
 6440TIP3   OH240810   3.693   4.681   3.711 -0.8768  0.4383 -0.2587
 6440TIP3    H140811   3.724   4.708   3.625  1.7640  2.1568  1.0711
 6440TIP3    H240812   3.638   4.754   3.740 -0.1592  0.7920  0.2446
 6441TIP3   OH240813   6.019   6.547   3.437 -0.2190  0.1346  0.4519
 6441TIP3    H140814   6.106   6.581   3.413 -0.3292  1.1138  1.3448
 6441TIP3    H240815   6.020   6.545   3.533 -1.3102  0.5104  0.4834
 6442TIP3   OH240816   1.179   3.946  15.467  0.2991  0.2779  0.5078
 6442TIP3    H140817   1.243   3.881  15.495  1.5931  0.7907 -1.0881
 6442TIP3    H240818   1.171   3.933  15.372 -1.2456  0.8728  0.5262
 6443TIP3   OH240819   5.690   1.718  12.584  0.2915 -0.1818 -0.0704
 6443TIP3    H140820   5.774   1.760  12.568  0.5216 -0.1035  1.2251
 6443TIP3    H240821   5.711   1.640  12.636 -0.4232 -0.2238  0.1691
 6444TIP3   OH240822   2.138   1.280   0.448 -0.2835  0.0358 -0.2931
 6444TIP3    H140823   2.182   1.323   0.522  0.1424  0.8383 -0.9871
 6444TIP3    H240824   2.195   1.207   0.425  0.4707  0.7740 -0.8653
 6445TIP3   OH240825   4.146   5.333  14.905 -0.5089 -0.1910  0.1743
 6445TIP3    H140826   4.188   5.414  14.933 -0.5571 -0.1781  0.2096
 6445TIP3    H240827   4.152   5.276  14.982 -1.8076  0.2976  0.6703
 6446TIP3   OH240828   3.662   5.329  13.251  0.4882  0.8997  0.4304
 6446TIP3    H140829   3.599   5.373  13.309  0.4781  2.5431 -0.7619
 6446TIP3    H240830   3.611   5.306  13.173  1.1026  1.1967 -0.0632
 6447TIP3   OH240831   2.393   1.157  16.854 -0.1640  0.5589  0.3032
 6447TIP3    H140832   2.471   1.206  16.881  0.0150 -0.6162  2.0944
 6447TIP3    H240833   2.361   1.117  16.935 -1.4505 -0.6535 -0.7582
 6448TIP3   OH240834   4.899   3.271   3.303 -0.7447  0.4777  0.4448
 6448TIP3    H140835   4.851   3.199   3.344 -0.6727  0.3101  0.2373
 6448TIP3    H240836   4.856   3.283   3.219 -1.5652  1.5184  0.9882
 6449TIP3   OH240837   3.763   5.820   0.348 -0.1182  0.0447  0.2118
 6449TIP3    H140838   3.845   5.857   0.314  0.1066 -0.7266 -0.0998
 6449TIP3    H240839   3.731   5.886   0.410  0.0152  0.9806 -0.6977
 6450TIP3   OH240840   1.742   1.567   5.592 -0.0886  0.2203  0.3152
 6450TIP3    H140841   1.685   1.493   5.569  0.2141 -0.1400  0.7245
 6450TIP3    H240842   1.828   1.528   5.606 -0.0778  0.5578  1.2024
 6451TIP3   OH240843   6.829   6.049  14.769 -0.6104 -0.2108 -0.1690
 6451TIP3    H140844   6.805   6.082  14.682  0.7834 -0.7754 -0.8011
 6451TIP3    H240845   6.870   6.124  14.812 -0.2445 -0.2405 -0.4522
 6452TIP3   OH240846   2.693   2.927  11.927 -0.3835 -0.3144 -0.1180
 6452TIP3    H140847   2.643   2.980  11.989 -0.6517  0.5129 -1.0241
 6452TIP3    H240848   2.634   2.914  11.853  0.6213  0.4287 -1.0811
 6453TIP3   OH240849   4.284   6.821  16.450 -0.6528  0.6384  0.1587
 6453TIP3    H140850   4.349   6.840  16.518 -2.4001  0.5112  1.9285
 6453TIP3    H240851   4.227   6.755  16.489 -1.0350 -0.3064 -1.8837
 6454TIP3   OH240852   4.277   0.276  10.378 -0.2864 -0.0144 -0.7539
 6454TIP3    H140853   4.243   0.208  10.436 -0.8100  1.8745  1.2619
 6454TIP3    H240854   4.372   0.261  10.377 -0.4661 -1.2204 -0.9760
 6455TIP3   OH240855   2.175   2.411  14.718 -0.5405  0.2741  0.0590
 6455TIP3    H140856   2.253   2.386  14.768 -1.2450 -0.6500  0.7390
 6455TIP3    H240857   2.140   2.328  14.685 -2.5265  0.3670  1.7368
 6456TIP3   OH240858   6.844   3.027  14.677  0.2718  0.1708 -0.0076
 6456TIP3    H140859   6.767   3.009  14.623  1.1950  0.3951 -1.4659
 6456TIP3    H240860   6.825   3.110  14.720 -0.9103 -0.5279  0.8536
 6457TIP3   OH240861   4.997   6.116  13.262  0.3371  0.1925 -0.3883
 6457TIP3    H140862   4.998   6.203  13.222 -1.1901  0.1962 -0.4877
 6457TIP3    H240863   5.064   6.121  13.331 -0.1257  1.6588  0.0067
 6458TIP3   OH240864   6.029   4.182   0.341 -0.1894  0.6592  0.4419
 6458TIP3    H140865   6.042   4.089   0.324  0.7467  0.8151  0.2600
 6458TIP3    H240866   6.094   4.204   0.408 -0.1409  1.2720  0.2025
 6459TIP3   OH240867   4.966   5.661  14.661  0.3807 -0.3661  0.0401
 6459TIP3    H140868   5.047   5.656  14.712 -0.1958 -0.6831  0.9485
 6459TIP3    H240869   4.996   5.666  14.570  1.4145 -1.9240  0.2458
 6460TIP3   OH240870   2.647   0.568   0.743  0.2393 -0.0009 -0.2321
 6460TIP3    H140871   2.573   0.570   0.683  0.2629 -0.2402 -0.2681
 6460TIP3    H240872   2.661   0.660   0.767 -0.6568 -0.0478  0.4950
 6461TIP3   OH240873   1.630   3.175  16.985  0.2540 -0.7069 -0.0490
 6461TIP3    H140874   1.684   3.254  16.988  0.0358 -0.5917  1.6536
 6461TIP3    H240875   1.663   3.127  16.910  1.2438  0.4033 -0.3622
 6462TIP3   OH240876   3.163   4.146   4.372  0.1727  0.1333 -0.2330
 6462TIP3    H140877   3.094   4.102   4.323  0.7193 -2.6848  1.3112
 6462TIP3    H240878   3.170   4.233   4.331 -1.1772 -1.0590 -3.3372
 6463TIP3   OH240879   1.802   5.181   1.671  0.0273  0.0636  0.0089
 6463TIP3    H140880   1.751   5.220   1.741 -0.8784 -2.2265  0.7051
 6463TIP3    H240881   1.762   5.214   1.590  0.1408  1.5524  0.5442
 6464TIP3   OH240882   5.260   0.709   4.000  0.1223  0.6608 -0.1983
 6464TIP3    H140883   5.255   0.660   4.082  1.8066  0.5500 -0.1291
 6464TIP3    H240884   5.332   0.771   4.014  1.1301 -0.0518 -1.9291
 6465TIP3   OH240885   4.026   2.430   6.486 -0.4544  0.1056  0.3998
 6465TIP3    H140886   4.015   2.517   6.525 -0.9790  1.1476 -1.8736
 6465TIP3    H240887   4.072   2.447   6.403 -2.3760 -1.4696 -1.1047
 6466TIP3   OH240888   4.933   1.730   3.473 -0.2169  0.3020 -0.1682
 6466TIP3    H140889   4.899   1.689   3.552  1.3198 -1.5863 -0.4093
 6466TIP3    H240890   4.855   1.763   3.428 -1.2419  0.2016  1.4544
 6467TIP3   OH240891   2.712   3.021  10.481  0.3111 -0.1178 -0.1285
 6467TIP3    H140892   2.724   3.115  10.494 -0.2934 -0.2168  1.2765
 6467TIP3    H240893   2.671   3.014  10.395 -2.7645  1.1929  1.1024
 6468TIP3   OH240894   4.550   5.659  12.817  0.2704  0.2570 -0.2056
 6468TIP3    H140895   4.474   5.717  12.824  1.2089  1.4261  0.8435
 6468TIP3    H240896   4.594   5.687  12.736  1.3155  1.8279  0.8520
 6469TIP3   OH240897   5.832   1.284  12.665 -0.4141  0.2411 -0.5352
 6469TIP3    H140898   5.823   1.286  12.570 -0.3180  0.7376 -0.5366
 6469TIP3    H240899   5.905   1.225  12.681 -0.1494  0.4946 -0.7943
 6470TIP3   OH240900   4.333   3.416   2.067  0.0043  0.3930 -0.2702
 6470TIP3    H140901   4.365   3.326   2.073 -0.5880  0.1376 -0.8311
 6470TIP3    H240902   4.252   3.415   2.118 -0.1376  0.5450 -0.4927
 6471TIP3   OH240903   3.712   0.809   5.394  0.2713  0.0545 -0.0180
 6471TIP3    H140904   3.682   0.721   5.372  1.7335 -0.3078 -0.7389
 6471TIP3    H240905   3.691   0.861   5.316  2.9605 -0.6066 -1.3141
 6472TIP3   OH240906   1.246   3.824  14.295 -0.5504 -0.0161 -0.5844
 6472TIP3    H140907   1.222   3.908  14.256 -0.1182  0.8176  0.8712
 6472TIP3    H240908   1.163   3.786  14.324 -0.5908  0.8265  0.4789
 6473TIP3   OH240909   0.171   0.466  15.036 -0.6778  0.2631 -0.3898
 6473TIP3    H140910   0.077   0.457  15.049 -1.2697  2.7778 -2.1511
 6473TIP3    H240911   0.187   0.560  15.045  2.2973 -0.3256  3.0683
 6474TIP3   OH240912   5.074   3.217   3.582 -0.0109  0.0690  0.2045
 6474TIP3    H140913   5.088   3.154   3.652 -3.6532 -0.8558  0.2745
 6474TIP3    H240914   5.069   3.165   3.502 -3.4516  0.0547  0.3095
 6475TIP3   OH240915   3.772   1.716   2.636  0.4644  0.1726  0.3910
 6475TIP3    H140916   3.862   1.728   2.665  0.8832  1.3080 -1.2090
 6475TIP3    H240917   3.780   1.664   2.556 -0.1871  1.1632 -0.3373
 6476TIP3   OH240918   5.687   3.084   2.021  0.0954 -0.4707  0.0726
 6476TIP3    H140919   5.613   3.103   1.964 -0.4462 -3.1977 -0.2809
 6476TIP3    H240920   5.704   2.991   2.008  2.1005 -0.4431  1.8984
 6477TIP3   OH240921   0.141   6.107  12.100 -0.0476 -0.1430  0.2031
 6477TIP3    H140922   0.184   6.116  12.185 -0.6510  1.8054  0.3511
 6477TIP3    H240923   0.057   6.152  12.111 -0.7802 -1.1531 -1.0043
 6478TIP3   OH240924   0.448   5.275  10.559 -0.1022  0.4997 -0.5833
 6478TIP3    H140925   0.390   5.322  10.619 -0.2685  1.0853 -1.1851
 6478TIP3    H240926   0.511   5.231  10.615 -1.3664 -0.4789  0.1091
 6479TIP3   OH240927   3.619   0.099   0.307 -0.0532 -0.2573 -0.2134
 6479TIP3    H140928   3.599   0.182   0.263  4.4175  0.5924 -1.0835
 6479TIP3    H240929   3.644   0.124   0.396  0.5952 -0.7582 -0.2485
 6480TIP3   OH240930   4.265   4.523   2.747 -0.4461 -0.4148  0.0399
 6480TIP3    H140931   4.186   4.512   2.694  0.1501  0.8247 -1.1694
 6480TIP3    H240932   4.243   4.597   2.805 -0.2073 -0.1034 -0.2615
 6481TIP3   OH240933   0.183   2.940   5.049  0.2199  0.2347 -0.5361
 6481TIP3    H140934   0.130   2.861   5.060 -0.4443  0.4754 -1.8826
 6481TIP3    H240935   0.148   2.983   4.972 -0.0750  2.3900  0.7117
 6482TIP3   OH240936   1.840   3.877  14.054 -0.4622 -0.3974  0.0865
 6482TIP3    H140937   1.897   3.933  14.107  1.2953  0.1551 -2.2333
 6482TIP3    H240938   1.899   3.813  14.013 -1.6587 -0.6265 -1.3768
 6483TIP3   OH240939   4.866   0.843  16.439 -0.2004  0.3432  0.6078
 6483TIP3    H140940   4.880   0.785  16.363 -0.6505 -1.1573  1.6322
 6483TIP3    H240941   4.873   0.785  16.515  1.7462  2.0646  1.8506
 6484TIP3   OH240942   4.219   0.513   1.875 -0.2597 -0.0113  0.0243
 6484TIP3    H140943   4.178   0.453   1.938 -1.4357 -0.8488 -1.4572
 6484TIP3    H240944   4.208   0.599   1.914 -1.0693 -0.4918  0.9196
 6485TIP3   OH240945   1.143   3.526  14.526 -0.0356  0.5576 -0.1188
 6485TIP3    H140946   1.060   3.524  14.574  0.0865 -1.0480  0.0696
 6485TIP3    H240947   1.120   3.559  14.439 -0.9333 -0.1239 -0.1582
 6486TIP3   OH240948   0.475   0.274  16.537 -0.2426  0.3798 -0.3341
 6486TIP3    H140949   0.419   0.282  16.614  0.9071  2.1987  0.3787
 6486TIP3    H240950   0.547   0.336  16.552  0.6056 -0.0082 -2.3661
 6487TIP3   OH240951   6.328   0.916   0.722  0.0369  0.4849  0.4195
 6487TIP3    H140952   6.386   0.884   0.653  1.0777  2.0846  0.5053
 6487TIP3    H240953   6.275   0.840   0.746  0.8722 -0.5564 -0.9034
 6488TIP3   OH240954   4.954   2.935  12.204  0.1848 -0.6970  0.4466
 6488TIP3    H140955   4.960   3.029  12.190 -0.4852 -0.7003  0.1374
 6488TIP3    H240956   4.864   2.920  12.233  0.3619 -1.2111  0.7425
 6489TIP3   OH240957   6.288   3.982   3.772  0.0612 -0.9036 -0.8612
 6489TIP3    H140958   6.288   4.070   3.735  0.0534  0.7955  2.7366
 6489TIP3    H240959   6.379   3.954   3.770  0.0207 -1.0110 -2.2966
 6490TIP3   OH240960   3.245   5.335  15.080  0.3013  0.5692 -0.1495
 6490TIP3    H140961   3.225   5.380  15.162 -1.5142 -1.4226  0.5584
 6490TIP3    H240962   3.334   5.303  15.091 -0.1509 -0.2303  1.3209
 6491TIP3   OH240963   6.458   3.483   2.547  0.1401  0.1044  0.4563
 6491TIP3    H140964   6.525   3.445   2.604  0.1176  0.1876  0.5387
 6491TIP3    H240965   6.453   3.575   2.574 -0.4882 -0.0546  0.9103
 6492TIP3   OH240966   2.466   0.373   2.778  0.4009  0.0460  0.3557
 6492TIP3    H140967   2.512   0.294   2.748  1.2021  0.6790 -0.1171
 6492TIP3    H240968   2.439   0.417   2.697  0.3766  0.4969  0.6075
 6493TIP3   OH240969   2.622   2.988  10.940 -0.1907 -0.1483  0.2587
 6493TIP3    H140970   2.644   3.063  10.996 -0.2024 -0.1047  0.2048
 6493TIP3    H240971   2.703   2.937  10.935 -0.0349  0.1346 -0.1275
 6494TIP3   OH240972   2.796   3.818   1.469  0.6438  0.5882  0.2767
 6494TIP3    H140973   2.849   3.898   1.460  0.4845  0.7160  0.4542
 6494TIP3    H240974   2.800   3.798   1.563 -0.0150  0.8724  0.3715
 6495TIP3   OH240975   5.625   4.613   1.660 -0.4021 -0.5118 -0.3209
 6495TIP3    H140976   5.703   4.666   1.648  0.3437 -1.2833  0.8653
 6495TIP3    H240977   5.569   4.633   1.585 -0.2967  2.1535  0.2228
 6496TIP3   OH240978   2.545   1.828  13.728 -0.0707  0.2819 -0.1995
 6496TIP3    H140979   2.519   1.738  13.708  0.3732  0.2726 -0.7417
 6496TIP3    H240980   2.628   1.840  13.683  0.3275  0.6741  0.6159
 6497TIP3   OH240981   2.191   3.500   3.921 -0.0225  0.5533 -0.2654
 6497TIP3    H140982   2.241   3.459   3.851  0.6574  1.2253 -0.1847
 6497TIP3    H240983   2.107   3.521   3.881 -0.3515 -0.7890 -0.3390
 6498TIP3   OH240984   5.324   2.997   0.814  0.3307  0.0076  0.4658
 6498TIP3    H140985   5.272   2.917   0.818  1.3265 -0.6911 -0.2454
 6498TIP3    H240986   5.338   3.013   0.721 -2.4809  2.8087  0.3078
 6499TIP3   OH240987   6.684   5.671   5.748  0.5477 -1.1764  0.0061
 6499TIP3    H140988   6.600   5.686   5.705  0.8654 -0.9938 -0.5533
 6499TIP3    H240989   6.670   5.699   5.838 -0.3548 -2.2789  0.2393
 6500TIP3   OH240990   0.351   0.978  12.855 -0.1086  0.2496 -0.1646
 6500TIP3    H140991   0.283   1.012  12.913  0.7851  3.2883 -0.7411
 6500TIP3    H240992   0.336   1.023  12.771  0.7067 -1.4506 -1.2739
 6501TIP3   OH240993   5.703   4.416   4.781 -0.0440 -0.4300  0.3161
 6501TIP3    H140994   5.767   4.353   4.813  0.5343 -0.4733 -0.8648
 6501TIP3    H240995   5.725   4.427   4.688 -1.1100  0.3293  0.1382
 6502TIP3   OH240996   2.829   6.749  15.891  0.6431  0.0556 -0.4970
 6502TIP3    H140997   2.839   6.817  15.824  1.7321  0.5083  0.0960
 6502TIP3    H240998   2.809   6.797  15.971 -1.2216 -0.5190 -0.5778
 6503TIP3   OH240999   6.843   5.197   3.072  0.3680  0.4621  0.1290
 6503TIP3    H141000   6.829   5.257   2.999  2.7798  0.5126 -0.3788
 6503TIP3    H241001   6.801   5.240   3.147 -1.3530  0.8395 -0.9926
 6504TIP3   OH241002   5.080   1.761  11.651 -0.3776  0.2895  0.2615
 6504TIP3    H141003   4.992   1.725  11.649  0.2721 -1.4946  1.3090
 6504TIP3    H241004   5.099   1.772  11.745  0.4216  0.9157  0.0438
 6505TIP3   OH241005   2.043   4.436  15.795 -0.1998  0.3460 -0.1732
 6505TIP3    H141006   1.987   4.431  15.873  0.4962  1.0575  0.3770
 6505TIP3    H241007   2.073   4.346  15.782 -0.8479  0.1015 -0.0143
 6506TIP3   OH241008   1.547   6.385   3.776 -0.1225 -0.1954  0.1958
 6506TIP3    H141009   1.624   6.386   3.719  0.5824 -1.7789  1.0515
 6506TIP3    H241010   1.533   6.293   3.795 -1.7082  0.1388  0.7899
 6507TIP3   OH241011   0.660   2.194   2.074  0.1916 -0.0394 -0.2690
 6507TIP3    H141012   0.743   2.147   2.064  0.0724 -0.1572 -0.7083
 6507TIP3    H241013   0.596   2.126   2.092  0.3659  0.1466  1.1749
 6508TIP3   OH241014   2.985   0.475  15.518  0.0970 -0.1463 -0.0589
 6508TIP3    H141015   3.053   0.440  15.461  0.3328  0.8140 -0.3875
 6508TIP3    H241016   3.031   0.536  15.576 -0.4415  0.3685 -0.1569
 6509TIP3   OH241017   1.906   2.635   3.546  0.8337  0.0171  0.0147
 6509TIP3    H141018   1.907   2.639   3.642  1.1434 -1.8329  0.1272
 6509TIP3    H241019   1.939   2.548   3.525 -1.2463 -0.4447 -1.7172
 6510TIP3   OH241020   2.964   1.279  11.021  0.3941 -0.0951  0.0792
 6510TIP3    H141021   2.927   1.206  10.971 -1.6710  0.4060  0.7487
 6510TIP3    H241022   3.024   1.322  10.961 -1.3632 -0.0250 -1.7372
 6511TIP3   OH241023   5.930   1.068   2.084 -0.2537  0.5716 -0.0854
 6511TIP3    H141024   6.008   1.120   2.104  1.2718 -1.7016  0.2810
 6511TIP3    H241025   5.901   1.035   2.169 -0.5142 -0.0526 -0.4081
 6512TIP3   OH241026   6.732   2.057  15.177 -0.4582  0.0081  0.3548
 6512TIP3    H141027   6.687   2.125  15.128  0.8323  1.7885  1.5000
 6512TIP3    H241028   6.715   2.078  15.269  0.3336 -0.9411  0.7406
 6513TIP3   OH241029   5.043   4.345  16.368  0.0396  0.2885 -0.3496
 6513TIP3    H141030   5.083   4.384  16.446  0.6255 -0.2526 -0.3715
 6513TIP3    H241031   5.096   4.267  16.350 -1.1439 -0.5652 -0.2744
 6514TIP3   OH241032   1.160   1.187   3.463 -0.1281  0.0328  0.4208
 6514TIP3    H141033   1.131   1.166   3.552 -0.2971  2.2021  0.9123
 6514TIP3    H241034   1.256   1.182   3.468 -0.0936  1.0530  0.9839
 6515TIP3   OH241035   0.892   4.144  16.186  0.7240  0.0241  0.2759
 6515TIP3    H141036   0.818   4.131  16.127  0.9187 -0.3227  0.1080
 6515TIP3    H241037   0.888   4.237  16.208  0.5568  0.1229 -0.1527
 6516TIP3   OH241038   0.027   5.190  12.359 -0.9715  0.2484  0.6610
 6516TIP3    H141039   0.084   5.163  12.287 -2.8543 -0.2468 -0.7226
 6516TIP3    H241040  -0.041   5.122  12.362 -1.9484  1.2267  1.7106
 6517TIP3   OH241041   6.249   3.047   6.256 -0.0987  0.3434  0.5232
 6517TIP3    H141042   6.181   2.980   6.245 -0.4171  0.6644  0.5050
 6517TIP3    H241043   6.327   2.999   6.281  0.1200 -0.2237 -1.1570
 6518TIP3   OH241044   2.936   0.088   3.312 -0.0295  0.1300 -0.1079
 6518TIP3    H141045   3.011   0.035   3.286 -1.0096 -0.5132 -1.7808
 6518TIP3    H241046   2.969   0.178   3.315  1.0950 -0.2801  0.5037
 6519TIP3   OH241047   6.451   1.378   2.436 -0.2635 -1.1837 -0.1685
 6519TIP3    H141048   6.499   1.296   2.423  2.0137 -0.2541  1.4882
 6519TIP3    H241049   6.451   1.390   2.531 -3.3310 -0.7612 -0.1390
 6520TIP3   OH241050   6.450   1.920   5.364 -0.2464  0.1647 -0.1157
 6520TIP3    H141051   6.541   1.931   5.393  0.1173  1.3396 -1.5901
 6520TIP3    H241052   6.457   1.862   5.288 -0.7470  0.1387 -0.1406
 6521TIP3   OH241053   0.615   5.686   2.960  0.1026  0.1863  0.2107
 6521TIP3    H141054   0.584   5.757   3.017  2.5188  0.4202  1.3569
 6521TIP3    H241055   0.696   5.656   3.001  0.3768 -1.6849 -1.5355
 6522TIP3   OH241056   5.875   4.307   4.080  0.0872  0.5226 -0.3328
 6522TIP3    H141057   5.898   4.227   4.127 -1.6174 -0.3477 -0.9191
 6522TIP3    H241058   5.783   4.296   4.056  0.3146  1.8853 -2.0005
 6523TIP3   OH241059   5.170   3.102  11.252  0.4666  0.2591 -0.1879
 6523TIP3    H141060   5.170   3.043  11.327  2.7177 -0.5026 -0.7199
 6523TIP3    H241061   5.113   3.174  11.279  0.8997 -0.1629  2.1152
 6524TIP3   OH241062   1.646   1.208   6.023 -0.4118  0.0626  0.0215
 6524TIP3    H141063   1.701   1.148   5.974 -0.9611 -0.0375 -0.4730
 6524TIP3    H241064   1.650   1.176   6.114  0.6889  0.3180  0.0725
 6525TIP3   OH241065   1.394   3.654  16.978  0.9396 -0.1532 -0.3068
 6525TIP3    H141066   1.481   3.649  17.018  0.8915 -2.4127 -0.3477
 6525TIP3    H241067   1.333   3.646  17.052  0.7226  1.7098 -0.2436
 6526TIP3   OH241068   4.640   2.663  11.990  0.1801 -0.1788 -0.1222
 6526TIP3    H141069   4.667   2.720  12.062  1.3827  0.1020 -0.7636
 6526TIP3    H241070   4.716   2.607  11.974 -0.2847 -0.6381 -0.7840
 6527TIP3   OH241071   1.966   2.621  14.283 -0.3809 -0.0673  0.1923
 6527TIP3    H141072   1.971   2.631  14.188 -0.1857 -0.0566  0.2027
 6527TIP3    H241073   2.057   2.607  14.310 -0.4968 -0.5851  0.3219
 6528TIP3   OH241074   2.299   2.693   3.849  0.1329 -1.1246 -0.8245
 6528TIP3    H141075   2.370   2.757   3.853 -0.3219 -0.6471  1.5893
 6528TIP3    H241076   2.226   2.741   3.811 -0.6534  0.4318  2.2932
 6529TIP3   OH241077   0.730   0.436   4.981 -0.0468 -0.4773  0.2476
 6529TIP3    H141078   0.682   0.455   5.061  2.4037  1.0945  1.4663
 6529TIP3    H241079   0.716   0.513   4.925 -1.0027 -1.1710 -0.5192
 6530TIP3   OH241080   0.183   1.641  15.469  0.5125 -0.7020  0.1271
 6530TIP3    H141081   0.223   1.686  15.543  0.3664 -1.8679  0.9492
 6530TIP3    H241082   0.241   1.566  15.453  1.0853  0.0752 -1.5929
 6531TIP3   OH241083   5.114   3.805   5.847  0.0441  0.0882  0.0607
 6531TIP3    H141084   5.153   3.726   5.884  1.3097  0.5917 -0.1677
 6531TIP3    H241085   5.094   3.859   5.924  1.6326  0.6544  0.1014
 6532TIP3   OH241086   0.096   1.982   3.310  0.1745  0.1420  0.3376
 6532TIP3    H141087   0.037   1.983   3.235 -0.1682 -0.7370  0.5854
 6532TIP3    H241088   0.121   2.074   3.322  0.3588  0.2838 -0.9425
 6533TIP3   OH241089   4.730   6.166  14.274 -0.3280  0.5356  0.6728
 6533TIP3    H141090   4.689   6.079  14.273 -2.7462  1.5978 -0.0926
 6533TIP3    H241091   4.786   6.166  14.195  0.7597 -0.7325  1.3965
 6534TIP3   OH241092   5.817   3.669   1.182  0.3280  0.9226  0.7396
 6534TIP3    H141093   5.794   3.592   1.131 -0.7893  1.1322  0.8954
 6534TIP3    H241094   5.895   3.705   1.138  1.6303 -0.9564  1.4042
 6535TIP3   OH241095   4.841   0.414  15.527  0.0979  0.3105 -0.5705
 6535TIP3    H141096   4.820   0.467  15.450 -2.1795 -1.4763 -1.2768
 6535TIP3    H241097   4.892   0.341  15.492 -0.4599 -0.2082 -0.3177
 6536TIP3   OH241098   4.797   3.534  13.770  0.2531 -0.5095 -0.2228
 6536TIP3    H141099   4.724   3.591  13.793  0.1437  0.4227 -2.5604
 6536TIP3    H241100   4.874   3.578  13.808 -0.0338  0.3203 -0.5669
 6537TIP3   OH241101   1.785   4.991  12.215  0.1180  0.0000 -0.0009
 6537TIP3    H141102   1.694   5.021  12.220  0.6070  1.5970 -0.0175
 6537TIP3    H241103   1.835   5.071  12.204  1.7022 -0.6474  1.9824
 6538TIP3   OH241104   2.369   2.180   6.296  0.2279 -0.1903  0.0797
 6538TIP3    H141105   2.334   2.092   6.284 -0.0381 -0.2248  1.0759
 6538TIP3    H241106   2.408   2.179   6.383  1.7828  0.1665 -0.5595
 6539TIP3   OH241107   5.190   2.930  11.027 -0.0100 -0.1611 -0.0222
 6539TIP3    H141108   5.187   2.985  11.106 -0.7391  0.4445 -0.4593
 6539TIP3    H241109   5.144   2.981  10.961 -0.0068 -0.9675 -0.6546
 6540TIP3   OH241110   2.372   4.869  11.475  0.6117  0.0851  0.4554
 6540TIP3    H141111   2.343   4.902  11.560  1.5157 -0.3820  0.9499
 6540TIP3    H241112   2.386   4.776  11.489  1.0761  0.0656 -0.1274
 6541TIP3   OH241113   4.605   3.840   1.378 -0.1583 -0.1270  0.3215
 6541TIP3    H141114   4.603   3.746   1.364  0.6837 -0.0015 -0.8482
 6541TIP3    H241115   4.677   3.871   1.322 -0.2489  1.1684  0.8857
 6542TIP3   OH241116   6.780   3.171   5.608  0.3833 -0.4319  0.3379
 6542TIP3    H141117   6.830   3.194   5.687 -1.0704 -0.4899  1.3252
 6542TIP3    H241118   6.780   3.251   5.556 -1.0281  0.5656  1.7637
 6543TIP3   OH241119   4.361   1.222   5.774 -0.3432  0.6251  0.2547
 6543TIP3    H141120   4.453   1.208   5.752 -0.8195 -0.1345 -1.4140
 6543TIP3    H241121   4.357   1.213   5.869  1.2129  0.1625  0.2932
 6544TIP3   OH241122   4.647   2.005   3.909  0.6669  0.0015 -0.1300
 6544TIP3    H141123   4.686   1.942   3.848  0.6917 -2.0154  1.8500
 6544TIP3    H241124   4.719   2.063   3.933  0.9663  0.0047 -1.0162
 6545TIP3   OH241125   5.728   6.469   4.678 -0.3330 -0.1154  0.2390
 6545TIP3    H141126   5.685   6.468   4.763 -2.1640 -0.0985 -0.6419
 6545TIP3    H241127   5.662   6.504   4.618  1.4631  1.4825 -0.9186
 6546TIP3   OH241128   2.524   5.278   5.518  0.0823 -0.5388  0.1732
 6546TIP3    H141129   2.476   5.287   5.600  1.1761  0.5536  0.7283
 6546TIP3    H241130   2.458   5.289   5.449 -0.6489 -0.2519  0.9129
 6547TIP3   OH241131   6.792   4.203   4.096  0.3368 -0.3517 -0.1723
 6547TIP3    H141132   6.749   4.273   4.146  1.9706 -1.1352  2.5339
 6547TIP3    H241133   6.840   4.249   4.027  3.1568  1.6767  2.8053
 6548TIP3   OH241134   5.185   2.196   5.112  0.2536  0.1511  0.4101
 6548TIP3    H141135   5.126   2.128   5.146 -1.8306  1.0649 -1.1729
 6548TIP3    H241136   5.174   2.191   5.017  1.4377  1.5213  0.1878
 6549TIP3   OH241137   3.487   2.034  14.075  0.1461  0.3068  0.6483
 6549TIP3    H141138   3.564   1.981  14.095 -0.0049  0.3261  1.3266
 6549TIP3    H241139   3.451   2.057  14.161 -0.6467  0.2545  0.3444
 6550TIP3   OH241140   0.207   1.534  13.233  0.0678 -0.3744 -0.1762
 6550TIP3    H141141   0.210   1.453  13.182  1.1166 -0.6200  0.2433
 6550TIP3    H241142   0.122   1.531  13.278  0.5755 -1.8438  0.7682
 6551TIP3   OH241143   2.680   2.821  12.463 -0.2169  0.1717 -0.2049
 6551TIP3    H141144   2.753   2.776  12.420  1.9689  1.4843  1.9060
 6551TIP3    H241145   2.616   2.752  12.480  0.6935 -1.1092 -1.7158
 6552TIP3   OH241146   5.146   3.400   3.288  0.5110 -0.2406  0.1967
 6552TIP3    H141147   5.073   3.342   3.265  1.2595 -1.1225 -0.0129
 6552TIP3    H241148   5.157   3.456   3.211  1.2054 -1.3169 -0.5095
 6553TIP3   OH241149   4.574   2.880  11.079 -0.0572 -1.0425 -0.1165
 6553TIP3    H141150   4.628   2.867  11.001 -0.4675  1.3279 -0.8839
 6553TIP3    H241151   4.544   2.971  11.073 -1.2865 -1.2179  2.0833
 6554TIP3   OH241152   3.562   2.721   4.497  0.3012  0.5011  0.0915
 6554TIP3    H141153   3.581   2.633   4.464  1.4525  0.6297  0.3590
 6554TIP3    H241154   3.471   2.737   4.472 -0.4025 -1.3278  1.2790
 6555TIP3   OH241155   3.186   3.283   3.629 -0.1290 -0.4713 -0.5201
 6555TIP3    H141156   3.139   3.343   3.686 -2.0090 -0.6654 -1.7772
 6555TIP3    H241157   3.277   3.290   3.656 -0.6084  1.3185  0.7783
 6556TIP3   OH241158   6.707   3.649   1.854 -0.3831  0.2397  0.1627
 6556TIP3    H141159   6.614   3.649   1.875 -0.0642 -0.1660  1.7774
 6556TIP3    H241160   6.731   3.742   1.851 -0.5065  0.3399  1.5456
 6557TIP3   OH241161   3.070   6.637  11.536  0.2251  0.4182  0.6486
 6557TIP3    H141162   3.061   6.659  11.443 -0.5254  0.0469  0.6293
 6557TIP3    H241163   3.018   6.557  11.547  1.2531 -0.2143  1.1371
 6558TIP3   OH241164   2.755   2.060   1.767 -0.0988  0.7237 -0.2456
 6558TIP3    H141165   2.849   2.070   1.782 -0.5723  2.8846  1.8535
 6558TIP3    H241166   2.734   1.974   1.804  0.7089  1.2427  1.5139
 6559TIP3   OH241167   4.420   6.497  14.184  0.4719 -0.1800 -0.5597
 6559TIP3    H141168   4.387   6.574  14.230 -1.3134 -0.6285 -1.0013
 6559TIP3    H241169   4.377   6.423  14.228 -0.6280 -0.6684 -2.3590
 6560TIP3   OH241170   0.221   4.215  11.100 -0.2124 -0.0439 -0.9537
 6560TIP3    H141171   0.139   4.167  11.111 -0.7430  0.9571 -0.3952
 6560TIP3    H241172   0.195   4.307  11.095  0.9958  0.4766  1.1616
 6561TIP3   OH241173   3.369   2.607  15.056  0.0667 -0.8726  0.0282
 6561TIP3    H141174   3.403   2.656  15.132 -0.5594 -1.7880  0.9261
 6561TIP3    H241175   3.325   2.673  15.003  1.0142 -0.1107  0.1547
 6562TIP3   OH241176   0.223   6.253   3.984 -0.1812 -0.0839  0.0122
 6562TIP3    H141177   0.239   6.205   4.066 -1.4547 -1.3020 -0.4213
 6562TIP3    H241178   0.188   6.337   4.013  0.3687 -0.0880  0.7376
 6563TIP3   OH241179   0.810   3.813  17.092 -0.1863 -0.3052 -0.1892
 6563TIP3    H141180   0.789   3.901  17.123 -1.0558  0.5343 -2.8707
 6563TIP3    H241181   0.905   3.808  17.098 -0.1842  0.4515  0.8371
 6564TIP3   OH241182   6.204   3.932   0.948  0.2418 -0.4986  0.7387
 6564TIP3    H141183   6.252   3.872   0.891 -0.2338 -1.9900  1.8398
 6564TIP3    H241184   6.123   3.885   0.970 -2.5732  2.4282 -2.1594
 6565TIP3   OH241185   6.577   5.005  11.775 -0.1862  0.0472 -0.1253
 6565TIP3    H141186   6.520   5.020  11.699 -0.0156  0.5153 -0.1628
 6565TIP3    H241187   6.665   4.998  11.738 -0.1618 -0.2127 -0.0185
 6566TIP3   OH241188   3.357   2.379  13.131 -0.0008  0.6154 -0.2839
 6566TIP3    H141189   3.420   2.445  13.102 -0.3396  1.1895  0.2577
 6566TIP3    H241190   3.394   2.344  13.212  0.4290 -0.2368 -0.8320
 6567TIP3   OH241191   2.675   6.618   6.670 -0.0056 -0.4174 -0.2462
 6567TIP3    H141192   2.582   6.615   6.690  0.1488 -1.7587  0.3697
 6567TIP3    H241193   2.689   6.543   6.612  0.7279 -0.3359 -0.1802
 6568TIP3   OH241194   1.420   5.477   5.150 -0.0424 -0.1395 -0.4588
 6568TIP3    H141195   1.408   5.457   5.243  0.8345  1.0527 -0.0581
 6568TIP3    H241196   1.514   5.489   5.140  0.1826 -2.7073 -2.0725
 6569TIP3   OH241197   0.496   0.478   1.060  0.0056  0.5090 -0.3063
 6569TIP3    H141198   0.469   0.493   1.151 -2.8018  1.2062 -1.1716
 6569TIP3    H241199   0.469   0.388   1.042 -1.1667  0.9649 -0.9526
 6570TIP3   OH241200   2.216   4.896  16.180 -0.0113  0.2862 -0.1111
 6570TIP3    H141201   2.197   4.934  16.094 -0.1327 -1.6020 -0.9815
 6570TIP3    H241202   2.283   4.952  16.218 -1.2942  2.2533 -0.6050
 6571TIP3   OH241203   4.699   0.377  14.007  0.4388  0.8547 -0.2222
 6571TIP3    H141204   4.669   0.421  13.928 -1.5115  1.2648  0.6828
 6571TIP3    H241205   4.624   0.325  14.036  1.4942 -0.2076  0.7366
 6572TIP3   OH241206   0.180   6.251   2.381  0.5834 -0.1622  1.1955
 6572TIP3    H141207   0.271   6.252   2.412  0.7007  0.2500  0.8302
 6572TIP3    H241208   0.129   6.224   2.458  0.9010  0.6183  1.6910
 6573TIP3   OH241209   3.490   4.167   1.042  0.5677  0.0878 -0.1600
 6573TIP3    H141210   3.540   4.211   0.973 -0.0027  0.9155 -0.0448
 6573TIP3    H241211   3.522   4.076   1.039  1.4565  0.4022 -0.6635
 6574TIP3   OH241212   4.149   3.202   1.044 -0.3515  0.2546 -0.4992
 6574TIP3    H141213   4.119   3.176   0.957  2.9974  1.1980 -2.0786
 6574TIP3    H241214   4.198   3.283   1.029  0.9004  0.0833  2.1745
 6575TIP3   OH241215   2.449   0.660  15.552 -0.3260 -0.2838  0.0244
 6575TIP3    H141216   2.543   0.646  15.542 -0.6808 -1.7958 -1.6030
 6575TIP3    H241217   2.411   0.572  15.548 -1.9553  0.4384 -1.2005
 6576TIP3   OH241218   2.134   4.398   0.178 -0.3936 -1.0408 -0.0655
 6576TIP3    H141219   2.087   4.340   0.239  0.0074 -0.1179  1.1547
 6576TIP3    H241220   2.226   4.374   0.188 -0.4064 -1.6156 -1.1333
 6577TIP3   OH241221   0.821   1.249  12.232  0.0917  0.3133 -0.2990
 6577TIP3    H141222   0.886   1.179  12.240 -0.0055 -0.2188 -3.1969
 6577TIP3    H241223   0.872   1.327  12.210  0.0056  0.6895  0.7853
 6578TIP3   OH241224   2.211   1.818   1.190 -0.3414  0.3131 -0.3155
 6578TIP3    H141225   2.225   1.769   1.108  1.4060  0.7857 -0.3485
 6578TIP3    H241226   2.237   1.756   1.258  2.2940  1.2217 -0.3763
 6579TIP3   OH241227   4.626   2.804   1.112 -0.2236  0.1606  0.3658
 6579TIP3    H141228   4.621   2.895   1.140 -1.0465 -0.3153  1.8694
 6579TIP3    H241229   4.584   2.755   1.182  3.6651 -1.7920  1.6243
 6580TIP3   OH241230   0.841   0.025   1.055  0.3038  1.3453 -0.4120
 6580TIP3    H141231   0.915   0.068   1.099 -0.2195 -0.1841  2.1682
 6580TIP3    H241232   0.872  -0.065   1.040  0.2885  1.6807 -2.9157
 6581TIP3   OH241233   0.503   0.975  13.102 -0.2361 -0.0752  0.3477
 6581TIP3    H141234   0.563   0.921  13.051 -0.5358 -0.0517 -0.0405
 6581TIP3    H241235   0.420   0.969  13.055  0.0913  1.9240 -0.5795
 6582TIP3   OH241236   3.413   6.218  17.098  0.1848 -0.4872  0.2494
 6582TIP3    H141237   3.407   6.293  17.039 -0.9348 -0.0819  0.8396
 6582TIP3    H241238   3.324   6.206  17.131  0.7974 -0.5553  2.0003
 6583TIP3   OH241239   2.094   6.413  11.354  0.1311  1.3109  0.0813
 6583TIP3    H141240   2.004   6.419  11.322  0.3928  1.0358 -0.7268
 6583TIP3    H241241   2.143   6.377  11.280  0.5160 -0.6380  1.2246
 6584TIP3   OH241242   2.405   2.775  11.511  0.0225  0.4657  0.3252
 6584TIP3    H141243   2.409   2.706  11.444 -0.8347  0.9232 -0.2119
 6584TIP3    H241244   2.365   2.732  11.587  0.9523 -0.0410  0.5455
 6585TIP3   OH241245   1.568   5.510  16.132  0.3435  0.3197 -0.0525
 6585TIP3    H141246   1.643   5.451  16.130 -0.1426 -0.4221  1.7699
 6585TIP3    H241247   1.510   5.477  16.063  0.9544 -0.1205 -0.3586
 6586TIP3   OH241248   0.695   0.891  13.794 -0.6719  0.1536 -0.1756
 6586TIP3    H141249   0.628   0.904  13.861  0.3371  1.7386  0.5674
 6586TIP3    H241250   0.706   0.796  13.789 -0.6392  0.0109  2.0292
 6587TIP3   OH241251   0.054   2.463   6.244  0.3604  0.0026 -0.0706
 6587TIP3    H141252   0.126   2.471   6.182  1.5215  2.5465  1.4592
 6587TIP3    H241253   0.018   2.551   6.252 -0.4922 -0.4653  1.9883
 6588TIP3   OH241254   2.191   3.139  10.722 -0.4237  0.3164 -0.4936
 6588TIP3    H141255   2.115   3.190  10.695  0.1202  1.3282 -0.1473
 6588TIP3    H241256   2.210   3.084  10.646 -0.0579  1.7824 -1.5115
 6589TIP3   OH241257   2.347   3.865  10.761  0.0808 -0.0156 -0.3628
 6589TIP3    H141258   2.437   3.842  10.785 -0.2662  1.3083  2.7427
 6589TIP3    H241259   2.353   3.956  10.731  0.1457 -0.9384 -3.5140
 6590TIP3   OH241260   2.246   0.649   2.099 -0.3909 -0.6602 -0.3402
 6590TIP3    H141261   2.225   0.704   2.175  0.2989  0.2092 -0.7582
 6590TIP3    H241262   2.328   0.605   2.124  1.5160  1.8636 -1.6230
 6591TIP3   OH241263   5.603   2.899   3.105  0.7855 -0.6156 -0.2880
 6591TIP3    H141264   5.653   2.946   3.039  1.5604  0.4696  1.0228
 6591TIP3    H241265   5.658   2.824   3.130  1.1675 -0.1859  0.1791
 6592TIP3   OH241266   4.213   1.646  10.679 -0.4086  0.2463  0.0176
 6592TIP3    H141267   4.182   1.685  10.597  0.6003 -0.7343 -0.8594
 6592TIP3    H241268   4.253   1.563  10.652 -2.0439 -1.2080  1.7389
 6593TIP3   OH241269   6.773   1.460  13.867 -0.5301 -0.3622  0.1955
 6593TIP3    H141270   6.863   1.427  13.860 -0.8241 -0.7658 -3.7685
 6593TIP3    H241271   6.779   1.532  13.930  2.7078 -0.0537 -0.2906
 6594TIP3   OH241272   1.695   0.792  10.563  0.3595  0.1375 -0.0358
 6594TIP3    H141273   1.685   0.884  10.586  0.4664 -0.3493  2.2190
 6594TIP3    H241274   1.621   0.773  10.506 -0.0642  1.4586  0.0464
 6595TIP3   OH241275   1.140   5.353  16.524 -0.2751 -0.5443 -0.1930
 6595TIP3    H141276   1.089   5.308  16.592 -0.8150  0.3036 -0.0163
 6595TIP3    H241277   1.225   5.370  16.565 -1.1793  1.6044  1.0034
 6596TIP3   OH241278   2.471   2.242   3.250  0.2881  0.6255 -0.2462
 6596TIP3    H141279   2.455   2.178   3.181  0.8616 -0.8805  0.9459
 6596TIP3    H241280   2.396   2.300   3.247  0.1775  0.4357 -1.9495
 6597TIP3   OH241281   1.052   6.307  14.455  0.3762 -0.5937 -0.0706
 6597TIP3    H141282   1.082   6.397  14.450 -1.8756  0.3090  1.2763
 6597TIP3    H241283   1.102   6.268  14.526  0.4298 -0.0104  0.2129
 6598TIP3   OH241284   2.733   1.713   6.257  0.3684 -0.2039 -0.1492
 6598TIP3    H141285   2.683   1.756   6.327  0.6778  0.9887 -0.6489
 6598TIP3    H241286   2.666   1.672   6.202 -0.1232  1.5573 -0.9260
 6599TIP3   OH241287   0.587   2.000  12.133 -0.5751 -0.1131 -0.4023
 6599TIP3    H141288   0.666   2.033  12.175 -0.2773  0.0791 -1.0918
 6599TIP3    H241289   0.550   2.077  12.089 -0.7472 -0.3617 -0.6926
 6600TIP3   OH241290   4.063   1.454  12.359  0.3571  0.0987 -0.3665
 6600TIP3    H141291   4.044   1.520  12.292 -1.0435 -0.4632 -0.5567
 6600TIP3    H241292   4.157   1.463  12.375  0.1560  2.3419 -0.1403
 6601TIP3   OH241293   6.286   5.578  14.650 -0.8479  0.3897  0.2585
 6601TIP3    H141294   6.336   5.659  14.661 -0.4289  0.0771  0.6907
 6601TIP3    H241295   6.325   5.517  14.712  0.5261 -0.9547 -1.7824
 6602TIP3   OH241296   3.105   5.800   0.389  0.2137 -0.7222  0.4878
 6602TIP3    H141297   3.148   5.822   0.306 -0.4939 -0.6734  0.1221
 6602TIP3    H241298   3.167   5.743   0.434  0.9678 -0.0649  0.3018
 6603TIP3   OH241299   0.256   3.477   3.497  0.3680  0.2409 -0.3106
 6603TIP3    H141300   0.345   3.467   3.528  0.4482  0.9166 -0.3171
 6603TIP3    H241301   0.203   3.428   3.560  0.6048  0.9408  0.4440
 6604TIP3   OH241302   0.858   5.995   0.492  0.4431  0.0930 -0.3222
 6604TIP3    H141303   0.828   6.074   0.447 -1.0329  0.2357  0.8419
 6604TIP3    H241304   0.905   5.945   0.425 -1.4058  0.4317 -1.9500
 6605TIP3   OH241305   3.839   3.263  11.144  0.3546 -0.3155 -0.1091
 6605TIP3    H141306   3.826   3.357  11.153  1.2333  0.0945 -2.3145
 6605TIP3    H241307   3.751   3.226  11.147 -0.1150  0.7360 -0.4085
 6606TIP3   OH241308   6.017   4.621   0.364 -0.3282  0.1809  0.0424
 6606TIP3    H141309   6.068   4.702   0.363 -2.2399  1.4689 -0.0393
 6606TIP3    H241310   5.990   4.611   0.456 -0.7998  0.1363 -0.0950
 6607TIP3   OH241311   5.131   2.972  15.836  0.1597  0.5154 -0.5206
 6607TIP3    H141312   5.180   2.988  15.917 -0.5460 -0.8587  0.2062
 6607TIP3    H241313   5.057   2.918  15.863 -1.6685  2.3260 -1.6330
 6608TIP3   OH241314   4.778   1.598  17.093 -0.6476 -0.3689 -1.2649
 6608TIP3    H141315   4.810   1.571  17.179 -0.1120  2.0523 -0.6202
 6608TIP3    H241316   4.744   1.518  17.054 -2.0598 -1.3367  1.6669
 6609TIP3   OH241317   3.112   0.726  12.872 -0.4623  0.0917  0.1867
 6609TIP3    H141318   3.082   0.664  12.939 -0.1050 -0.7679 -0.4486
 6609TIP3    H241319   3.195   0.760  12.906 -0.0788 -0.6474 -0.0142
 6610TIP3   OH241320   6.422   3.528  12.995 -0.3532  0.0457  0.5907
 6610TIP3    H141321   6.333   3.513  12.964  0.5264 -1.7450 -1.3324
 6610TIP3    H241322   6.457   3.596  12.937 -0.5297  0.9227  1.4995
 6611TIP3   OH241323   2.154   4.164   4.610 -0.0681  0.0598 -0.3235
 6611TIP3    H141324   2.204   4.123   4.540 -0.5541 -1.6468  0.2724
 6611TIP3    H241325   2.218   4.181   4.679 -0.0705 -0.9162 -0.0722
 6612TIP3   OH241326   1.794   0.197  12.835  0.1099 -0.0731  0.8184
 6612TIP3    H141327   1.707   0.232  12.819  0.4437  1.1562  1.5369
 6612TIP3    H241328   1.808   0.134  12.764 -0.8885  0.5976 -0.0063
 6613TIP3   OH241329   0.210   3.624   2.624 -0.2983  0.3705  0.0665
 6613TIP3    H141330   0.145   3.694   2.611 -1.5948 -0.9825 -1.0488
 6613TIP3    H241331   0.231   3.629   2.717 -1.1733  1.5414  0.2319
 6614TIP3   OH241332   1.507   3.342   0.185 -0.3125 -0.0694  0.3754
 6614TIP3    H141333   1.587   3.296   0.212 -0.5564  0.0254  1.3182
 6614TIP3    H241334   1.535   3.404   0.118  0.3084 -0.4120  0.3131
 6615TIP3   OH241335   5.771   0.572   5.143 -0.3354 -0.7859  0.3509
 6615TIP3    H141336   5.727   0.488   5.129  0.8368 -1.6304  1.4804
 6615TIP3    H241337   5.862   0.549   5.163 -0.5025  0.5491  3.1019
 6616TIP3   OH241338   4.667   4.756  11.453  0.5612  0.4319 -0.3187
 6616TIP3    H141339   4.722   4.678  11.447 -0.1040 -0.0675  0.0047
 6616TIP3    H241340   4.725   4.828  11.427  1.3142 -0.1055 -0.1625
 6617TIP3   OH241341   4.004   1.173   3.241  0.2772  0.3696  0.6723
 6617TIP3    H141342   4.030   1.123   3.318 -1.1360  1.7310  2.1180
 6617TIP3    H241343   3.908   1.170   3.241  0.0274  3.7474  1.4430
 6618TIP3   OH241344   6.337   2.171  16.896  0.0257 -0.2658 -0.4461
 6618TIP3    H141345   6.381   2.208  16.819  1.1811  0.2705  0.4362
 6618TIP3    H241346   6.339   2.241  16.961  0.3429 -1.1737  0.5444
 6619TIP3   OH241347   1.622   3.559  16.573  0.4101 -0.0906 -0.0942
 6619TIP3    H141348   1.647   3.486  16.629  0.5518 -1.8333 -2.2682
 6619TIP3    H241349   1.564   3.519  16.507  0.6341  1.7231 -1.4489
 6620TIP3   OH241350   1.026   5.444   3.757 -0.5642  0.3540  0.1714
 6620TIP3    H141351   0.966   5.410   3.691  1.8263 -2.8153 -0.6095
 6620TIP3    H241352   1.095   5.489   3.707 -0.0017  0.0847  0.6892
 6621TIP3   OH241353   4.542   4.112   4.614  0.2624  0.1491 -0.7538
 6621TIP3    H141354   4.453   4.104   4.581 -0.6337 -0.9959  1.7264
 6621TIP3    H241355   4.592   4.045   4.566 -0.2254  0.6386 -1.9784
 6622TIP3   OH241356   1.897   6.437   1.960  0.3266 -0.1746 -0.6429
 6622TIP3    H141357   1.984   6.468   1.985  0.0923  0.2273 -0.3111
 6622TIP3    H241358   1.857   6.511   1.914  0.1521 -0.3510 -0.7793
 6623TIP3   OH241359   5.806   4.997  16.855  0.6454  0.6188 -0.0727
 6623TIP3    H141360   5.720   5.036  16.844  0.0050 -0.9701 -1.0956
 6623TIP3    H241361   5.811   4.930  16.787  2.0757 -0.3676  0.9372
 6624TIP3   OH241362   0.436   0.410   1.993 -0.0833  0.4351 -0.5299
 6624TIP3    H141363   0.384   0.436   1.917 -2.3638 -0.1018  0.7326
 6624TIP3    H241364   0.373   0.409   2.065  1.2776 -2.1200  0.7651
 6625TIP3   OH241365   1.462   5.294  11.987  0.5699  0.2255 -0.4802
 6625TIP3    H141366   1.440   5.277  12.079  1.6974  0.4196 -0.1584
 6625TIP3    H241367   1.502   5.213  11.957  0.9532  0.4409 -0.5564
 6626TIP3   OH241368   0.458   2.260  16.863 -0.4982 -0.0057  0.3142
 6626TIP3    H141369   0.382   2.227  16.814 -0.6852  1.9948 -0.8674
 6626TIP3    H241370   0.502   2.319  16.801  1.3233 -0.1579  1.4001
 6627TIP3   OH241371   6.538   1.098  15.383 -0.1253 -0.2834  0.1864
 6627TIP3    H141372   6.570   1.068  15.467  1.7543  0.5931 -0.1609
 6627TIP3    H241373   6.587   1.179  15.366 -0.4195 -0.4657 -1.7651
 6628TIP3   OH241374   0.424   0.203  11.565 -0.1019 -0.2792 -0.1056
 6628TIP3    H141375   0.388   0.212  11.653  1.0704 -0.5312  0.4125
 6628TIP3    H241376   0.382   0.274  11.515  0.6275  1.0890  1.1337
 6629TIP3   OH241377   5.326   0.407   1.800 -0.1446 -0.0773  0.1185
 6629TIP3    H141378   5.259   0.341   1.817 -0.5400 -0.0456 -1.1650
 6629TIP3    H241379   5.284   0.490   1.821  0.4340 -0.2048  1.9733
 6630TIP3   OH241380   3.661   0.257   4.174 -0.0252  0.1764 -0.7338
 6630TIP3    H141381   3.749   0.229   4.147  0.0053  0.4473 -0.9172
 6630TIP3    H241382   3.672   0.348   4.201 -0.4750  0.5962 -1.9005
 6631TIP3   OH241383   1.383   4.608  12.788  0.9879  0.0861 -0.0671
 6631TIP3    H141384   1.296   4.604  12.748  1.0403  1.8143 -0.4310
 6631TIP3    H241385   1.367   4.630  12.879  1.0564  1.5024 -0.3769
 6632TIP3   OH241386   4.147   4.309  12.557 -0.0708 -0.3140 -0.8066
 6632TIP3    H141387   4.221   4.353  12.516  0.2507 -0.4886 -0.4271
 6632TIP3    H241388   4.161   4.216  12.540  0.0657 -0.3886 -0.3116
 6633TIP3   OH241389   0.718   3.718   5.462 -0.0592 -0.3915 -0.0875
 6633TIP3    H141390   0.704   3.810   5.482  0.9998 -0.3008  0.2548
 6633TIP3    H241391   0.798   3.694   5.509  1.5314 -0.6347 -2.7163
 6634TIP3   OH241392   2.495   6.696   0.799  0.8326 -0.3346 -0.0315
 6634TIP3    H141393   2.558   6.768   0.803  0.9935 -0.2375 -2.8374
 6634TIP3    H241394   2.544   6.622   0.763  0.2682 -1.4531  1.3648
 6635TIP3   OH241395   0.862   2.038  11.042 -0.1420 -0.3229 -0.0920
 6635TIP3    H141396   0.821   1.962  11.084  3.4341 -1.1668  2.3665
 6635TIP3    H241397   0.912   2.001  10.969  0.6404 -0.2103  0.3713
 6636TIP3   OH241398   1.608   5.951  11.517 -0.3535  0.0058 -0.4846
 6636TIP3    H141399   1.574   5.887  11.580 -0.7175  0.5372 -0.1352
 6636TIP3    H241400   1.536   5.965  11.456 -1.0289  1.5651  0.5848
 6637TIP3   OH241401   5.303   6.804   2.790  0.0290  0.2756  0.1582
 6637TIP3    H141402   5.385   6.795   2.837 -0.1694 -0.5891  0.3465
 6637TIP3    H241403   5.313   6.749   2.713 -0.4004  0.1018  0.2236
 6638TIP3   OH241404   0.879   4.834  13.874  0.0477  0.0815 -0.1980
 6638TIP3    H141405   0.949   4.899  13.886  0.8257 -0.8355  0.3767
 6638TIP3    H241406   0.926   4.752  13.859 -0.8509 -0.9317  2.0838
 6639TIP3   OH241407   3.185   5.004  13.999  0.2190 -0.4611 -0.3688
 6639TIP3    H141408   3.193   4.910  13.984 -2.8406 -1.0557  0.9348
 6639TIP3    H241409   3.229   5.019  14.082 -0.6849 -1.0998  0.2441
 6640TIP3   OH241410   0.573   3.432  11.230 -0.2325 -0.3923  0.3545
 6640TIP3    H141411   0.611   3.344  11.228 -0.7495 -0.6267  0.4733
 6640TIP3    H241412   0.643   3.488  11.261  0.6293 -0.4902 -1.3466
 6641TIP3   OH241413   0.576   1.886  12.785 -0.0656 -0.4492  0.4691
 6641TIP3    H141414   0.561   1.969  12.830 -1.8091  0.0022 -0.8390
 6641TIP3    H241415   0.651   1.904  12.728  0.1428 -0.0611  0.8567
 6642TIP3   OH241416   3.474   2.267   2.112  0.1578  0.3340 -0.4633
 6642TIP3    H141417   3.419   2.231   2.182  0.5886  0.8599  0.1547
 6642TIP3    H241418   3.412   2.310   2.053 -0.4361 -1.7980 -1.5030
 6643TIP3   OH241419   2.901   0.609  14.068 -0.5125  0.6363 -0.8540
 6643TIP3    H141420   2.907   0.637  14.160  0.8155 -0.0362 -0.7149
 6643TIP3    H241421   2.929   0.518  14.069 -0.3021  0.6802 -1.9663
 6644TIP3   OH241422   2.285   1.207   2.563 -0.2879 -0.1419 -0.3911
 6644TIP3    H141423   2.308   1.279   2.623  0.7119 -1.1597  0.4881
 6644TIP3    H241424   2.229   1.249   2.497 -1.0172  1.1221  0.9488
 6645TIP3   OH241425   5.294   0.174  11.149  0.2750 -0.0865 -0.2071
 6645TIP3    H141426   5.268   0.142  11.062 -1.3646 -0.2111  0.2856
 6645TIP3    H241427   5.229   0.136  11.208  0.6426  0.9866  0.9184
 6646TIP3   OH241428   0.485   4.026  12.092  0.1196 -0.6286 -0.5506
 6646TIP3    H141429   0.486   3.935  12.122  2.3808 -0.5843 -0.2547
 6646TIP3    H241430   0.505   4.077  12.170  0.0855 -0.0027 -0.9473
 6647TIP3   OH241431   0.674   0.434   5.522 -0.3930  0.0270 -0.2457
 6647TIP3    H141432   0.680   0.339   5.530  1.4954  0.0627 -0.7288
 6647TIP3    H241433   0.743   0.468   5.579  0.1878  1.0026 -1.4656
 6648TIP3   OH241434   1.147   5.529   5.843  0.1831  0.2489 -0.2769
 6648TIP3    H141435   1.091   5.451   5.845  2.6578 -1.6531  1.8779
 6648TIP3    H241436   1.158   5.553   5.934  0.1683  2.6877 -0.8642
 6649TIP3   OH241437   5.383   6.470   5.918  0.3075 -0.1490 -0.2928
 6649TIP3    H141438   5.290   6.477   5.937  0.2864 -1.4049  0.2173
 6649TIP3    H241439   5.425   6.534   5.977 -0.1049 -0.9237  0.8782
 6650TIP3   OH241440   3.833   6.238  15.934 -0.0378  0.4044 -0.5224
 6650TIP3    H141441   3.771   6.203  15.997  0.5584 -0.8999 -0.6398
 6650TIP3    H241442   3.914   6.251  15.984  0.1930  0.1442 -0.8200
 6651TIP3   OH241443   5.244   2.525   4.828 -0.1014 -0.2044  0.1440
 6651TIP3    H141444   5.162   2.501   4.871 -1.7251  0.9159 -2.1076
 6651TIP3    H241445   5.267   2.610   4.865 -0.0842 -0.4010  0.5912
 6652TIP3   OH241446   2.734   3.764  15.218  0.7466  0.2164  0.0884
 6652TIP3    H141447   2.772   3.680  15.244  1.1402  0.8157  1.5519
 6652TIP3    H241448   2.809   3.818  15.193  0.5483  0.3289 -0.2663
 6653TIP3   OH241449   2.243   0.092   1.464 -0.2505 -0.4511  0.1441
 6653TIP3    H141450   2.150   0.108   1.485 -0.5159 -0.8199 -0.7218
 6653TIP3    H241451   2.262   0.008   1.506 -0.1931 -0.1959  0.6430
 6654TIP3   OH241452   3.065   3.794   6.193  0.6911 -0.3447 -0.3096
 6654TIP3    H141453   3.052   3.869   6.135 -0.9937 -0.1656  0.2364
 6654TIP3    H241454   2.993   3.735   6.173  1.1403 -1.1347  0.3104
 6655TIP3   OH241455   5.510   5.060  14.590 -0.1883 -0.2787  0.5026
 6655TIP3    H141456   5.518   4.995  14.659  0.5303 -1.8771 -1.0070
 6655TIP3    H241457   5.588   5.114  14.599  0.2063 -0.8557  0.5767
 6656TIP3   OH241458   6.214   0.931   4.258 -0.0438 -0.1616 -0.0546
 6656TIP3    H141459   6.176   0.958   4.341 -1.5563  0.5504 -0.9312
 6656TIP3    H241460   6.170   0.986   4.193  1.3798 -0.4308 -1.2898
 6657TIP3   OH241461   2.959   2.042   3.898 -0.2169  0.0240  0.1276
 6657TIP3    H141462   2.910   1.967   3.931 -0.0100  0.2306  0.9185
 6657TIP3    H241463   2.963   2.028   3.803 -1.1776 -0.3595  0.1350
 6658TIP3   OH241464   5.097   3.695  12.525 -0.8692 -0.5295 -0.1381
 6658TIP3    H141465   5.160   3.673  12.593 -0.6143 -1.0235 -0.5276
 6658TIP3    H241466   5.137   3.768  12.478 -0.6352 -0.7568 -0.3015
 6659TIP3   OH241467   5.909   2.828   2.344 -0.0744  0.1923  0.2294
 6659TIP3    H141468   6.003   2.839   2.329 -0.3515 -0.2753 -2.4008
 6659TIP3    H241469   5.903   2.760   2.410  1.4246  0.3285  0.5553
 6660TIP3   OH241470   4.491   2.774   2.162 -0.2823 -0.0581  0.2653
 6660TIP3    H141471   4.464   2.819   2.082  0.1380  0.9401  0.6627
 6660TIP3    H241472   4.564   2.717   2.134  1.2079  1.7618  0.2463
 6661TIP3   OH241473   2.571   4.395  14.857 -0.3971  0.1193  0.0657
 6661TIP3    H141474   2.629   4.470  14.848 -0.0663 -0.2066 -0.5497
 6661TIP3    H241475   2.629   4.320  14.866 -0.6903  0.0744  2.3318
 6662TIP3   OH241476   2.113   1.602  12.031  0.5261  0.0217 -0.1862
 6662TIP3    H141477   2.034   1.640  12.069  0.1027 -1.1533  0.1509
 6662TIP3    H241478   2.172   1.676  12.020  0.5987  0.4786  2.5390
 6663TIP3   OH241479   0.703   5.370  10.552 -0.6131  0.1453 -0.3294
 6663TIP3    H141480   0.750   5.288  10.532 -1.5523 -0.3561 -0.5452
 6663TIP3    H241481   0.611   5.349  10.536 -0.8232  1.3953 -0.8721
 6664TIP3   OH241482   0.853   5.113  10.536 -0.0366  0.8193 -0.3549
 6664TIP3    H141483   0.828   5.048  10.471 -0.8912  1.0296 -0.2537
 6664TIP3    H241484   0.918   5.069  10.591 -0.4818  0.1009 -0.3904
 6665TIP3   OH241485   4.267   5.079   5.873 -0.3555 -0.5660  0.0975
 6665TIP3    H141486   4.209   5.011   5.907 -1.3138  1.0144  1.8573
 6665TIP3    H241487   4.222   5.113   5.796  0.5623 -2.4413 -1.3321
 6666TIP3   OH241488   2.616   2.545  14.454 -0.0231 -0.0041 -0.2669
 6666TIP3    H141489   2.568   2.466  14.479 -0.1246 -0.0264 -0.5299
 6666TIP3    H241490   2.611   2.547  14.358  0.0432  0.2802 -0.2657
 6667TIP3   OH241491   4.476   5.202   3.751 -0.4185 -0.3641  0.0216
 6667TIP3    H141492   4.541   5.161   3.694 -2.0057 -1.2318 -1.2230
 6667TIP3    H241493   4.511   5.290   3.767  0.8539 -0.6668 -0.9424
 6668TIP3   OH241494   1.122   5.446  11.651  1.2306 -0.0205  0.3204
 6668TIP3    H141495   1.132   5.542  11.652 -1.3906  0.3522  2.5594
 6668TIP3    H241496   1.149   5.419  11.739 -0.9655 -0.8767  0.7861
 6669TIP3   OH241497   5.703   3.812   4.669  0.0922  0.2351 -0.2062
 6669TIP3    H141498   5.702   3.786   4.762 -1.8049  0.7759 -0.0307
 6669TIP3    H241499   5.614   3.797   4.639  0.6486  0.1890 -1.9383
 6670TIP3   OH241500   1.513   5.746  15.564 -0.7887  0.4656 -0.0893
 6670TIP3    H141501   1.560   5.690  15.627  4.1924  2.5578 -1.4546
 6670TIP3    H241502   1.515   5.833  15.604 -0.1041  1.3055 -1.8717
 6671TIP3   OH241503   5.216   4.342   3.625  0.5714  0.3602  0.5962
 6671TIP3    H141504   5.178   4.430   3.636 -1.2277 -0.2225 -0.5635
 6671TIP3    H241505   5.144   4.282   3.646  0.3464 -0.7847 -2.8205
 6672TIP3   OH241506   0.191   6.527  14.959  0.3424  0.5781 -0.1642
 6672TIP3    H141507   0.258   6.554  15.022  0.5295  1.2178 -0.6229
 6672TIP3    H241508   0.116   6.583  14.979  0.2580  0.4941 -0.2474
 6673TIP3   OH241509   1.400   5.722  15.221  0.1266  0.5474  0.0952
 6673TIP3    H141510   1.426   5.660  15.289  0.7331  1.5693  0.8136
 6673TIP3    H241511   1.475   5.726  15.162  0.1317  0.7025  0.1138
 6674TIP3   OH241512   1.005   6.626   4.522  0.3376  0.4033  0.3055
 6674TIP3    H141513   1.047   6.712   4.532 -1.4475  1.2563  0.9203
 6674TIP3    H241514   1.024   6.601   4.431  0.5879  1.6331 -0.0092
 6675TIP3   OH241515   5.721   3.405  11.839 -0.0234  0.3271  0.7975
 6675TIP3    H141516   5.653   3.350  11.878 -1.2732  0.3018 -1.2606
 6675TIP3    H241517   5.696   3.494  11.863  0.5440  0.1860  1.9647
 6676TIP3   OH241518   1.172   4.679   4.487 -0.1269  0.2481  0.2117
 6676TIP3    H141519   1.236   4.750   4.487 -1.1323  1.2071 -0.8676
 6676TIP3    H241520   1.161   4.656   4.579  0.0586  1.6436  0.5942
 6677TIP3   OH241521   6.785   3.298   2.320 -0.0165  0.2596 -0.4960
 6677TIP3    H141522   6.843   3.304   2.395 -0.8458  0.9219  0.1202
 6677TIP3    H241523   6.842   3.276   2.247  0.5818 -2.2263  0.6154
 6678TIP3   OH241524   2.058   3.092  14.215 -0.1131 -0.5139  0.4587
 6678TIP3    H141525   2.152   3.108  14.216 -0.1851  0.1666 -0.8901
 6678TIP3    H241526   2.037   3.065  14.304  1.5505 -1.8680  0.4869
 6679TIP3   OH241527   6.500   1.040  15.047  0.3466 -0.0862  0.0498
 6679TIP3    H141528   6.525   0.950  15.026  0.2986 -0.7323  2.5386
 6679TIP3    H241529   6.513   1.048  15.141 -0.6515  2.2108  0.0610
 6680TIP3   OH241530   1.813   4.408  14.967 -0.5917 -0.1330 -0.1757
 6680TIP3    H141531   1.753   4.350  14.922 -0.1770 -1.0928  0.4855
 6680TIP3    H241532   1.827   4.481  14.905 -3.2317  0.6844  0.0616
 6681TIP3   OH241533   0.339   2.467  13.231  0.3200  0.1200  0.3480
 6681TIP3    H141534   0.299   2.431  13.310 -0.5804  0.9997  0.3039
 6681TIP3    H241535   0.397   2.536  13.262  0.0412  0.3994  0.2504
 6682TIP3   OH241536   3.483   4.382   1.625 -0.1608  0.4739  0.0178
 6682TIP3    H141537   3.408   4.438   1.644 -1.4543 -0.4445 -2.0249
 6682TIP3    H241538   3.541   4.437   1.572 -1.5875 -0.0865 -2.2844
 6683TIP3   OH241539   0.712   4.069   4.411  0.1998  0.5616 -0.4912
 6683TIP3    H141540   0.755   4.107   4.488 -1.5058 -0.0530  0.8426
 6683TIP3    H241541   0.619   4.089   4.424 -0.1345  0.3734 -2.3842
 6684TIP3   OH241542   5.175   2.015  14.160 -0.2808 -0.6702 -0.0684
 6684TIP3    H141543   5.106   2.075  14.190 -0.1930 -0.0700 -1.0393
 6684TIP3    H241544   5.129   1.950  14.107 -0.1554 -0.4876 -0.4040
 6685TIP3   OH241545   0.966   2.103   5.420  0.1241  0.1824 -0.1583
 6685TIP3    H141546   0.870   2.108   5.423  0.1408  0.2351  0.7673
 6685TIP3    H241547   0.995   2.185   5.458  0.5540  0.4661 -1.0803
 6686TIP3   OH241548   0.329   0.938   0.264  0.5118 -0.0219  0.8050
 6686TIP3    H141549   0.377   0.859   0.286 -0.2821 -0.7302  0.0703
 6686TIP3    H241550   0.359   0.960   0.176  0.0315 -0.0593  0.6289
 6687TIP3   OH241551   0.571   0.742   2.041  0.4200  0.3153  0.3742
 6687TIP3    H141552   0.504   0.791   1.994  0.0185 -1.2750 -0.8128
 6687TIP3    H241553   0.565   0.773   2.131 -0.2078  1.9675 -0.1917
 6688TIP3   OH241554   1.307   1.998   2.531 -0.3461  0.4037  0.5038
 6688TIP3    H141555   1.378   1.947   2.491 -1.9091 -1.2302 -0.2883
 6688TIP3    H241556   1.227   1.951   2.507 -2.2089  4.4598 -2.4153
 6689TIP3   OH241557   3.939   1.641  15.605  0.4002  0.3121  0.0380
 6689TIP3    H141558   4.011   1.650  15.543 -0.2164 -0.2395 -0.7813
 6689TIP3    H241559   3.883   1.717  15.589  0.1738  0.1026 -0.1862
 6690TIP3   OH241560   4.224   2.043   1.493  0.0197 -0.0199  1.0045
 6690TIP3    H141561   4.185   2.009   1.574 -1.0030  0.7538  0.8568
 6690TIP3    H241562   4.257   1.965   1.448 -1.7260 -0.7905  0.9576
 6691TIP3   OH241563   5.574   4.514  16.690 -0.4661  0.2917 -0.2117
 6691TIP3    H141564   5.580   4.419  16.680  0.8388  0.4112 -0.7240
 6691TIP3    H241565   5.549   4.526  16.782 -1.4979 -0.5582 -0.3649
 6692TIP3   OH241566   4.907   4.638  11.030 -0.0773  0.4430 -0.1762
 6692TIP3    H141567   4.853   4.679  10.962  1.2098  1.4288 -0.6408
 6692TIP3    H241568   4.908   4.545  11.008 -2.2280  0.2562  0.3046
 6693TIP3   OH241569   6.021   5.640  12.487  0.7192 -0.2870  0.2128
 6693TIP3    H141570   6.032   5.651  12.581  0.9073 -0.3355  0.1955
 6693TIP3    H241571   6.095   5.586  12.460  0.9027  0.0900 -0.0350
 6694TIP3   OH241572   2.224   2.662   0.619  0.4858  0.3065 -0.0231
 6694TIP3    H141573   2.218   2.752   0.652 -2.3265  0.5875 -1.0587
 6694TIP3    H241574   2.212   2.608   0.697 -2.5363  0.9339  0.0655
 6695TIP3   OH241575   0.179   0.547  12.305 -0.5016  0.2755 -0.4969
 6695TIP3    H141576   0.126   0.480  12.261  1.3037 -0.2233 -2.0299
 6695TIP3    H241577   0.267   0.536  12.268  0.7572  0.9449  2.0587
 6696TIP3   OH241578   2.638   3.953   6.447 -0.3558 -0.2509  0.0472
 6696TIP3    H141579   2.588   4.007   6.386 -1.2284 -1.2110 -0.1165
 6696TIP3    H241580   2.586   3.953   6.528  0.4616  0.4698  0.5990
 6697TIP3   OH241581   0.860   6.595  12.123  0.0385  0.0364 -0.8015
 6697TIP3    H141582   0.938   6.601  12.067  0.7011 -0.3975  0.0452
 6697TIP3    H241583   0.802   6.535  12.076  1.4651 -2.0499 -0.0927
 6698TIP3   OH241584   5.781   1.324   0.493  0.3377  0.9271  0.1826
 6698TIP3    H141585   5.708   1.355   0.439  2.0812  1.0874 -2.2222
 6698TIP3    H241586   5.843   1.287   0.431  2.6611  1.4700  2.0511
 6699TIP3   OH241587   4.085   5.598   4.283  0.2855 -0.1097 -0.9337
 6699TIP3    H141588   4.007   5.608   4.338  0.5669 -0.7749 -0.3923
 6699TIP3    H241589   4.141   5.671   4.309 -0.4660  0.8266 -1.8829
 6700TIP3   OH241590   0.148   6.003   1.232 -0.1693  0.0836  0.5147
 6700TIP3    H141591   0.140   6.084   1.180  0.3887  0.9819  1.7802
 6700TIP3    H241592   0.078   6.009   1.296  2.1675  1.5756  3.1618
 6701TIP3   OH241593   2.049   6.365   2.460 -0.1494 -0.0253  0.1202
 6701TIP3    H141594   1.981   6.316   2.414 -0.0136  0.3914 -0.5405
 6701TIP3    H241595   2.050   6.328   2.548  1.0070 -2.3117 -0.7538
 6702TIP3   OH241596   6.161   3.072  11.695  0.1583 -0.3429 -0.0197
 6702TIP3    H141597   6.080   3.117  11.718  1.7849  1.8363  2.0113
 6702TIP3    H241598   6.199   3.047  11.779  2.2205 -0.0465 -0.8068
 6703TIP3   OH241599   0.867   5.349   0.688 -0.2529  0.5766 -0.2004
 6703TIP3    H141600   0.832   5.264   0.660  0.5281 -0.0750  0.7023
 6703TIP3    H241601   0.915   5.381   0.613  1.2204 -0.8000  0.0987
 6704TIP3   OH241602   3.012   6.148   2.237  0.0190 -0.3345  0.0182
 6704TIP3    H141603   2.959   6.150   2.157  0.4459  1.3122 -0.2598
 6704TIP3    H241604   2.979   6.221   2.290  0.5394 -0.6643  0.8176
 6705TIP3   OH241605   0.977   1.020   3.942 -0.5217  0.5466 -0.4590
 6705TIP3    H141606   0.892   1.063   3.935 -0.3368  1.4463  1.7966
 6705TIP3    H241607   1.039   1.081   3.902 -0.7586  0.5117 -0.8827
 6706TIP3   OH241608   0.005   2.990  11.092 -0.1335  0.0007 -0.5762
 6706TIP3    H141609   0.022   3.054  11.161  0.3648  1.9310 -2.4003
 6706TIP3    H241610  -0.070   3.025  11.045 -1.6769 -2.2534  0.0489
 6707TIP3   OH241611   3.450   2.521   0.037 -0.0378 -0.4348  0.0946
 6707TIP3    H141612   3.443   2.602   0.087  2.2752  0.2598 -0.5688
 6707TIP3    H241613   3.517   2.471   0.083 -2.1212 -2.5071  1.0787
 6708TIP3   OH241614   0.543   6.497   1.018 -0.0081  0.0165 -0.1528
 6708TIP3    H141615   0.511   6.414   0.983 -0.1218  0.3753 -0.9082
 6708TIP3    H241616   0.598   6.472   1.093  0.0901 -0.7448 -0.4717
 6709TIP3   OH241617   3.512   2.359  12.283  0.2795 -0.0664 -0.0534
 6709TIP3    H141618   3.514   2.263  12.273  0.1147  0.0169 -0.9909
 6709TIP3    H241619   3.490   2.391  12.196 -1.2484  0.7654  0.6017
 6710TIP3   OH241620   2.561   1.894  15.247 -0.5252  0.3972  0.2429
 6710TIP3    H141621   2.546   1.826  15.312 -0.3411  0.8480  0.7667
 6710TIP3    H241622   2.515   1.971  15.281  2.1189  1.5728  1.4648
 6711TIP3   OH241623   4.112   2.829  16.269  0.2523 -0.1399  0.1061
 6711TIP3    H141624   4.092   2.735  16.272  0.8574 -0.2552  0.7618
 6711TIP3    H241625   4.039   2.867  16.220 -0.5472 -0.8197  0.7190
 6712TIP3   OH241626   4.038   3.729  14.403  0.2053  0.1776 -0.7391
 6712TIP3    H141627   4.088   3.733  14.321 -0.1818 -1.3508 -1.0800
 6712TIP3    H241628   4.067   3.806  14.452  0.6409  0.9791 -2.1918
 6713TIP3   OH241629   3.681   0.526  12.899  0.2840  0.5029  0.5319
 6713TIP3    H141630   3.771   0.493  12.898  0.6197  1.3665  0.2606
 6713TIP3    H241631   3.658   0.533  12.991  0.1874 -0.5074  0.5886
 6714TIP3   OH241632   0.491   5.104   0.874 -0.1594 -0.2443 -0.9908
 6714TIP3    H141633   0.542   5.137   0.948 -1.6346 -0.8715  0.3833
 6714TIP3    H241634   0.545   5.034   0.837  0.4498 -0.1759 -0.2551
 6715TIP3   OH241635   2.319   1.164  14.837 -0.1020  0.3014  0.0387
 6715TIP3    H141636   2.232   1.162  14.876  0.5953 -0.2296  1.6593
 6715TIP3    H241637   2.365   1.232  14.885  1.2489 -1.3926  1.2655
 6716TIP3   OH241638   5.496   2.031  13.390 -0.0867  0.1944  0.3196
 6716TIP3    H141639   5.564   1.977  13.351 -1.2191 -0.6937 -0.5132
 6716TIP3    H241640   5.530   2.055  13.476  2.5742  2.3963 -1.2005
 6717TIP3   OH241641   0.062   6.290  12.386 -0.2107 -0.3061 -0.7374
 6717TIP3    H141642   0.092   6.200  12.395 -0.0240 -0.3957 -2.0196
 6717TIP3    H241643   0.088   6.333  12.467 -2.9795 -2.1015  1.2913
 6718TIP3   OH241644   0.610   5.997   0.094  0.4286  0.4645 -0.1667
 6718TIP3    H141645   0.553   6.030   0.164  0.5815 -0.3222  0.3426
 6718TIP3    H241646   0.679   6.063   0.086  0.5009  0.4876  0.5534
 6719TIP3   OH241647   1.162   1.528   5.282  0.1180  0.1292  0.4808
 6719TIP3    H141648   1.201   1.582   5.213  2.2635 -0.0038  1.5007
 6719TIP3    H241649   1.075   1.566   5.297  0.8912  2.2186 -0.0136
 6720TIP3   OH241650   5.834   4.166   2.142  0.6128 -0.5248  0.1784
 6720TIP3    H141651   5.797   4.079   2.155  2.9939 -1.7389 -0.7218
 6720TIP3    H241652   5.881   4.160   2.059  0.0513  1.9221 -0.3892
 6721TIP3   OH241653   3.475   5.161   4.879  0.7546  0.2209 -0.2841
 6721TIP3    H141654   3.524   5.082   4.858  0.2379 -0.8453  2.1971
 6721TIP3    H241655   3.405   5.131   4.937 -0.6595  2.2325 -0.8285
 6722TIP3   OH241656   4.351   3.819   2.716 -0.1379  0.2496 -0.1844
 6722TIP3    H141657   4.401   3.901   2.728  0.4276 -0.0781 -0.2565
 6722TIP3    H241658   4.372   3.792   2.627 -0.5057  0.1429 -0.2368
 6723TIP3   OH241659   6.568   4.078   5.458  0.1227 -0.2071  0.3022
 6723TIP3    H141660   6.561   4.161   5.504 -1.9248  0.2032 -0.6663
 6723TIP3    H241661   6.503   4.021   5.499  0.0846 -0.6778 -0.3870
 6724TIP3   OH241662   4.695   1.476   5.419 -0.5196  0.0435  0.1265
 6724TIP3    H141663   4.681   1.569   5.404 -0.6892 -0.2548 -1.8615
 6724TIP3    H241664   4.746   1.472   5.500 -0.1558  1.8771  0.0309
 6725TIP3   OH241665   5.433   4.771  12.591  0.0547  0.2287 -0.1186
 6725TIP3    H141666   5.346   4.740  12.614  0.1895  0.2607  0.4583
 6725TIP3    H241667   5.492   4.705  12.626  0.2656  0.2516 -0.4308
 6726TIP3   OH241668   1.246   4.626   3.000  0.4808 -0.1116 -0.2363
 6726TIP3    H141669   1.177   4.649   2.938  0.4307  1.5892  0.3718
 6726TIP3    H241670   1.326   4.625   2.949  0.3402  0.5622 -0.4853
 6727TIP3   OH241671   2.267   6.723  16.351  0.1815  0.3269 -0.0924
 6727TIP3    H141672   2.259   6.649  16.412  0.9852  1.4232  1.4136
 6727TIP3    H241673   2.179   6.760  16.347  0.0699  0.1050  0.2223
 6728TIP3   OH241674   3.066   4.052   5.040  0.0434  0.4328  0.8369
 6728TIP3    H141675   3.011   4.073   4.965 -0.5221  1.8678  1.6224
 6728TIP3    H241676   3.005   4.022   5.108  0.3986  0.5041  1.1918
 6729TIP3   OH241677   2.374   3.212   1.978 -0.1383 -0.2986  0.5081
 6729TIP3    H141678   2.340   3.291   2.022  0.6868  0.2747  0.1361
 6729TIP3    H241679   2.462   3.236   1.951 -0.3584 -0.9093 -0.7928
 6730TIP3   OH241680   5.559   2.990   4.972  0.0568 -0.2285  0.1645
 6730TIP3    H141681   5.590   3.079   4.982 -0.1664 -0.2061  0.7204
 6730TIP3    H241682   5.561   2.973   4.877  0.2738  0.2964  0.0764
 6731TIP3   OH241683   1.724   0.090   0.480  0.6057 -0.2305  0.4644
 6731TIP3    H141684   1.687   0.148   0.547 -0.5087 -0.0391 -0.2713
 6731TIP3    H241685   1.669   0.012   0.483 -0.5271  0.4387 -1.2869
 6732TIP3   OH241686   5.124   6.706  13.184  0.3985  0.1540  0.2955
 6732TIP3    H141687   5.077   6.684  13.103  0.0496 -2.5947  1.1330
 6732TIP3    H241688   5.054   6.722  13.247  0.5568 -1.4023  0.9104
 6733TIP3   OH241689   1.657   0.028   5.626  0.3651  0.2364 -0.3351
 6733TIP3    H141690   1.656  -0.059   5.666  0.2782  0.9191  1.2123
 6733TIP3    H241691   1.748   0.039   5.596  0.3390 -0.4392 -0.6804
 6734TIP3   OH241692   6.375   5.456   5.356  0.0727  0.5874 -0.1635
 6734TIP3    H141693   6.314   5.527   5.376  0.8186  0.7281  1.8595
 6734TIP3    H241694   6.341   5.381   5.404 -0.8794 -0.6039 -2.5220
 6735TIP3   OH241695   1.082   1.496  10.418 -0.0802  0.0437 -0.0711
 6735TIP3    H141696   1.129   1.451  10.488  1.8986  0.5840 -1.0063
 6735TIP3    H241697   1.108   1.587  10.425 -2.3103  0.7021  0.3939
 6736TIP3   OH241698   2.768   1.587  13.180 -0.2377  0.0809  0.3990
 6736TIP3    H141699   2.738   1.677  13.168  1.2319  0.5672  0.0861
 6736TIP3    H241700   2.689   1.537  13.197 -1.1402  1.3506  0.0887
 6737TIP3   OH241701   5.317   4.230  15.247  0.4783 -0.6258 -0.9241
 6737TIP3    H141702   5.333   4.306  15.302 -0.2027 -0.8726 -0.3649
 6737TIP3    H241703   5.226   4.206  15.265 -0.0305 -0.2465 -2.7421
 6738TIP3   OH241704   0.130   2.635  16.560  0.3893  0.5793  0.1444
 6738TIP3    H141705   0.152   2.681  16.641 -0.7548  0.0073  0.7914
 6738TIP3    H241706   0.035   2.636  16.556  0.3834 -0.6111 -0.4919
 6739TIP3   OH241707   4.558   1.874  16.518 -0.3971  0.1328  0.4020
 6739TIP3    H141708   4.650   1.896  16.532 -0.0822 -0.4797 -0.6054
 6739TIP3    H241709   4.512   1.958  16.523  0.3095  0.5401  0.1511
 6740TIP3   OH241710   0.610   4.881   3.352  0.1428  0.3250 -0.4500
 6740TIP3    H141711   0.604   4.810   3.288  1.0714  0.1586 -0.3717
 6740TIP3    H241712   0.576   4.958   3.307 -1.5449 -0.3047 -0.2982
 6741TIP3   OH241713   1.809   3.608  13.108 -1.1146  0.3882 -0.5324
 6741TIP3    H141714   1.882   3.670  13.109 -1.2946  0.5986  0.6249
 6741TIP3    H241715   1.766   3.624  13.024  0.6930 -0.3915 -1.6712
 6742TIP3   OH241716   6.837   0.658  12.641 -0.5028 -0.9156  0.0800
 6742TIP3    H141717   6.780   0.597  12.593 -0.5781 -0.5327 -0.3208
 6742TIP3    H241718   6.816   0.744  12.605 -1.2501 -0.4824  1.4382
 6743TIP3   OH241719   6.400   0.098   1.031  0.4946 -0.3567 -0.1344
 6743TIP3    H141720   6.393   0.053   1.115  1.7154  0.4377  0.4203
 6743TIP3    H241721   6.309   0.108   1.002  0.1123 -1.6374  0.5269
 6744TIP3   OH241722   1.561   6.744  16.163  0.8817 -0.0344  1.1774
 6744TIP3    H141723   1.631   6.722  16.101 -0.6600  0.5945 -0.8766
 6744TIP3    H241724   1.537   6.833  16.141 -1.9436 -0.8916  0.4032
 6745TIP3   OH241725   6.434   4.546  12.620  0.4925 -0.4814  0.0400
 6745TIP3    H141726   6.417   4.614  12.556  0.2363 -0.9638 -0.4142
 6745TIP3    H241727   6.520   4.568  12.657  0.7663 -0.3573 -0.6694
 6746TIP3   OH241728   5.644   4.344   1.135  0.2471  0.6053  0.0099
 6746TIP3    H141729   5.635   4.264   1.187 -0.2719  0.0726 -0.8847
 6746TIP3    H241730   5.683   4.408   1.195 -0.9748  0.2131  1.2615
 6747TIP3   OH241731   3.956   3.049   1.851 -0.2453  1.4931  0.7127
 6747TIP3    H141732   3.889   2.984   1.828  0.8842  0.6990 -0.4081
 6747TIP3    H241733   3.998   3.012   1.929 -0.6884  1.6999  1.0576
 6748TIP3   OH241734   2.358   5.745   2.952 -0.9315  0.1509 -0.3930
 6748TIP3    H141735   2.335   5.837   2.940  1.5787  0.7457 -1.1875
 6748TIP3    H241736   2.314   5.699   2.881 -2.0564  0.7269 -0.0905
 6749TIP3   OH241737   0.906   5.702  13.518  0.4730 -0.0660 -0.0193
 6749TIP3    H141738   0.844   5.717  13.447  0.3259  0.6455  0.2446
 6749TIP3    H241739   0.854   5.663  13.588  0.6819 -1.0585 -0.4059
 6750TIP3   OH241740   1.390   6.507   1.954  0.0721  0.1101  0.5487
 6750TIP3    H141741   1.467   6.473   2.001  0.0642 -0.2602  0.2926
 6750TIP3    H241742   1.323   6.515   2.021  0.7714  1.8956  1.1057
 6751TIP3   OH241743   1.551   3.667  11.684 -0.3640 -0.1828 -0.4380
 6751TIP3    H141744   1.591   3.675  11.770 -1.9820  5.7261  0.1789
 6751TIP3    H241745   1.621   3.688  11.622 -0.3542  0.6808 -0.1358
 6752TIP3   OH241746   2.617   1.279   2.676  0.0536 -0.1504  0.1695
 6752TIP3    H141747   2.672   1.321   2.742  0.2867 -0.9250  0.4740
 6752TIP3    H241748   2.548   1.344   2.658  0.3002  0.2849  0.7682
 6753TIP3   OH241749   6.108   3.745  13.302 -0.1032 -0.2843  0.1349
 6753TIP3    H141750   6.093   3.838  13.320  1.4082 -0.1322  0.6878
 6753TIP3    H241751   6.020   3.708  13.298 -0.7736  1.2902 -0.8519
 6754TIP3   OH241752   0.743   4.681  11.619  0.0549 -0.0834  0.3907
 6754TIP3    H141753   0.682   4.706  11.688 -0.1768 -0.8663  0.4870
 6754TIP3    H241754   0.686   4.654  11.546  0.2943  1.3441 -0.3476
 6755TIP3   OH241755   3.856   2.214  14.971  0.3583  0.2706 -0.4472
 6755TIP3    H141756   3.834   2.171  15.054 -0.9084 -0.4334 -1.1248
 6755TIP3    H241757   3.899   2.146  14.919  1.2782  0.7501 -0.3245
 6756TIP3   OH241758   3.141   1.779  16.128 -0.0306 -0.5112 -0.2012
 6756TIP3    H141759   3.127   1.715  16.058  0.5936 -0.2551 -0.5708
 6756TIP3    H241760   3.208   1.838  16.093 -2.2457  1.8128 -0.8453
 6757TIP3   OH241761   6.076   6.134   1.531  0.7266  0.0535  1.0396
 6757TIP3    H141762   6.096   6.195   1.603  1.5888  0.2468  0.6553
 6757TIP3    H241763   5.984   6.113   1.542 -0.0745  2.7777  0.1772
 6758TIP3   OH241764   3.736   5.321  12.414 -0.3912  0.1093 -0.1371
 6758TIP3    H141765   3.817   5.373  12.416  1.7651 -2.8974 -1.6651
 6758TIP3    H241766   3.685   5.358  12.342  1.0391  0.2118 -1.1416
 6759TIP3   OH241767   5.431   3.965   0.269  0.9313  0.7137 -0.7805
 6759TIP3    H141768   5.508   3.928   0.310  0.3577  1.0534  0.6717
 6759TIP3    H241769   5.446   3.955   0.175  2.4251  0.1834 -0.5051
 6760TIP3   OH241770   6.768   6.274   1.445 -0.5149 -0.0357  0.3544
 6760TIP3    H141771   6.698   6.328   1.408 -0.3581  1.4973  2.1698
 6760TIP3    H241772   6.847   6.327   1.435  0.1325 -1.0677 -0.1984
 6761TIP3   OH241773   5.783   3.360   5.311 -0.6948 -0.1100  0.4848
 6761TIP3    H141774   5.851   3.349   5.377  0.1282 -1.4780 -0.5407
 6761TIP3    H241775   5.823   3.416   5.245 -1.5239  1.2751  1.1061
 6762TIP3   OH241776   3.183   3.502   4.607  0.0189  0.8944 -0.2301
 6762TIP3    H141777   3.146   3.466   4.688 -1.5862  3.4519  0.2823
 6762TIP3    H241778   3.136   3.457   4.537  0.8758 -0.7872  0.2245
 6763TIP3   OH241779   3.502   1.744   0.112 -0.3183  0.2626 -0.0861
 6763TIP3    H141780   3.511   1.837   0.135 -1.0560  0.1539  0.6841
 6763TIP3    H241781   3.527   1.697   0.192 -0.5990 -0.1848 -0.2568
 6764TIP3   OH241782   0.645   5.114  15.415 -0.6633 -0.1193  0.4464
 6764TIP3    H141783   0.572   5.064  15.379 -0.6744  0.6427 -0.6221
 6764TIP3    H241784   0.720   5.087  15.361 -0.6059  0.7433  0.0781
 6765TIP3   OH241785   6.013   1.647  11.916  0.2800 -0.0964  0.2969
 6765TIP3    H141786   6.022   1.577  11.852  1.9017  0.9259 -0.6686
 6765TIP3    H241787   6.067   1.718  11.882  0.2070  0.9393  2.1856
 6766TIP3   OH241788   6.164   1.201  14.517 -0.1590 -0.0810  0.5268
 6766TIP3    H141789   6.134   1.112  14.502 -2.2522  0.3728  1.6452
 6766TIP3    H241790   6.111   1.255  14.458  0.6440  0.5114  0.3138
 6767TIP3   OH241791   0.451   5.769  12.834 -0.3359  0.5853 -0.2001
 6767TIP3    H141792   0.546   5.765  12.846 -0.3213 -0.0601 -0.4612
 6767TIP3    H241793   0.416   5.733  12.915 -0.2627 -2.5511 -1.4183
 6768TIP3   OH241794   2.007   0.388  14.174 -0.1331  0.1347 -0.1044
 6768TIP3    H141795   2.012   0.362  14.083 -1.2529 -1.7096  0.3057
 6768TIP3    H241796   2.091   0.429  14.193  1.4028 -2.3576 -1.1240
 6769TIP3   OH241797   1.980   1.318   3.133  0.4718 -0.0674  0.4695
 6769TIP3    H141798   2.048   1.355   3.188 -0.0190  1.8665 -0.1411
 6769TIP3    H241799   1.898   1.335   3.181  0.3396 -2.0739  1.0463
 6770TIP3   OH241800   5.686   5.208   3.530  0.5373 -0.0593 -0.6767
 6770TIP3    H141801   5.775   5.196   3.498  0.3632 -1.1773 -0.7754
 6770TIP3    H241802   5.675   5.141   3.597  0.1196  0.7624  0.1097
 6771TIP3   OH241803   5.447   0.959   3.922 -0.1214  0.0825  0.5684
 6771TIP3    H141804   5.507   0.970   3.996 -1.3592 -1.1980  1.8316
 6771TIP3    H241805   5.505   0.943   3.847  1.1678 -1.1827  1.7540
 6772TIP3   OH241806   1.638   4.429   2.307  0.1887 -0.4865  0.3520
 6772TIP3    H141807   1.592   4.513   2.306  1.0688  0.0013 -0.5396
 6772TIP3    H241808   1.582   4.370   2.256 -0.7032 -0.6142  1.4377
 6773TIP3   OH241809   0.180   4.807  12.065 -0.2494 -0.0891 -0.1167
 6773TIP3    H141810   0.117   4.736  12.058 -0.8641 -0.0134  3.1960
 6773TIP3    H241811   0.257   4.768  12.105  0.1355  0.7293 -0.0341
 6774TIP3   OH241812   6.782   4.971  15.819 -0.7206 -0.1322  0.0640
 6774TIP3    H141813   6.786   5.051  15.767  0.4905 -0.7487 -0.8400
 6774TIP3    H241814   6.820   4.996  15.904 -1.3539  0.5114  0.1672
 6775TIP3   OH241815   2.028   5.064  16.296  0.3013  0.1838  0.0423
 6775TIP3    H141816   2.082   5.012  16.237 -0.0307  0.6835 -0.7075
 6775TIP3    H241817   2.063   5.045  16.383 -0.9996 -2.7832  0.0367
 6776TIP3   OH241818   1.805   0.737  15.683 -0.1105 -0.8760 -0.7438
 6776TIP3    H141819   1.718   0.700  15.696 -0.6854  0.9482  1.1480
 6776TIP3    H241820   1.800   0.778  15.596 -1.8833  0.9187  0.1152
 6777TIP3   OH241821   1.962   4.494   4.155 -0.2608 -0.1772 -0.2536
 6777TIP3    H141822   2.056   4.475   4.156 -0.3596 -0.8440 -1.8037
 6777TIP3    H241823   1.954   4.573   4.102 -0.6074 -0.2811 -0.3616
 6778TIP3   OH241824   2.422   1.318  15.084 -0.0718  0.1515 -0.5781
 6778TIP3    H141825   2.408   1.235  15.131  1.0554  0.0776 -0.3397
 6778TIP3    H241826   2.501   1.302  15.033  1.1227  1.6095  0.7269
 6779TIP3   OH241827   3.770   4.048   1.935 -0.1114 -0.2798  0.0587
 6779TIP3    H141828   3.754   4.014   1.847  1.5003  0.6396 -0.6297
 6779TIP3    H241829   3.748   4.141   1.929 -4.0607 -0.9082  1.8019
 6780TIP3   OH241830   1.607   1.006   6.213  0.0783 -0.0292  0.5573
 6780TIP3    H141831   1.688   1.002   6.264  0.7965 -1.2020 -0.6394
 6780TIP3    H241832   1.540   0.975   6.274  0.1030  2.8260  2.2302
 6781TIP3   OH241833   1.298   6.572  16.095 -0.2237 -0.6208 -0.1782
 6781TIP3    H141834   1.292   6.663  16.066  0.7543  0.1724  1.8743
 6781TIP3    H241835   1.391   6.549  16.085  0.0802 -0.4328  1.7923
 6782TIP3   OH241836   3.892   4.379  15.496  0.6509  0.6943  0.0054
 6782TIP3    H141837   3.977   4.370  15.538  0.5911 -0.1051 -0.0252
 6782TIP3    H241838   3.897   4.322  15.419  0.3681  1.2665 -0.4469
 6783TIP3   OH241839   6.179   0.715  11.944 -0.1710 -0.6363  0.1063
 6783TIP3    H141840   6.101   0.677  11.985 -0.6765 -0.5956 -0.7895
 6783TIP3    H241841   6.224   0.640  11.905  0.5611 -0.7404  1.1315
 6784TIP3   OH241842   5.657   1.265   0.980  0.2263  0.1148 -0.4200
 6784TIP3    H141843   5.563   1.252   0.980  0.2167  0.0650  0.9488
 6784TIP3    H241844   5.687   1.228   0.897 -1.0905  1.2285 -1.4364
 6785TIP3   OH241845   0.322   1.005   3.248  0.2341 -0.0972  0.4711
 6785TIP3    H141846   0.383   0.977   3.179 -0.0313 -0.3224  0.3239
 6785TIP3    H241847   0.242   0.955   3.231 -0.4214  1.1011 -0.0875
 6786TIP3   OH241848   6.819   5.765  10.975  0.0556 -0.2093 -0.6752
 6786TIP3    H141849   6.870   5.724  11.044 -2.2899  0.5673  1.6667
 6786TIP3    H241850   6.849   5.856  10.974 -0.4530 -0.0345 -0.1274
 6787TIP3   OH241851   5.315   4.661   2.468 -0.2961  0.0791  0.7104
 6787TIP3    H141852   5.368   4.583   2.450  0.8702  0.3426  2.7665
 6787TIP3    H241853   5.256   4.635   2.538  0.7720  1.2720  2.1093
 6788TIP3   OH241854   0.243   4.713   1.356 -0.5276 -0.0262  0.2202
 6788TIP3    H141855   0.325   4.664   1.348 -0.9655 -0.7251 -0.0489
 6788TIP3    H241856   0.193   4.665   1.422 -0.7007  0.4347  0.4286
 6789TIP3   OH241857   1.562   3.272  12.864  0.1829 -0.4084 -0.1185
 6789TIP3    H141858   1.498   3.319  12.917 -0.0813  0.0151 -0.8026
 6789TIP3    H241859   1.627   3.338  12.841 -0.4426 -0.2343 -1.4835
 6790TIP3   OH241860   1.033   6.768   1.649 -0.0863  0.2897  0.3671
 6790TIP3    H141861   0.965   6.720   1.695  1.8449 -2.0793  0.9736
 6790TIP3    H241862   1.029   6.737   1.559 -1.3934  2.1034 -0.2743
 6791TIP3   OH241863   5.655   1.235   2.055  0.0977  0.1852 -0.2312
 6791TIP3    H141864   5.651   1.151   2.010 -2.4746 -0.8994  1.7946
 6791TIP3    H241865   5.625   1.299   1.991 -1.8861 -1.0642 -0.6141
 6792TIP3   OH241866   3.079   2.708  13.413 -0.1971 -0.6283  0.3452
 6792TIP3    H141867   3.163   2.666  13.397 -0.7731 -1.6622 -0.0974
 6792TIP3    H241868   3.014   2.642  13.389 -1.1409 -0.0440  1.1800
 6793TIP3   OH241869   5.272   3.628  15.584  0.0706 -0.3824 -0.3623
 6793TIP3    H141870   5.260   3.722  15.574  1.5832 -0.2081 -0.6958
 6793TIP3    H241871   5.183   3.592  15.575 -0.5905  1.0320  0.2270
 6794TIP3   OH241872   5.386   0.677  11.445  0.7136  0.9157 -0.5728
 6794TIP3    H141873   5.439   0.734  11.389  0.5849  0.6432 -0.9804
 6794TIP3    H241874   5.337   0.623  11.383  2.0110 -0.7547 -0.2314
 6795TIP3   OH241875   2.651   0.330  16.739 -0.3881  0.6855  0.1030
 6795TIP3    H141876   2.703   0.411  16.730 -1.8715  1.6271 -0.3326
 6795TIP3    H241877   2.562   0.361  16.755 -1.0068 -0.8852 -0.1945
 6796TIP3   OH241878   4.636   2.657  11.262  0.0598 -0.2504 -0.7322
 6796TIP3    H141879   4.721   2.676  11.301 -0.8664 -1.2678  2.0575
 6796TIP3    H241880   4.611   2.738  11.218  1.0649  1.2183  1.2420
 6797TIP3   OH241881   5.616   1.290  15.974 -0.3447  0.4568  0.2034
 6797TIP3    H141882   5.572   1.371  15.951  1.2105  1.3003  0.0777
 6797TIP3    H241883   5.682   1.315  16.038 -0.7907 -0.9552  1.2853
 6798TIP3   OH241884   0.525   3.036  14.163 -0.2538 -0.0534  0.0157
 6798TIP3    H141885   0.594   3.058  14.101 -1.1701 -0.7263 -1.2985
 6798TIP3    H241886   0.511   2.942  14.151 -2.0175  0.2356 -0.4450
 6799TIP3   OH241887   4.038   4.544   0.519  0.0447 -0.1332  0.0525
 6799TIP3    H141888   4.002   4.621   0.475  0.3506  0.4915  0.8669
 6799TIP3    H241889   4.018   4.558   0.612  1.0745 -0.4853  0.3425
 6800TIP3   OH241890   3.786   3.204  16.233 -0.2268 -0.0775  0.0930
 6800TIP3    H141891   3.810   3.200  16.325  0.8452 -0.0179 -0.1804
 6800TIP3    H241892   3.763   3.296  16.218  0.5717  0.1205  0.0621
 6801TIP3   OH241893   6.046   1.082  15.061  0.1026  0.6071  0.0157
 6801TIP3    H141894   6.062   1.161  15.113 -3.1995  1.6632 -0.3415
 6801TIP3    H241895   6.028   1.115  14.973 -0.4084 -0.6176 -0.3558
 6802TIP3   OH241896   2.456   1.500  11.535  0.0693 -0.0029 -0.0870
 6802TIP3    H141897   2.412   1.585  11.541 -1.6999 -0.7666 -1.2053
 6802TIP3    H241898   2.522   1.511  11.467 -0.4481  0.3648 -0.5330
 6803TIP3   OH241899   3.473   5.796   5.485 -0.2101  0.2549  0.5717
 6803TIP3    H141900   3.559   5.812   5.446  0.0730  0.0650  1.1182
 6803TIP3    H241901   3.416   5.862   5.444  0.8212  2.4298  2.4095
 6804TIP3   OH241902   4.529   3.757   3.065  0.2267  0.0300  0.0417
 6804TIP3    H141903   4.526   3.822   2.996  0.2634 -1.0225 -0.9849
 6804TIP3    H241904   4.554   3.806   3.143 -1.2294  1.5030 -0.3514
 6805TIP3   OH241905   6.274   0.105  14.912 -0.3258 -0.5001  0.7204
 6805TIP3    H141906   6.249   0.018  14.882  1.8534 -0.2713 -2.2931
 6805TIP3    H241907   6.191   0.148  14.933 -1.6025 -2.6310  0.3419
 6806TIP3   OH241908   3.684   6.566  12.253  0.5292 -0.2510 -0.2959
 6806TIP3    H141909   3.593   6.563  12.222  1.0774 -1.3785 -1.9264
 6806TIP3    H241910   3.708   6.658  12.246 -0.7889  0.2515  1.1824
 6807TIP3   OH241911   5.774   4.732  12.977  0.0251  0.4508 -0.8386
 6807TIP3    H141912   5.835   4.782  13.031  0.7453  0.2781 -1.4863
 6807TIP3    H241913   5.775   4.644  13.014  0.0469  0.4891 -0.7488
 6808TIP3   OH241914   4.600   4.889  14.038  0.0696  0.1016 -0.2792
 6808TIP3    H141915   4.587   4.794  14.032 -2.4734  0.4084 -1.0296
 6808TIP3    H241916   4.691   4.902  14.011  0.5214 -2.1228 -0.0606
 6809TIP3   OH241917   1.155   6.106   5.171  0.6121  0.0978 -0.0708
 6809TIP3    H141918   1.238   6.146   5.197 -0.2953  1.3192  1.0561
 6809TIP3    H241919   1.129   6.154   5.093  1.1997 -0.6369 -0.7335
 6810TIP3   OH241920   4.657   0.726  12.272 -0.3392  0.1332 -0.1339
 6810TIP3    H141921   4.718   0.790  12.310 -0.3925 -0.3318  0.7652
 6810TIP3    H241922   4.677   0.644  12.318 -1.5803 -0.0505  0.1059
 6811TIP3   OH241923   6.856   4.391  14.478 -0.2489 -0.4248  0.5926
 6811TIP3    H141924   6.927   4.327  14.480  1.0754  1.0078  1.7373
 6811TIP3    H241925   6.868   4.437  14.396 -0.1468 -0.5010  0.5630
 6812TIP3   OH241926   0.611   5.304   3.379  0.1215 -0.1136  0.4300
 6812TIP3    H141927   0.647   5.221   3.347 -2.0922 -1.9417  2.2764
 6812TIP3    H241928   0.608   5.295   3.474 -1.7829  1.3345  0.5849
 6813TIP3   OH241929   1.288   2.082   2.102 -0.5337 -0.2832  0.2243
 6813TIP3    H141930   1.322   2.102   2.015  1.2243  0.2252  0.9745
 6813TIP3    H241931   1.336   2.140   2.160 -1.8123 -0.4706  1.5336
 6814TIP3   OH241932   4.486   6.853  15.034 -0.3321  0.5104  0.4199
 6814TIP3    H141933   4.517   6.825  15.119  0.4180  0.7000  0.2121
 6814TIP3    H241934   4.557   6.907  14.998 -0.6189  0.4036 -0.3383
 6815TIP3   OH241935   0.660   6.600   4.053  0.0017 -0.4255 -0.2246
 6815TIP3    H141936   0.698   6.656   4.121  1.6004 -1.7145 -0.0116
 6815TIP3    H241937   0.577   6.571   4.089 -0.3223  0.8509  0.1334
 6816TIP3   OH241938   1.614   1.499  14.139  0.0341  0.3775  0.4845
 6816TIP3    H141939   1.630   1.584  14.097 -0.3800 -0.8828 -2.5003
 6816TIP3    H241940   1.624   1.436  14.068 -1.2168 -1.9510  2.2557
 6817TIP3   OH241941   3.351   6.237   5.270  0.1697 -0.1658  0.1352
 6817TIP3    H141942   3.414   6.254   5.200  1.9766 -1.4116  1.3567
 6817TIP3    H241943   3.380   6.292   5.343 -1.3627  0.7211  0.1141
 6818TIP3   OH241944   1.274   4.913   5.824 -0.6329 -0.2222 -0.4066
 6818TIP3    H141945   1.216   4.988   5.814 -0.3247 -0.2077 -2.7054
 6818TIP3    H241946   1.218   4.837   5.805 -0.7307 -0.5239  1.0056
 6819TIP3   OH241947   5.964   1.305   2.297 -0.2084  0.1068  0.2714
 6819TIP3    H141948   5.951   1.266   2.210  2.2788  2.5853 -1.3916
 6819TIP3    H241949   6.038   1.257   2.334  1.0482  1.2626 -0.6032
 6820TIP3   OH241950   2.706   3.010   5.025  0.2338  0.1109 -0.2575
 6820TIP3    H141951   2.660   2.994   4.942  1.1472 -1.2846 -0.5284
 6820TIP3    H241952   2.734   2.923   5.053  0.5908  0.6599  1.1476
 6821TIP3   OH241953   5.583   5.209   5.518  0.4692  0.1294  0.4615
 6821TIP3    H141954   5.652   5.145   5.501  2.2367  2.3485 -1.4199
 6821TIP3    H241955   5.525   5.203   5.442  0.5921  0.7029  0.3204
 6822TIP3   OH241956   1.414   3.107  12.444  0.0736 -0.3081  0.5151
 6822TIP3    H141957   1.465   3.130  12.367 -1.8862  0.9693 -0.4913
 6822TIP3    H241958   1.348   3.046  12.412 -1.4136  1.0217  0.8884
 6823TIP3   OH241959   1.885   5.449   3.638 -0.1690  0.5610 -0.2172
 6823TIP3    H141960   1.879   5.478   3.729 -0.4323  0.2180 -0.1208
 6823TIP3    H241961   1.854   5.358   3.640 -0.8400  0.7663 -0.7534
 6824TIP3   OH241962   3.288   5.619  12.430 -1.0671 -0.0795  0.1006
 6824TIP3    H141963   3.207   5.569  12.419 -0.7433 -0.6670  0.3484
 6824TIP3    H241964   3.300   5.663  12.346 -3.1260  2.3091  0.9375
 6825TIP3   OH241965   3.895   3.831  17.118 -0.6230  0.4197  0.0201
 6825TIP3    H141966   3.818   3.851  17.172 -0.0389  0.3808  0.8780
 6825TIP3    H241967   3.898   3.736  17.114 -0.7991  0.4229 -0.2957
 6826TIP3   OH241968   3.644   4.226   5.501  0.5201  0.4607  0.2560
 6826TIP3    H141969   3.698   4.189   5.571  1.6147 -0.3754 -1.0032
 6826TIP3    H241970   3.554   4.212   5.531  0.9440  1.0123  1.9431
 6827TIP3   OH241971   5.133   0.868  16.045  0.3394  0.3843  0.1734
 6827TIP3    H141972   5.050   0.827  16.068 -0.2858  1.5465  0.0232
 6827TIP3    H241973   5.175   0.805  15.986 -0.8436  0.1862 -0.4839
 6828TIP3   OH241974   5.069   2.945   2.426 -0.1916 -0.3251  0.6304
 6828TIP3    H141975   5.076   2.875   2.362  0.6545  0.2874  0.0288
 6828TIP3    H241976   5.007   2.912   2.491 -1.6658 -0.6521 -0.8895
 6829TIP3   OH241977   0.341   1.735  14.361  0.2793 -0.1623  0.1324
 6829TIP3    H141978   0.261   1.715  14.313 -0.4786 -0.1729  1.3450
 6829TIP3    H241979   0.397   1.780  14.298 -1.2404  1.1028 -0.3729
 6830TIP3   OH241980   1.192   3.324  10.404  0.3579 -0.2897  0.3668
 6830TIP3    H141981   1.108   3.340  10.361  0.9437  1.0015 -0.3902
 6830TIP3    H241982   1.221   3.240  10.369 -0.8947 -1.0661  1.1304
 6831TIP3   OH241983   2.344   0.328  12.069 -0.2373 -0.4906 -0.3014
 6831TIP3    H141984   2.407   0.258  12.086  0.9539  0.6632  0.2164
 6831TIP3    H241985   2.287   0.293  12.001  2.7692 -0.5693 -3.0067
 6832TIP3   OH241986   1.292   6.520   3.136  0.0770  0.2531 -0.2165
 6832TIP3    H141987   1.311   6.448   3.076  0.1439 -0.4291  0.6034
 6832TIP3    H241988   1.369   6.577   3.130  0.4094 -0.1889 -0.2413
 6833TIP3   OH241989   2.149   6.697  14.997  0.4158 -0.3571 -0.2732
 6833TIP3    H141990   2.164   6.688  14.902 -1.9646  0.7620 -0.8483
 6833TIP3    H241991   2.152   6.792  15.012 -0.9594 -0.4002  0.4036
 6834TIP3   OH241992   1.957   6.573   0.787  0.3267 -0.1290 -0.3350
 6834TIP3    H141993   1.939   6.568   0.881 -1.5633  0.3515 -0.6365
 6834TIP3    H241994   2.046   6.608   0.782 -0.2011  1.6057  1.2811
 6835TIP3   OH241995   1.536   4.352   2.578 -0.2247 -0.0617  0.0997
 6835TIP3    H141996   1.493   4.314   2.654 -3.5170  2.2798 -0.4123
 6835TIP3    H241997   1.484   4.323   2.503  0.7385  0.6578 -0.8924
 6836TIP3   OH241998   6.507   4.113  15.736 -0.2613 -0.4224  0.5688
 6836TIP3    H141999   6.448   4.049  15.696  0.0839 -0.6810  0.4639
 6836TIP3    H242000   6.578   4.060  15.773  0.8535 -0.0234 -0.8843
 6837TIP3   OH242001   4.680   2.511  14.393  0.1973  0.3052  0.0500
 6837TIP3    H142002   4.702   2.604  14.397 -0.1755  0.3751  0.4592
 6837TIP3    H242003   4.723   2.480  14.313  1.6394  0.4745  0.7298
 6838TIP3   OH242004   4.768   6.529   6.426 -0.2476 -0.3192  0.6701
 6838TIP3    H142005   4.774   6.623   6.412  0.3380 -0.4294  0.1480
 6838TIP3    H242006   4.713   6.497   6.354 -1.7185 -0.1960  1.6880
 6839TIP3   OH242007   6.521   4.635  14.691 -0.3658  0.1849  0.0207
 6839TIP3    H142008   6.609   4.638  14.654 -0.3842  0.3991 -0.0069
 6839TIP3    H242009   6.479   4.561  14.647 -0.0846 -0.1428  0.2916
 6840TIP3   OH242010   2.775   4.978  15.468  1.0196 -0.2779  0.2736
 6840TIP3    H142011   2.684   4.967  15.439  1.0979  0.5056 -0.3326
 6840TIP3    H242012   2.797   5.068  15.443  2.5687 -1.0289 -1.3587
 6841TIP3   OH242013   0.501   1.150   1.188  0.2113 -0.3937  0.0100
 6841TIP3    H142014   0.581   1.126   1.141  0.5902 -0.7277  0.7954
 6841TIP3    H242015   0.528   1.223   1.244  0.1174 -0.8838  0.7033
 6842TIP3   OH242016   0.844   5.675   1.825 -0.4234  0.3467 -0.7025
 6842TIP3    H142017   0.806   5.747   1.774 -0.1133  1.0564  0.0542
 6842TIP3    H242018   0.775   5.650   1.886  0.4245  2.0164  1.0642
 6843TIP3   OH242019   4.567   2.658   1.344 -0.4150  0.6458 -0.1241
 6843TIP3    H142020   4.647   2.707   1.365 -0.2676  0.2347  0.2841
 6843TIP3    H242021   4.531   2.633   1.429 -0.1906 -0.4303 -0.3313
 6844TIP3   OH242022   0.387   3.779   5.512 -0.6616  0.7731  0.6048
 6844TIP3    H142023   0.426   3.707   5.462 -2.2802 -1.7944  2.6892
 6844TIP3    H242024   0.437   3.780   5.594 -2.2531  0.1802  1.6396
 6845TIP3   OH242025   5.311   0.415  11.328 -0.5501  0.0009  0.1021
 6845TIP3    H142026   5.285   0.333  11.286  0.5238 -0.1161 -0.3748
 6845TIP3    H242027   5.284   0.405  11.419 -0.7642 -0.7306 -0.0319
 6846TIP3   OH242028   1.232   3.113  15.331 -0.3974 -0.0627  0.3925
 6846TIP3    H142029   1.170   3.047  15.300 -2.0134  1.9014 -0.7784
 6846TIP3    H242030   1.178   3.177  15.378  0.9344  1.0423  0.4911
 6847TIP3   OH242031   1.260   4.643  13.701 -0.4239  0.4590  0.5621
 6847TIP3    H142032   1.330   4.598  13.748 -1.7125 -1.0110  1.1754
 6847TIP3    H242033   1.303   4.684  13.626  1.3032  0.8814  1.7421
 6848TIP3   OH242034   4.693   0.434   3.003 -0.7127  0.3442 -0.0402
 6848TIP3    H142035   4.682   0.527   3.024  1.0821  0.3628  1.0082
 6848TIP3    H242036   4.673   0.428   2.910  0.4362  2.0528 -0.4496
 6849TIP3   OH242037   5.407   1.791  12.895 -0.2138  0.0454  0.0015
 6849TIP3    H142038   5.479   1.851  12.916  0.6833 -0.1894 -2.1898
 6849TIP3    H242039   5.341   1.810  12.962  1.5819  0.7359  1.6842
 6850TIP3   OH242040   0.879   4.336   4.460 -0.0152 -0.1671 -0.0384
 6850TIP3    H142041   0.787   4.351   4.481  0.0786 -0.5300  0.6791
 6850TIP3    H242042   0.908   4.417   4.417 -1.1960 -0.8315 -2.1906
 6851TIP3   OH242043   6.726   6.344   4.425  0.4412 -0.4738  1.0158
 6851TIP3    H142044   6.748   6.303   4.508  0.8784 -0.3598  0.9545
 6851TIP3    H242045   6.797   6.405   4.408 -0.0189  0.0513  0.9247
 6852TIP3   OH242046   6.499   1.595  13.089 -0.5965  0.5455 -0.6581
 6852TIP3    H142047   6.495   1.502  13.066  0.3350  0.5508 -0.8581
 6852TIP3    H242048   6.410   1.628  13.071 -0.9815 -0.3376 -0.4057
 6853TIP3   OH242049   3.542   3.979  12.852  0.1972 -0.1915  0.3130
 6853TIP3    H142050   3.519   3.916  12.920 -0.0813 -0.3873  0.0376
 6853TIP3    H242051   3.585   3.927  12.785  2.2566  0.2778  1.1900
 6854TIP3   OH242052   5.408   6.551   4.518 -0.4694  0.7144 -0.0938
 6854TIP3    H142053   5.441   6.461   4.511  0.7525  0.9935  1.3739
 6854TIP3    H242054   5.368   6.569   4.433  2.9306  0.2011 -1.9795
 6855TIP3   OH242055   4.768   4.853   5.054 -0.4619 -0.1851  0.3180
 6855TIP3    H142056   4.820   4.850   5.134  1.3146 -0.3469 -0.7762
 6855TIP3    H242057   4.716   4.933   5.061  0.5909  0.4451  1.0753
 6856TIP3   OH242058   1.112   0.779  15.984  0.2573 -0.0585 -0.2126
 6856TIP3    H142059   1.205   0.771  16.000  0.2321  0.9678  0.5546
 6856TIP3    H242060   1.094   0.873  15.992 -0.8282 -0.2315 -0.3840
 6857TIP3   OH242061   6.600   1.774  10.900  0.1621 -0.1592  0.7024
 6857TIP3    H142062   6.651   1.737  10.973  0.9160  0.4577  0.5032
 6857TIP3    H242063   6.648   1.746  10.822 -0.3367 -0.3517  0.4654
 6858TIP3   OH242064   5.980   2.017  13.825  0.2907 -0.0012 -0.6768
 6858TIP3    H142065   5.998   2.001  13.918  1.4171  2.6390 -0.3511
 6858TIP3    H242066   5.888   1.994  13.814  0.4543 -1.5381  0.7667
 6859TIP3   OH242067   6.522   4.866  12.042 -0.1753  0.2731  0.1994
 6859TIP3    H142068   6.541   4.800  12.108  0.3379 -0.2802 -0.4846
 6859TIP3    H242069   6.568   4.835  11.963  1.4704  2.2478  0.2878
 6860TIP3   OH242070   4.054   1.835   4.542 -0.2439  0.1963  0.6109
 6860TIP3    H142071   3.985   1.769   4.543 -0.3544  0.2720 -0.6560
 6860TIP3    H242072   4.076   1.848   4.635 -1.4560 -0.3106  0.9859
 6861TIP3   OH242073   3.423   1.793   3.103 -0.1040  0.5068 -0.5455
 6861TIP3    H142074   3.475   1.714   3.088  0.0259  0.4192  0.3008
 6861TIP3    H242075   3.442   1.816   3.194  0.1974  1.7629 -0.9180
 6862TIP3   OH242076   3.277   0.971  12.715  0.2288  0.2327  0.0354
 6862TIP3    H142077   3.350   0.972  12.654 -0.0192  0.0510 -0.2654
 6862TIP3    H242078   3.278   0.883  12.753  0.7067  0.5134  0.6887
 6863TIP3   OH242079   6.132   1.894  14.323  0.1384 -0.0969 -0.2358
 6863TIP3    H142080   6.071   1.821  14.314 -0.0681  0.0926 -0.3986
 6863TIP3    H242081   6.170   1.904  14.235 -2.8119  2.5697 -1.4171
 6864TIP3   OH242082   4.892   1.503   0.205 -0.6252 -0.4598  0.4438
 6864TIP3    H142083   4.969   1.451   0.229  0.1250 -0.2606 -1.3907
 6864TIP3    H242084   4.912   1.591   0.238  1.0336  0.1536 -1.9078
 6865TIP3   OH242085   6.221   2.707   3.821 -0.0228 -0.3799 -0.1207
 6865TIP3    H142086   6.187   2.761   3.892 -2.9364  0.9948 -2.3637
 6865TIP3    H242087   6.174   2.624   3.829  0.0928 -0.4432 -0.0951
 6866TIP3   OH242088   5.922   1.982   2.217 -0.3141 -0.5428  0.3954
 6866TIP3    H142089   5.923   1.987   2.122 -0.5286 -1.6386  0.3231
 6866TIP3    H242090   5.831   2.001   2.241 -0.2152 -0.0643  0.4013
 6867TIP3   OH242091   6.233   4.758   6.450  0.2801 -0.0185 -0.3930
 6867TIP3    H142092   6.138   4.745   6.444  0.3981 -0.4740 -1.4043
 6867TIP3    H242093   6.269   4.670   6.443  0.8966  0.3701 -2.9139
 6868TIP3   OH242094   6.209   0.796  15.228  0.5855 -0.1008  0.3369
 6868TIP3    H142095   6.160   0.812  15.147 -0.2152 -0.7155  0.6804
 6868TIP3    H242096   6.164   0.722  15.268  1.7726 -0.6435  0.7121
 6869TIP3   OH242097   0.930   6.707  11.066  0.2092  0.3916  0.0170
 6869TIP3    H142098   0.904   6.732  11.155 -1.2852  0.0497 -0.2956
 6869TIP3    H242099   0.972   6.785  11.031  0.2498  0.7388  0.8177
 6870TIP3   OH242100   1.107   2.634  10.791  0.2558  0.1337  0.3354
 6870TIP3    H142101   1.038   2.619  10.856  1.7260 -1.8548  1.5623
 6870TIP3    H242102   1.108   2.555  10.737  0.1120  1.1028 -1.1449
 6871TIP3   OH242103   0.058   4.819   6.058 -0.4430 -0.2543 -0.4519
 6871TIP3    H142104   0.083   4.899   6.012 -1.0185 -0.8548 -1.8688
 6871TIP3    H242105  -0.030   4.837   6.091 -0.7738 -0.4476 -1.1962
 6872TIP3   OH242106   1.706   1.303   3.210 -0.3523 -1.0001  0.4514
 6872TIP3    H142107   1.668   1.262   3.133 -2.4904 -0.9334  1.3990
 6872TIP3    H242108   1.691   1.240   3.281 -1.7683  0.4259  1.4990
 6873TIP3   OH242109   6.745   0.842  12.015  0.1400 -0.6643  0.2529
 6873TIP3    H142110   6.685   0.767  12.013  0.2002 -0.7380  1.0417
 6873TIP3    H242111   6.726   0.885  12.098  1.2761 -0.7638  0.5745
 6874TIP3   OH242112   6.593   1.548  16.885  0.1357 -0.0946  0.2007
 6874TIP3    H142113   6.644   1.627  16.866 -0.0369  0.0292  0.2501
 6874TIP3    H242114   6.502   1.574  16.867  0.2175 -0.7215 -1.2374
 6875TIP3   OH242115   1.579   6.193   5.084  0.7972 -0.2335  0.0333
 6875TIP3    H142116   1.502   6.250   5.087  0.9567  0.0647 -0.9502
 6875TIP3    H242117   1.653   6.251   5.105  1.0587  0.1614 -1.7923
 6876TIP3   OH242118   1.779   0.589  16.459 -0.0078  0.7109 -0.4604
 6876TIP3    H142119   1.820   0.503  16.472  0.1617  1.1755  2.6797
 6876TIP3    H242120   1.777   0.628  16.546 -3.4311  2.4143 -1.1541
 6877TIP3   OH242121   1.978   4.207   1.135  0.7486 -0.4040  0.2052
 6877TIP3    H142122   1.989   4.275   1.068 -0.0175 -0.0811  0.3997
 6877TIP3    H242123   2.055   4.151   1.125  0.8051 -0.1732 -0.7278
 6878TIP3   OH242124   4.604   1.696  12.186 -0.5213 -0.8599  1.0060
 6878TIP3    H142125   4.693   1.732  12.192 -0.4538 -1.1909  2.1740
 6878TIP3    H242126   4.560   1.726  12.266 -1.4580 -0.7292  0.4556
 6879TIP3   OH242127   6.005   3.931   3.433  0.0221 -0.2068 -0.0515
 6879TIP3    H142128   5.991   3.973   3.348  2.7100 -0.9319 -0.9281
 6879TIP3    H242129   5.956   3.849   3.427 -1.3860  0.6021 -0.1119
 6880TIP3   OH242130   0.769   2.264   5.605 -1.0122  0.4589 -0.2757
 6880TIP3    H142131   0.847   2.319   5.616 -1.2461  0.7876 -0.2329
 6880TIP3    H242132   0.801   2.175   5.615 -0.2789  0.4623 -2.2576
 6881TIP3   OH242133   1.566   3.582   5.527  0.7027  0.0505  0.3437
 6881TIP3    H142134   1.479   3.570   5.565 -0.2045  0.4441 -1.4856
 6881TIP3    H242135   1.584   3.501   5.480 -0.6860  1.5037 -2.9673
 6882TIP3   OH242136   3.617   0.768  13.796 -0.4632 -0.0566  0.4443
 6882TIP3    H142137   3.648   0.858  13.784 -0.0245 -0.3492 -0.8334
 6882TIP3    H242138   3.696   0.715  13.789 -1.0182 -0.7195 -1.4988
 6883TIP3   OH242139   5.486   2.006  12.395 -0.2028  0.2313 -0.3376
 6883TIP3    H142140   5.485   2.005  12.491 -1.2400  0.8309 -0.3326
 6883TIP3    H242141   5.579   2.001  12.373 -0.0195 -2.2760  0.6417
 6884TIP3   OH242142   5.747   1.212  10.783  0.5442  0.0836  0.1697
 6884TIP3    H142143   5.817   1.231  10.721  1.1534 -0.3380  0.7156
 6884TIP3    H242144   5.724   1.120  10.767  0.5881  0.0210  0.4466
 6885TIP3   OH242145   2.888   5.242   3.086  0.1564 -0.3460  0.2986
 6885TIP3    H142146   2.848   5.218   3.003 -0.2160  0.5611  0.2067
 6885TIP3    H242147   2.819   5.227   3.151  0.2830 -0.5668  0.3844
 6886TIP3   OH242148   0.581   3.199  15.010  0.5247  0.3954  0.6219
 6886TIP3    H142149   0.496   3.221  15.050 -0.3780  0.3604 -1.1619
 6886TIP3    H242150   0.611   3.281  14.971  0.5139  0.0506 -0.1309
 6887TIP3   OH242151   1.344   0.028  11.745 -0.2170  0.2776 -0.3722
 6887TIP3    H142152   1.402  -0.033  11.700 -0.7032 -1.1690  0.8770
 6887TIP3    H242153   1.271   0.042  11.684 -0.6843 -1.3477 -0.2139
 6888TIP3   OH242154   5.002   5.954   1.934  0.1401  0.4847  0.4149
 6888TIP3    H142155   5.013   5.955   2.029 -0.1997  0.3414  0.4569
 6888TIP3    H242156   4.991   6.046   1.910 -2.6856  0.3491  0.8652
 6889TIP3   OH242157   6.823   3.539  16.074 -0.5205  0.1662 -0.0553
 6889TIP3    H142158   6.830   3.449  16.045 -0.3062 -0.3765  1.5595
 6889TIP3    H242159   6.731   3.551  16.096 -0.5123  0.2701 -0.0781
 6890TIP3   OH242160   3.982   2.130   0.251  0.7638  0.4619  0.4765
 6890TIP3    H142161   3.970   2.135   0.156  3.5429  0.6223  0.0517
 6890TIP3    H242162   4.062   2.078   0.262  1.1244  1.3918  2.6889
 6891TIP3   OH242163   4.205   3.812   4.520  0.0976  0.3479 -0.0260
 6891TIP3    H142164   4.141   3.783   4.585  0.0851 -1.2532 -0.6966
 6891TIP3    H242165   4.190   3.755   4.445  1.2759  0.9805 -0.7736
 6892TIP3   OH242166   1.246   2.585   1.088 -0.3811 -0.0002  0.5141
 6892TIP3    H142167   1.244   2.614   1.179 -0.3614  0.3910  0.3916
 6892TIP3    H242168   1.263   2.491   1.093  0.4730  0.1658  0.8845
 6893TIP3   OH242169   4.362   5.301  12.214  0.3439 -0.1593 -0.8178
 6893TIP3    H142170   4.373   5.243  12.289 -0.8373 -0.2361 -0.6878
 6893TIP3    H242171   4.285   5.353  12.235  2.6203  3.1725  0.1680
 6894TIP3   OH242172   6.414   4.442  14.469  0.1496  0.8161  0.6357
 6894TIP3    H142173   6.481   4.510  14.463 -1.3880  2.3075 -0.3029
 6894TIP3    H242174   6.450   4.369  14.419  1.0843  1.5761  0.1643
 6895TIP3   OH242175   1.292   3.228   0.301  0.4738 -0.0181 -0.0728
 6895TIP3    H142176   1.321   3.137   0.303  0.8788 -0.2417 -4.6664
 6895TIP3    H242177   1.361   3.273   0.252 -1.6722  1.7890 -1.6460
 6896TIP3   OH242178   0.566   2.332  13.063  1.0300  0.3622  0.3065
 6896TIP3    H142179   0.652   2.356  13.096  1.8829 -1.8376 -0.1159
 6896TIP3    H242180   0.520   2.297  13.139  1.8698 -1.8071 -0.1139
 6897TIP3   OH242181   2.509   2.014  15.005  0.0412  0.3291 -0.4270
 6897TIP3    H142182   2.587   2.031  14.953  0.0607  0.6134 -0.3051
 6897TIP3    H242183   2.542   1.972  15.085  0.0133 -0.0880 -0.6294
 6898TIP3   OH242184   4.058   0.244   5.416 -0.1750  0.3559  0.3480
 6898TIP3    H142185   4.141   0.202   5.438 -0.5779 -1.5667 -1.5160
 6898TIP3    H242186   3.997   0.217   5.484 -0.5083 -2.5315 -0.9645
 6899TIP3   OH242187   4.931   6.121   0.170  0.6265 -0.1669 -0.0133
 6899TIP3    H142188   4.991   6.142   0.241  0.6881 -4.5821  1.4840
 6899TIP3    H242189   4.988   6.105   0.095  1.1396 -1.6007  0.6581
 6900TIP3   OH242190   5.030   3.580  11.510 -0.7152 -0.3704  0.0269
 6900TIP3    H142191   5.010   3.673  11.518 -0.2513 -0.3396  0.9492
 6900TIP3    H242192   4.980   3.551  11.433  0.8929  1.1099 -1.6520
 6901TIP3   OH242193   3.272   1.640  17.078  0.0813  0.0226  0.0149
 6901TIP3    H142194   3.360   1.654  17.113 -0.0158 -0.8059  0.6186
 6901TIP3    H242195   3.215   1.693  17.134  0.3178  1.7500 -1.2765
 6902TIP3   OH242196   6.687   4.843   5.165 -1.0347 -0.2872 -0.2045
 6902TIP3    H142197   6.637   4.779   5.216  0.1664 -1.2773 -0.2246
 6902TIP3    H242198   6.711   4.910   5.229 -2.6105  0.3629 -0.2571
 6903TIP3   OH242199   2.503   0.570  16.404  0.3544  0.2523  0.2464
 6903TIP3    H142200   2.470   0.612  16.482  1.6978  2.8625 -0.4861
 6903TIP3    H242201   2.551   0.638  16.358  3.5285 -2.2691 -0.5895
 6904TIP3   OH242202   1.385   6.392   1.327  0.3254  0.1467 -0.2392
 6904TIP3    H142203   1.465   6.356   1.288  0.1656  0.4478 -0.8626
 6904TIP3    H242204   1.352   6.321   1.382 -0.6297 -1.1748 -2.3777
 6905TIP3   OH242205   2.800   6.557  12.349  0.2416 -0.0769  0.3042
 6905TIP3    H142206   2.876   6.577  12.404 -0.1857 -0.2340  0.9686
 6905TIP3    H242207   2.757   6.485  12.394 -0.4370  0.1743  0.0637
 6906TIP3   OH242208   6.179   5.621   5.412  0.0650 -0.4879 -0.1356
 6906TIP3    H142209   6.159   5.712   5.393 -1.5515 -0.9213 -0.6199
 6906TIP3    H242210   6.187   5.617   5.507 -0.4767  0.0475 -0.0638
 6907TIP3   OH242211   6.542   2.299   6.002  0.0984  0.3022  0.9070
 6907TIP3    H142212   6.596   2.347   5.940 -1.4231 -0.0312 -0.7859
 6907TIP3    H242213   6.585   2.214   6.010  0.2291  0.2891  0.1578
 6908TIP3   OH242214   4.134   6.054   1.768 -0.0884  0.4468 -0.3661
 6908TIP3    H142215   4.064   6.119   1.777  0.9625  1.3455  2.2896
 6908TIP3    H242216   4.203   6.100   1.720  0.9989  1.7214  2.2521
 6909TIP3   OH242217   5.223   1.452   0.529  0.4067  0.0898  0.0241
 6909TIP3    H142218   5.272   1.452   0.611  1.4759 -0.2401 -0.5937
 6909TIP3    H242219   5.136   1.420   0.553  1.0639 -1.1833  0.8327
 6910TIP3   OH242220   0.324   5.588  11.710 -0.1685  0.5276  0.4761
 6910TIP3    H142221   0.314   5.559  11.801 -0.9708  1.2587  0.6303
 6910TIP3    H242222   0.259   5.537  11.662  0.2761  0.1204  0.2977
 6911TIP3   OH242223   3.077   3.941  10.447 -0.5924 -0.0764 -0.1689
 6911TIP3    H142224   3.001   3.964  10.501 -1.5796  1.2846 -2.0250
 6911TIP3    H242225   3.039   3.899  10.369  0.6997 -0.8415 -0.4200
 6912TIP3   OH242226   5.429   1.596  14.336 -0.3132 -0.0991 -0.1787
 6912TIP3    H142227   5.344   1.596  14.380  0.7642  0.2732  2.0538
 6912TIP3    H242228   5.449   1.504  14.322 -0.8002 -0.2133 -0.1409
 6913TIP3   OH242229   1.119   2.876   5.779 -0.4724 -0.2423  0.2528
 6913TIP3    H142230   1.175   2.911   5.710  2.5977 -3.2431  0.9076
 6913TIP3    H242231   1.053   2.825   5.733  0.9556 -1.4102 -0.5949
 6914TIP3   OH242232   3.073   1.960  15.805 -0.6576  0.4818  0.1766
 6914TIP3    H142233   3.148   1.965  15.864 -0.1573 -0.6128 -0.3314
 6914TIP3    H242234   3.107   1.914  15.727 -2.5108 -2.7617  1.0872
 6915TIP3   OH242235   3.377   3.669  10.785 -0.3667  0.2454  0.0900
 6915TIP3    H142236   3.416   3.642  10.702 -0.1674  0.2338  0.1872
 6915TIP3    H242237   3.328   3.748  10.764 -0.2832  0.2646 -0.0317
 6916TIP3   OH242238   2.095   4.845   5.072  0.3885  0.0309 -0.0831
 6916TIP3    H142239   2.128   4.933   5.055 -0.9014  0.9047  1.6030
 6916TIP3    H242240   2.091   4.839   5.168  2.3885 -2.6344 -0.0545
 6917TIP3   OH242241   1.746   0.216   6.656 -0.1703 -0.6499  0.0094
 6917TIP3    H142242   1.661   0.238   6.693  1.0755  0.3056  2.5579
 6917TIP3    H242243   1.808   0.273   6.702  1.7896 -0.7013 -2.3392
 6918TIP3   OH242244   2.828   2.175  15.189  0.3425  0.3058  0.2249
 6918TIP3    H142245   2.800   2.211  15.273  1.0779  0.0692  0.5808
 6918TIP3    H242246   2.847   2.252  15.135  2.0170  0.4952  1.0178
 6919TIP3   OH242247   3.736   3.951  16.441  0.2665 -0.4763 -0.1501
 6919TIP3    H142248   3.823   3.921  16.418  0.5922 -1.4788  2.1915
 6919TIP3    H242249   3.743   4.047  16.444  1.4334 -0.5743  0.5466
 6920TIP3   OH242250   3.063   6.249   4.243 -0.1908 -0.3206  0.3643
 6920TIP3    H142251   3.023   6.266   4.328 -0.7983 -0.3852  0.0976
 6920TIP3    H242252   3.144   6.300   4.243 -0.8148  0.6883  0.4872
 6921TIP3   OH242253   5.097   4.789   0.090  0.0089 -0.3513 -0.0148
 6921TIP3    H142254   5.189   4.816   0.098 -0.3310  1.0919 -0.6468
 6921TIP3    H242255   5.093   4.742   0.007 -0.0884  0.9016 -0.7486
 6922TIP3   OH242256   5.186   1.128  12.701  0.2971  0.1134  0.4212
 6922TIP3    H142257   5.165   1.192  12.633  0.4061  0.0360  0.3151
 6922TIP3    H242258   5.276   1.101  12.681 -0.0504 -0.7122 -0.0343
 6923TIP3   OH242259   6.783   4.427  11.584 -1.1431 -0.2919  0.0661
 6923TIP3    H142260   6.737   4.426  11.667 -0.6973 -0.3280  0.3151
 6923TIP3    H242261   6.761   4.343  11.543  1.3982 -1.8711  1.6878
 6924TIP3   OH242262   2.032   6.387   5.106 -0.6831  0.3134  0.4552
 6924TIP3    H142263   1.990   6.330   5.170  0.4317  1.0958  1.9503
 6924TIP3    H242264   2.119   6.402   5.142  0.2628  0.1826 -1.6446
 6925TIP3   OH242265   5.381   1.228   0.907  0.0651  0.1745  0.3893
 6925TIP3    H142266   5.391   1.223   0.812 -0.4626  0.8851  0.2843
 6925TIP3    H242267   5.353   1.140   0.934  3.6686 -1.1729  0.3851
 6926TIP3   OH242268   5.551   4.502   4.073  0.4553  0.2234 -0.1103
 6926TIP3    H142269   5.558   4.427   4.014  2.2103 -1.3132  1.8911
 6926TIP3    H242270   5.629   4.554   4.057 -1.0545  2.1054 -1.9405
 6927TIP3   OH242271   4.991   4.375  10.972  0.0839  0.3857 -0.2581
 6927TIP3    H142272   4.908   4.331  10.952 -0.7185  2.5941 -2.1701
 6927TIP3    H242273   5.048   4.355  10.898 -0.1257  2.0877 -0.9126
 6928TIP3   OH242274   4.064   2.266   5.421  0.0358  1.1946 -0.0929
 6928TIP3    H142275   4.073   2.233   5.332  1.2231 -3.1162  1.3957
 6928TIP3    H242276   3.976   2.241   5.448  0.6513 -0.1621  0.7779
 6929TIP3   OH242277   3.061   3.241  10.219 -0.3258  0.4286 -0.6451
 6929TIP3    H142278   3.101   3.280  10.141  1.8814  0.9782  0.6579
 6929TIP3    H242279   3.011   3.312  10.258 -0.8589  0.3512 -1.1778
 6930TIP3   OH242280   2.584   0.621   4.210  0.2845  0.3147 -0.3198
 6930TIP3    H142281   2.635   0.553   4.167  0.9828  1.5275 -1.4974
 6930TIP3    H242282   2.557   0.679   4.138  0.3579  1.6878  0.7350
 6931TIP3   OH242283   5.476   2.740   0.655 -0.1482 -0.3461  0.4934
 6931TIP3    H142284   5.468   2.704   0.744 -1.1327 -1.5098 -0.0319
 6931TIP3    H242285   5.468   2.835   0.667 -1.9765 -0.5792  1.4900
 6932TIP3   OH242286   1.925   4.446   4.828 -0.1053 -1.0905 -0.3303
 6932TIP3    H142287   1.895   4.381   4.765  2.3936 -2.4954 -0.1734
 6932TIP3    H242288   1.953   4.521   4.775  2.2873 -2.3834 -1.0419
 6933TIP3   OH242289   6.459   3.471  11.925 -0.2786 -0.1184  0.6221
 6933TIP3    H142290   6.446   3.393  11.871 -0.8345  0.3380  0.0984
 6933TIP3    H242291   6.432   3.443  12.013 -0.1624 -0.6094  0.5075
 6934TIP3   OH242292   4.462   6.075   0.515 -0.4097 -0.1086  0.3890
 6934TIP3    H142293   4.468   6.091   0.421 -0.5226 -0.8958  0.2411
 6934TIP3    H242294   4.545   6.034   0.538 -0.0423  0.8311  0.8000
 6935TIP3   OH242295   6.770   4.254  11.825 -0.0694  0.4270  0.0674
 6935TIP3    H142296   6.829   4.178  11.819  0.6659  0.9701  0.2605
 6935TIP3    H242297   6.748   4.260  11.918 -1.0978 -0.2571 -0.1130
 6936TIP3   OH242298   3.695   5.038   1.794  0.3166 -0.3233 -0.5103
 6936TIP3    H142299   3.708   5.024   1.888  1.5498  0.5588 -0.5249
 6936TIP3    H242300   3.642   4.964   1.766 -1.6102  0.2961  1.2129
 6937TIP3   OH242301   6.832   0.751  10.204  0.1150  0.2451 -0.0398
 6937TIP3    H142302   6.744   0.774  10.233 -0.1873  0.1077 -0.8254
 6937TIP3    H242303   6.884   0.749  10.284 -0.6233  0.2142  0.4476
 6938TIP3   OH242304   4.946   3.030   6.067 -0.3562 -0.0988  0.2843
 6938TIP3    H142305   4.856   3.060   6.082 -0.1373  0.9188 -0.3745
 6938TIP3    H242306   4.943   2.936   6.085 -1.4083  0.0305  0.8867
 6939TIP3   OH242307   3.368   0.973  16.137  0.2114  0.3662 -0.3043
 6939TIP3    H142308   3.361   1.058  16.181 -1.0610 -0.0772  0.4130
 6939TIP3    H242309   3.450   0.936  16.170 -0.0442  0.6302  0.6570
 6940TIP3   OH242310   5.412   3.370   1.526  0.0907 -0.1439  0.4718
 6940TIP3    H142311   5.378   3.457   1.504 -0.4669 -0.8511 -1.7399
 6940TIP3    H242312   5.505   3.384   1.543  0.2381  0.7487 -0.9216
 6941TIP3   OH242313   2.677   0.627  12.976  0.1013  0.0893 -0.0508
 6941TIP3    H142314   2.759   0.658  13.014 -0.1146 -0.0547  0.5381
 6941TIP3    H242315   2.670   0.536  13.004 -1.2052  0.6313  1.5516
 6942TIP3   OH242316   4.769   4.335   2.145  0.2406 -0.2418  0.7381
 6942TIP3    H142317   4.826   4.353   2.220 -0.3004 -1.6330  1.5259
 6942TIP3    H242318   4.786   4.243   2.123  0.3297  0.1146 -0.8222
 6943TIP3   OH242319   2.826   6.146  10.765  0.5004 -0.1925  0.4458
 6943TIP3    H142320   2.748   6.105  10.726  1.5759  0.7125 -3.0979
 6943TIP3    H242321   2.818   6.238  10.742  1.5517  0.3134  2.0057
 6944TIP3   OH242322   6.636   2.619   5.665 -0.7909  0.0749 -0.7132
 6944TIP3    H142323   6.580   2.696   5.666 -1.1739 -0.1923  1.3690
 6944TIP3    H242324   6.578   2.548   5.637 -0.3322  0.5376 -3.0850
 6945TIP3   OH242325   6.744   1.656  16.458 -0.5020  0.4438 -0.0672
 6945TIP3    H142326   6.838   1.645  16.471 -0.4563  0.5411 -0.3160
 6945TIP3    H242327   6.711   1.566  16.448 -0.2680  0.4667 -1.1157
 6946TIP3   OH242328   1.508   3.388  15.469 -0.6007  0.1354 -1.1395
 6946TIP3    H142329   1.586   3.432  15.505 -0.1748 -0.3144 -1.4943
 6946TIP3    H242330   1.541   3.304  15.438 -0.8014  0.7471 -3.1670
 6947TIP3   OH242331   1.156   5.822  16.391  0.0001  0.0222  0.6742
 6947TIP3    H142332   1.085   5.783  16.341 -0.8316  0.9347  1.1155
 6947TIP3    H242333   1.233   5.814  16.334 -0.8867  0.9147 -0.7056
 6948TIP3   OH242334   1.108   4.094   5.154 -0.2584 -0.3011 -0.7120
 6948TIP3    H142335   1.158   4.013   5.143 -1.4103 -1.0097 -0.8972
 6948TIP3    H242336   1.017   4.068   5.139 -0.6664  0.9950 -0.5777
 6949TIP3   OH242337   3.756   2.344  12.095 -0.5969  0.5117  0.4215
 6949TIP3    H142338   3.808   2.424  12.084 -1.1671  1.1659  2.1437
 6949TIP3    H242339   3.665   2.374  12.088 -0.8622  0.3027  2.4592
 6950TIP3   OH242340   0.955   2.377   1.347 -0.2340  0.3335  0.2178
 6950TIP3    H142341   1.029   2.317   1.346  0.0045  0.6260 -0.2386
 6950TIP3    H242342   0.909   2.358   1.428  0.2260  0.0091  0.4043
 6951TIP3   OH242343   2.952   3.451   2.629 -0.4199 -0.0618 -0.5487
 6951TIP3    H142344   2.938   3.473   2.721 -0.2142 -1.0987 -0.2536
 6951TIP3    H242345   2.948   3.355   2.627 -2.2454  0.0022 -1.9325
 6952TIP3   OH242346   2.054   5.908  13.925  0.7932 -0.5787  0.0022
 6952TIP3    H142347   2.133   5.933  13.972  1.2684  2.3184 -2.0694
 6952TIP3    H242348   1.999   5.986  13.926 -1.3143 -1.9748 -0.1026
 6953TIP3   OH242349   2.429   4.627  12.614 -0.2791 -0.8510 -0.7318
 6953TIP3    H142350   2.472   4.597  12.694 -0.1180 -0.4025 -0.6482
 6953TIP3    H242351   2.422   4.721  12.624 -1.3255 -0.9144 -0.7332
 6954TIP3   OH242352   5.216   5.595  14.750 -0.4976  0.0320  0.1007
 6954TIP3    H142353   5.302   5.637  14.746  0.2890 -1.3517  1.3776
 6954TIP3    H242354   5.233   5.509  14.789 -2.2154 -1.0061 -1.2954
 6955TIP3   OH242355   0.793   2.720   3.265 -0.6927 -0.7739 -0.3279
 6955TIP3    H142356   0.755   2.635   3.288 -0.5306 -0.4431  1.3339
 6955TIP3    H242357   0.879   2.699   3.228 -0.2864 -1.3285  0.8790
 6956TIP3   OH242358   4.172   5.672   6.462  0.4711 -0.2034 -0.0860
 6956TIP3    H142359   4.125   5.592   6.488  0.7050 -0.0511  0.8452
 6956TIP3    H242360   4.263   5.655   6.488  0.9444 -0.4696 -1.8117
 6957TIP3   OH242361   5.291   0.005   3.544  0.2882  0.0338 -1.4429
 6957TIP3    H142362   5.357   0.026   3.478  1.0596 -1.1263 -1.0670
 6957TIP3    H242363   5.293  -0.091   3.551  0.9328  0.1583  0.9599
 6958TIP3   OH242364   4.675   2.745   4.843 -0.2230 -0.5035  0.3543
 6958TIP3    H142365   4.740   2.786   4.786 -0.0464  1.2090  1.6686
 6958TIP3    H242366   4.715   2.746   4.930 -2.0921  1.0857  1.3163
 6959TIP3   OH242367   6.416   2.217  16.100  0.1162  0.3698 -0.0780
 6959TIP3    H142368   6.454   2.304  16.093  0.9638 -0.0983 -1.7862
 6959TIP3    H242369   6.331   2.224  16.057  0.7672  0.0602 -1.4684
 6960TIP3   OH242370   2.785   2.476  11.585  0.1472  0.3336 -0.0932
 6960TIP3    H142371   2.840   2.551  11.605  1.5936 -0.4427 -0.9524
 6960TIP3    H242372   2.769   2.482  11.491  2.1585 -1.5466 -0.6461
 6961TIP3   OH242373   4.369   5.555   5.196 -0.5394 -0.5207 -0.1289
 6961TIP3    H142374   4.320   5.473   5.199 -0.2784 -0.6582  0.4899
 6961TIP3    H242375   4.307   5.618   5.160 -2.1160 -0.0741  3.0498
 6962TIP3   OH242376   5.780   2.933   1.705 -0.9501 -0.4289  0.2449
 6962TIP3    H142377   5.857   2.990   1.698 -1.1671  0.0950  1.7325
 6962TIP3    H242378   5.815   2.851   1.740 -0.9551 -0.4771  0.1380
 6963TIP3   OH242379   5.520   3.318  11.474 -0.0714 -0.3338  0.6811
 6963TIP3    H142380   5.492   3.272  11.394 -0.6371 -0.8492  1.1660
 6963TIP3    H242381   5.486   3.407  11.463 -0.5863 -0.5405  0.5690
 6964TIP3   OH242382   1.836   6.542  15.745 -0.5742  0.2838  0.6028
 6964TIP3    H142383   1.920   6.497  15.756 -1.0956 -0.9949 -0.3864
 6964TIP3    H242384   1.770   6.476  15.765 -1.3964 -0.0030 -2.5408
 6965TIP3   OH242385   6.855   1.247  15.011 -0.8673  0.7888  0.3148
 6965TIP3    H142386   6.887   1.180  15.071  1.6788  1.7956  0.2315
 6965TIP3    H242387   6.763   1.257  15.033 -0.7426 -1.0499  1.9373
 6966TIP3   OH242388   3.406   2.347  11.748  0.6351  0.2153 -0.1024
 6966TIP3    H142389   3.457   2.428  11.755 -0.2373  0.6690  1.3848
 6966TIP3    H242390   3.470   2.277  11.753  1.0794  0.7173  3.4254
 6967TIP3   OH242391   0.719   2.781  14.261 -0.1139 -0.1833  0.4271
 6967TIP3    H142392   0.728   2.839  14.337 -0.3985 -1.0788  1.1600
 6967TIP3    H242393   0.738   2.837  14.186 -0.3514  0.8521  1.1196
 6968TIP3   OH242394   4.776   2.669  13.683 -0.6418 -0.3147 -0.0212
 6968TIP3    H142395   4.859   2.703  13.650 -1.2771  0.0904 -1.2737
 6968TIP3    H242396   4.762   2.715  13.766 -0.7773  1.4530 -0.9720
 6969TIP3   OH242397   2.898   1.858  14.863  0.5216 -0.2111 -0.4487
 6969TIP3    H142398   2.847   1.850  14.944  2.6271  0.3621  1.0349
 6969TIP3    H242399   2.884   1.775  14.817 -1.3868 -0.2199  0.0726
 6970TIP3   OH242400   6.859   3.497  13.926  0.1926  0.5526 -0.3055
 6970TIP3    H142401   6.895   3.585  13.913  0.9595  0.3392  0.2545
 6970TIP3    H242402   6.924   3.453  13.981 -0.8520  0.0894  0.6061
 6971TIP3   OH242403   3.121   4.710  16.572  0.1142 -0.5164 -0.1279
 6971TIP3    H142404   3.138   4.774  16.642 -0.3508 -0.9479  0.3791
 6971TIP3    H242405   3.029   4.722  16.550  0.1917 -0.5666 -0.4861
 6972TIP3   OH242406   3.036   0.581  14.339  0.2947  0.3839  0.4627
 6972TIP3    H142407   3.027   0.547  14.428  0.5459 -0.7696  0.0687
 6972TIP3    H242408   3.047   0.503  14.285 -2.9185  0.8010 -1.0146
 6973TIP3   OH242409   1.118   5.508   3.479 -0.1873 -0.4061 -0.5208
 6973TIP3    H142410   1.078   5.588   3.447  0.9880  0.4197  0.0218
 6973TIP3    H242411   1.197   5.497   3.425 -1.7963 -2.8380 -2.6434
 6974TIP3   OH242412   1.873   4.615  11.409  0.4511 -0.0003 -0.0240
 6974TIP3    H142413   1.920   4.624  11.327  1.3100  1.0660  0.5606
 6974TIP3    H242414   1.846   4.523  11.411 -0.3139  0.1417 -1.8570
 6975TIP3   OH242415   2.481   6.077   0.489  0.3327 -0.1922 -0.2780
 6975TIP3    H142416   2.462   6.107   0.400 -0.2522 -1.3651 -0.5625
 6975TIP3    H242417   2.570   6.041   0.483  0.6528  0.5542 -0.1602
 6976TIP3   OH242418   3.618   5.368   4.483 -0.0364  0.3447 -0.0233
 6976TIP3    H142419   3.636   5.310   4.409  0.4789  0.9789 -0.4022
 6976TIP3    H242420   3.674   5.444   4.469  0.6162  0.1631  1.4084
 6977TIP3   OH242421   5.471   5.158  14.111  0.4077 -0.4128 -0.2655
 6977TIP3    H142422   5.386   5.196  14.132  0.4360  0.3071 -1.3948
 6977TIP3    H242423   5.462   5.065  14.132 -0.1725 -0.0794  1.0117
 6978TIP3   OH242424   0.109   2.003  14.504 -0.6599 -0.4309  0.2590
 6978TIP3    H142425   0.192   2.050  14.493 -1.1161  0.1623 -0.8565
 6978TIP3    H242426   0.070   2.004  14.417 -2.0052 -0.3817  0.8363
 6979TIP3   OH242427   0.704   0.567  12.535 -0.5761 -0.0048  0.1234
 6979TIP3    H142428   0.664   0.489  12.574 -1.1450 -0.1020 -0.6455
 6979TIP3    H242429   0.738   0.616  12.610 -0.1537 -1.0157  0.6100
 6980TIP3   OH242430   1.964   1.698  14.345 -0.2447 -0.6734 -0.1664
 6980TIP3    H142431   1.962   1.701  14.249  1.6375 -0.2857 -0.2356
 6980TIP3    H242432   2.022   1.625  14.366  1.2375  0.6405  0.5846
 6981TIP3   OH242433   2.033   1.858  15.423  0.1254 -0.3568 -0.2035
 6981TIP3    H142434   2.116   1.812  15.433  2.0487  2.6905 -0.7779
 6981TIP3    H242435   2.020   1.903  15.506 -0.0578  0.4847 -0.6757
 6982TIP3   OH242436   1.426   3.175   2.972 -0.4509 -0.4504 -0.0196
 6982TIP3    H142437   1.372   3.109   3.017 -3.1447  0.6946 -1.3631
 6982TIP3    H242438   1.367   3.248   2.957  1.8354  1.3875 -0.6532
 6983TIP3   OH242439   4.621   0.361  16.556  0.1793  0.1888 -0.1508
 6983TIP3    H142440   4.687   0.338  16.621 -0.0264  0.1941  0.0624
 6983TIP3    H242441   4.554   0.408  16.606  1.1681  2.3860 -0.7522
 6984TIP3   OH242442   0.807   6.358   4.072 -0.0337 -0.1755  0.0545
 6984TIP3    H142443   0.893   6.379   4.035 -0.0252  0.9935  0.6942
 6984TIP3    H242444   0.755   6.438   4.059  0.6047  1.2187  4.4458
 6985TIP3   OH242445   3.158   5.412  15.822  0.6607 -0.0962  0.0907
 6985TIP3    H142446   3.202   5.398  15.738  0.2062 -0.2509 -0.1198
 6985TIP3    H242447   3.142   5.324  15.856 -3.2257 -0.2923 -1.7620
 6986TIP3   OH242448   3.245   2.197  16.004  0.4672  0.2733 -0.0553
 6986TIP3    H142449   3.267   2.278  16.049  2.6084  1.1770 -2.5339
 6986TIP3    H242450   3.316   2.137  16.027  1.7239  0.8189 -2.2259
 6987TIP3   OH242451   6.235   1.419  12.390  0.1824 -0.2635  0.3379
 6987TIP3    H142452   6.186   1.501  12.390  0.3186 -0.1749 -0.1817
 6987TIP3    H242453   6.216   1.379  12.475 -0.9614 -0.3287  0.0674
 6988TIP3   OH242454   0.220   5.004  16.900 -0.0688  0.6113 -0.0414
 6988TIP3    H142455   0.174   4.966  16.975 -1.1798  1.2316 -0.3919
 6988TIP3    H242456   0.225   4.932  16.837  0.2123  0.3002  0.3252
 6989TIP3   OH242457   6.743   0.826   0.883 -0.1257  0.1097  0.5144
 6989TIP3    H142458   6.755   0.731   0.888  0.5090  0.2054  0.8373
 6989TIP3    H242459   6.651   0.839   0.909 -0.0092 -0.3562  1.1930
 6990TIP3   OH242460   4.948   2.011   4.518 -0.1264  0.0418  0.3048
 6990TIP3    H142461   4.870   2.018   4.462  0.9276  0.6490 -1.1281
 6990TIP3    H242462   4.953   2.096   4.563 -0.0594  0.1429  0.1041
 6991TIP3   OH242463   5.812   2.178  11.524 -0.2298 -0.3269 -0.0582
 6991TIP3    H142464   5.745   2.119  11.559  1.5847 -1.7524  1.2815
 6991TIP3    H242465   5.770   2.224  11.452 -2.1440 -2.3287 -0.3069
 6992TIP3   OH242466   5.765   4.615  11.805 -0.2124  0.1132 -0.4139
 6992TIP3    H142467   5.760   4.572  11.890  0.2069  0.0031 -0.4429
 6992TIP3    H242468   5.798   4.548  11.746 -2.4166 -0.4490 -1.1168
 6993TIP3   OH242469   3.927   0.668   0.758  0.2762 -0.2542  0.1010
 6993TIP3    H142470   3.966   0.624   0.683  0.7836 -0.7082  0.6234
 6993TIP3    H242471   3.834   0.673   0.737  0.4494 -0.1390 -0.6726
 6994TIP3   OH242472   1.827   3.118  11.158  0.0443 -0.1142 -0.0216
 6994TIP3    H142473   1.898   3.074  11.110  0.5472  0.7913 -0.1277
 6994TIP3    H242474   1.763   3.140  11.090  0.5314  0.7318 -0.2182
 6995TIP3   OH242475   5.632   6.111  14.402  0.2123 -0.3448  0.6634
 6995TIP3    H142476   5.685   6.095  14.324  0.2726  0.7710  0.4634
 6995TIP3    H242477   5.626   6.026  14.445  1.2302 -0.7120  0.0968
 6996TIP3   OH242478   1.611   4.293  16.981 -0.1836  0.4031 -0.5170
 6996TIP3    H142479   1.666   4.342  16.919 -0.0315 -0.2897 -0.9358
 6996TIP3    H242480   1.654   4.306  17.066  0.6779 -0.1913 -0.8488
 6997TIP3   OH242481   1.515   3.601   1.363 -0.0384  0.4988  0.3957
 6997TIP3    H142482   1.506   3.590   1.458 -0.7150  0.0710  0.2870
 6997TIP3    H242483   1.444   3.660   1.339 -1.7117 -1.6803 -0.2459
 6998TIP3   OH242484   0.970   1.773  13.218  0.4429  0.0583  0.3158
 6998TIP3    H142485   0.958   1.768  13.123 -0.7736  0.0921  0.4526
 6998TIP3    H242486   0.890   1.734  13.254  0.9339 -0.0428  1.3299
 6999TIP3   OH242487   3.628   4.333   0.166  0.4785  0.0944  0.0911
 6999TIP3    H142488   3.598   4.416   0.131  1.6141  1.3697  1.9406
 6999TIP3    H242489   3.555   4.273   0.152  0.2770  0.9006 -2.8235
 7000TIP3   OH242490   4.276   6.679  13.276 -0.8181  0.2678 -0.3314
 7000TIP3    H142491   4.318   6.593  13.274 -0.0617  0.6231  0.0550
 7000TIP3    H242492   4.182   6.659  13.275 -0.7466 -0.6829  2.6939
 7001TIP3   OH242493   4.479   6.682  14.419  0.1128 -0.2920  0.4276
 7001TIP3    H142494   4.446   6.705  14.507 -1.0025 -1.5302  0.3618
 7001TIP3    H242495   4.553   6.625  14.435 -0.3683 -0.8856  0.5815
 7002TIP3   OH242496   6.347   4.849  12.750  0.4282 -0.3502  0.2060
 7002TIP3    H142497   6.286   4.803  12.808  0.5534 -1.0306 -0.1875
 7002TIP3    H242498   6.294   4.919  12.711  0.3319  0.0873  1.0902
 7003TIP3   OH242499   0.575   5.590   5.348  0.0733 -0.0278  0.2834
 7003TIP3    H142500   0.604   5.655   5.283  0.6261 -0.6433 -0.0926
 7003TIP3    H242501   0.499   5.548   5.307  0.3209 -0.3010  0.0982
 7004TIP3   OH242502   6.733   5.586  12.053  0.5417 -0.3044  0.6574
 7004TIP3    H142503   6.740   5.539  12.135 -0.4838  0.1481  1.0210
 7004TIP3    H242504   6.802   5.653  12.057  0.8763 -0.6599  0.8787
 7005TIP3   OH242505   0.959   4.526  16.156 -0.2841  0.1699  0.6558
 7005TIP3    H142506   0.890   4.497  16.097  0.0801 -0.2333  0.4213
 7005TIP3    H242507   0.956   4.622  16.151 -0.6108  0.1466  0.3983
 7006TIP3   OH242508   6.858   5.415  11.023 -0.3323  0.3486 -0.2402
 7006TIP3    H142509   6.934   5.365  10.994  0.9890  1.3317  1.3584
 7006TIP3    H242510   6.817   5.361  11.090 -1.2007 -0.2733 -1.2474
 7007TIP3   OH242511   4.199   6.820   5.250  0.0454 -0.4384 -0.2884
 7007TIP3    H142512   4.233   6.881   5.315 -0.1329 -2.0171  1.3597
 7007TIP3    H242513   4.129   6.869   5.205 -0.6766  0.3159  1.5544
 7008TIP3   OH242514   1.487   4.865   1.207  0.2377 -0.0666  0.1555
 7008TIP3    H142515   1.415   4.853   1.146  1.5065  2.4710 -2.0366
 7008TIP3    H242516   1.478   4.955   1.239  2.1537  0.2065  0.0887
 7009TIP3   OH242517   6.548   3.109   5.386 -0.3467  0.1202 -0.3303
 7009TIP3    H142518   6.597   3.161   5.448 -2.1560  0.2622  1.0610
 7009TIP3    H242519   6.560   3.153   5.302  0.4174  1.1443  0.3021
 7010TIP3   OH242520   5.798   2.978   5.209  0.4785 -0.5338  0.1635
 7010TIP3    H142521   5.833   2.963   5.121  3.9096 -1.5153  1.5219
 7010TIP3    H242522   5.742   2.902   5.225 -1.1186  0.2075 -1.4720
 7011TIP3   OH242523   5.063   6.139  14.798 -0.2178 -0.0076  0.7187
 7011TIP3    H142524   5.055   6.156  14.704  1.6210  1.0951  0.7283
 7011TIP3    H242525   5.144   6.181  14.823 -1.4473  1.0998  3.1376
 7012TIP3   OH242526   0.850   0.562  15.542 -0.2567 -0.2422 -0.0369
 7012TIP3    H142527   0.782   0.620  15.509  2.5787  3.1239 -0.5660
 7012TIP3    H242528   0.891   0.525  15.464 -0.0609 -0.4497  0.1624
 7013TIP3   OH242529   4.206   3.543  11.669 -0.4901  0.0474 -0.1374
 7013TIP3    H142530   4.232   3.511  11.756 -0.9475 -1.2643 -0.4655
 7013TIP3    H242531   4.136   3.484  11.641 -0.6728  0.7409 -1.2055
 7014TIP3   OH242532   0.786   3.651  13.115 -0.1123  0.0473 -0.0433
 7014TIP3    H142533   0.790   3.705  13.036  2.8794 -1.5390 -1.1558
 7014TIP3    H242534   0.711   3.684  13.163 -0.4867  2.8462 -2.2785
 7015TIP3   OH242535   2.854   4.812   4.067  0.5976  0.8600  0.2816
 7015TIP3    H142536   2.872   4.721   4.044  0.9637  0.8188  0.7098
 7015TIP3    H242537   2.796   4.807   4.143 -2.0296  0.9907 -1.6088
 7016TIP3   OH242538   3.265   5.510   5.597 -0.0246 -0.2578  0.0280
 7016TIP3    H142539   3.328   5.572   5.633 -0.8648  0.6469 -0.0392
 7016TIP3    H242540   3.236   5.459   5.673  0.8266 -0.7340  0.0485
 7017TIP3   OH242541   0.765   1.904   4.729 -0.6144  0.1718  0.3025
 7017TIP3    H142542   0.778   1.961   4.804 -1.2675 -1.1680  1.4704
 7017TIP3    H242543   0.686   1.937   4.686 -0.5182  0.6435  0.4879
 7018TIP3   OH242544   3.046   4.838   5.210 -0.5595  0.0429 -0.2834
 7018TIP3    H142545   2.957   4.815   5.185 -0.7547  0.6932 -0.1996
 7018TIP3    H242546   3.101   4.775   5.163 -0.9405  0.9861 -2.0610
 7019TIP3   OH242547   6.662   5.097   5.420 -0.0694 -0.1184 -0.0597
 7019TIP3    H142548   6.639   5.112   5.328 -0.9774 -1.3420 -0.0612
 7019TIP3    H242549   6.584   5.124   5.469  0.7855  1.5335  0.4719
 7020TIP3   OH242550   6.006   2.037   6.139 -0.0707 -0.2377 -0.2578
 7020TIP3    H142551   5.939   2.019   6.205  0.6601 -0.6830  0.3825
 7020TIP3    H242552   6.000   1.964   6.078  0.4383 -0.7692  0.3131
 7021TIP3   OH242553   1.605   0.671   1.658 -0.3315  0.0120 -0.3445
 7021TIP3    H142554   1.646   0.620   1.727  0.1920 -1.3192 -1.6111
 7021TIP3    H242555   1.622   0.762   1.683 -0.5847 -0.4045  1.5170
 7022TIP3   OH242556   1.080   5.780  12.406 -0.0224  0.0815  0.1631
 7022TIP3    H142557   1.165   5.766  12.448  1.8690  0.6026 -3.1788
 7022TIP3    H242558   1.076   5.874  12.391 -2.2790  0.4084  2.1129
 7023TIP3   OH242559   6.305   6.706   3.799 -0.1057 -0.5408  0.2708
 7023TIP3    H142560   6.271   6.745   3.879 -2.2578 -0.2821 -0.6992
 7023TIP3    H242561   6.343   6.779   3.750 -2.8328  0.2409 -0.8901
 7024TIP3   OH242562   2.577   1.096   3.505  0.3434  0.4663  1.3986
 7024TIP3    H142563   2.507   1.058   3.558  0.2236  0.1046  0.9851
 7024TIP3    H242564   2.570   1.051   3.421  1.2078  0.2914  1.4211
 7025TIP3   OH242565   4.440   0.916  11.089  0.4013  0.0799 -0.3615
 7025TIP3    H142566   4.396   0.867  11.020  1.6705 -1.2997 -0.2324
 7025TIP3    H242567   4.437   1.007  11.060 -1.0409 -0.1990 -1.1358
 7026TIP3   OH242568   4.362   4.595  14.975 -0.2857 -0.3724  0.0223
 7026TIP3    H142569   4.372   4.500  14.972 -0.0170 -0.3524  0.2580
 7026TIP3    H242570   4.452   4.628  14.982 -0.3991 -0.1108  0.2448
 7027TIP3   OH242571   1.964   1.121   0.603  0.0135 -0.0751  0.0899
 7027TIP3    H142572   1.905   1.074   0.544 -0.6594 -0.1341  0.7958
 7027TIP3    H242573   2.008   1.184   0.546  1.5839 -2.0913 -1.0525
 7028TIP3   OH242574   6.783   1.555  14.355  0.6670  0.8194 -0.1112
 7028TIP3    H142575   6.717   1.616  14.322  0.2753  0.3630 -0.1856
 7028TIP3    H242576   6.862   1.575  14.304  0.2807  0.6370 -0.7920
 7029TIP3   OH242577   0.972   1.200   0.284 -0.1768  0.4400 -0.3406
 7029TIP3    H142578   0.996   1.148   0.360  0.7088  0.7181 -0.4245
 7029TIP3    H242579   0.919   1.272   0.319 -1.4964 -0.5291 -0.2319
 7030TIP3   OH242580   0.316   0.543   2.791 -0.5405 -0.5062  0.2984
 7030TIP3    H142581   0.278   0.630   2.800 -0.1873 -0.2244 -0.7514
 7030TIP3    H242582   0.260   0.486   2.843 -2.4117 -0.1047 -1.1945
 7031TIP3   OH242583   5.829   3.835  16.205 -0.0247 -0.3669 -0.5126
 7031TIP3    H142584   5.860   3.837  16.115  0.8527 -0.3629 -0.2259
 7031TIP3    H242585   5.901   3.795  16.254 -1.3922 -2.5539 -0.1363
 7032TIP3   OH242586   0.582   2.407   2.266 -0.5250 -0.5489  0.7926
 7032TIP3    H142587   0.632   2.347   2.210  0.8392  0.8088  0.4960
 7032TIP3    H242588   0.563   2.355   2.344  2.0449 -0.9556  1.2618
 7033TIP3   OH242589   0.236   3.266   0.881 -0.1005 -0.1955  0.1604
 7033TIP3    H142590   0.220   3.268   0.787 -1.1873 -0.0803  0.3440
 7033TIP3    H242591   0.321   3.310   0.891  0.3513 -0.8037 -0.8193
 7034TIP3   OH242592   4.821   0.724   4.449  0.2550  0.0029 -0.3826
 7034TIP3    H142593   4.812   0.635   4.484 -1.1956 -0.0480 -0.8144
 7034TIP3    H242594   4.831   0.711   4.355 -1.0077  0.3245 -0.5706
 7035TIP3   OH242595   1.362   5.588   1.825 -0.0222 -0.4582  0.3830
 7035TIP3    H142596   1.316   5.557   1.747  0.6758  0.2053 -0.3060
 7035TIP3    H242597   1.293   5.596   1.892 -1.0655  1.2538 -0.8290
 7036TIP3   OH242598   5.121   5.524   3.539  0.0035  0.1343  0.1755
 7036TIP3    H142599   5.103   5.571   3.621 -0.9428 -1.1159  0.7107
 7036TIP3    H242600   5.158   5.440   3.567  1.5337  0.4594 -0.7619
 7037TIP3   OH242601   0.858   0.024   4.253  0.0858 -0.7577 -0.2362
 7037TIP3    H142602   0.948   0.057   4.245  0.6280 -2.5086 -2.0748
 7037TIP3    H242603   0.866  -0.058   4.301 -0.3841 -1.4011 -1.2238
 7038TIP3   OH242604   1.723   5.154   1.265 -0.3794 -0.3447 -0.3288
 7038TIP3    H142605   1.629   5.140   1.274 -0.8546  2.3861 -0.0291
 7038TIP3    H242606   1.733   5.183   1.174 -0.3781  2.3793  0.4618
 7039TIP3   OH242607   5.195   0.553   3.796  0.5002 -0.0771  0.1024
 7039TIP3    H142608   5.235   0.602   3.868  1.9742  0.0516 -0.7818
 7039TIP3    H242609   5.125   0.610   3.764  0.7181  0.4400  0.5417
 7040TIP3   OH242610   3.978   5.932   0.213  0.0664 -0.0602  0.5925
 7040TIP3    H142611   4.041   5.871   0.175  0.3258  1.2747 -1.2904
 7040TIP3    H242612   4.028   6.012   0.229 -0.9110  0.7203 -0.0696
 7041TIP3   OH242613   3.551   4.281   0.441  0.3548  0.7036  0.5594
 7041TIP3    H142614   3.493   4.268   0.366  0.2266 -0.7726  0.8844
 7041TIP3    H242615   3.610   4.351   0.413 -0.6950  1.2758 -0.3012
 7042TIP3   OH242616   1.179   2.878   1.274 -0.1044 -0.3360  0.5248
 7042TIP3    H142617   1.145   2.791   1.297 -3.0692  0.1558 -1.5417
 7042TIP3    H242618   1.140   2.898   1.190  1.0216  2.7838  0.6200
 7043TIP3   OH242619   0.335   5.461  12.925 -0.2398  0.6708 -0.4795
 7043TIP3    H142620   0.339   5.404  13.002  0.2129  0.3351 -0.7448
 7043TIP3    H242621   0.296   5.542  12.957  0.8092  0.8800  0.3381
 7044TIP3   OH242622   5.792   4.195  14.116  0.1247 -0.2427 -0.0680
 7044TIP3    H142623   5.758   4.283  14.129 -0.6340 -0.1936 -1.9931
 7044TIP3    H242624   5.724   4.137  14.149  0.1164 -0.1098  0.1467
 7045TIP3   OH242625   3.746   6.863   3.655 -0.4361  0.2976  0.3337
 7045TIP3    H142626   3.761   6.832   3.566  0.4600  3.2437 -0.6471
 7045TIP3    H242627   3.816   6.823   3.707  0.2212  0.0884 -0.6896
 7046TIP3   OH242628   1.132   2.618   1.374  0.7889  0.1460 -0.3372
 7046TIP3    H142629   1.058   2.559   1.363  1.9273 -1.0430 -2.1285
 7046TIP3    H242630   1.208   2.560   1.376  1.9855  1.5095 -2.5907
 7047TIP3   OH242631   4.641   1.708   5.981 -0.5406 -0.1552 -0.4423
 7047TIP3    H142632   4.607   1.621   6.003  0.0062 -0.6267 -1.3721
 7047TIP3    H242633   4.565   1.765   5.985 -1.1404 -0.8964 -0.9316
 7048TIP3   OH242634   0.935   5.129  15.391 -0.0674 -0.2777  0.5665
 7048TIP3    H142635   0.967   5.191  15.456 -0.0190  0.3687 -0.0592
 7048TIP3    H242636   1.012   5.078  15.366 -0.3150 -1.3191  1.8495
 7049TIP3   OH242637   3.975   4.845  10.752 -0.2305  0.2443 -0.3955
 7049TIP3    H142638   4.026   4.770  10.783 -0.8439  0.3973  1.0414
 7049TIP3    H242639   4.041   4.912  10.732  0.2100 -0.0361  0.0967
 7050TIP3   OH242640   2.457   6.818   3.414  0.0910  0.2786 -0.3141
 7050TIP3    H142641   2.377   6.828   3.363 -0.3683  1.5947  0.6039
 7050TIP3    H242642   2.521   6.784   3.352 -0.6791  0.9920 -1.5491
 7051TIP3   OH242643   2.005   1.853   3.570  0.1779  0.2549  0.2203
 7051TIP3    H142644   1.974   1.943   3.570  0.2326  0.3040  2.2378
 7051TIP3    H242645   1.926   1.800   3.585  0.3113  0.0380  0.1699
 7052TIP3   OH242646   3.199   2.334  17.091 -0.3559  0.1870  0.6163
 7052TIP3    H142647   3.184   2.257  17.147  0.4870  0.5006  1.2952
 7052TIP3    H242648   3.193   2.408  17.151  1.0135  0.5052  0.3873
 7053TIP3   OH242649   2.349   6.706  11.733 -0.5219 -0.0980  0.1809
 7053TIP3    H142650   2.400   6.744  11.662 -0.5178 -0.2292  0.1141
 7053TIP3    H242651   2.360   6.768  11.806 -1.5757  0.6991 -0.3279
 7054TIP3   OH242652   4.137   4.829  16.149 -0.0260 -0.2020 -0.1778
 7054TIP3    H142653   4.206   4.843  16.084 -1.0714  0.0534 -1.2808
 7054TIP3    H242654   4.164   4.881  16.225  1.1475 -0.3792 -0.4556
 7055TIP3   OH242655   4.182   6.295   4.682  0.5943  0.2853 -0.0252
 7055TIP3    H142656   4.151   6.386   4.675 -0.7448 -0.1441  0.0040
 7055TIP3    H242657   4.277   6.301   4.674  0.5783  1.7527  0.5574
 7056TIP3   OH242658   6.556   6.612   5.372  0.3103  0.1598 -0.0701
 7056TIP3    H142659   6.571   6.518   5.386 -1.6677  0.0030  1.4548
 7056TIP3    H242660   6.581   6.653   5.454 -2.0586  0.5092  0.5376
 7057TIP3   OH242661   2.633   5.243  12.256 -0.1922 -0.4783 -0.0556
 7057TIP3    H142662   2.637   5.166  12.312  0.4603 -0.7749 -0.4935
 7057TIP3    H242663   2.575   5.217  12.184 -0.8625 -0.1702  0.3650
 7058TIP3   OH242664   2.681   4.320   2.049 -0.1008 -0.4551  0.1928
 7058TIP3    H142665   2.609   4.289   1.995  0.0309 -0.4770  0.0298
 7058TIP3    H242666   2.753   4.258   2.032  0.9633  1.2272 -1.9393
 7059TIP3   OH242667   1.238   4.608  12.100  0.2948 -0.4583  0.3960
 7059TIP3    H142668   1.248   4.653  12.016  2.1951 -0.3578  0.6368
 7059TIP3    H242669   1.254   4.516  12.080 -2.4199 -0.9495  0.1211
 7060TIP3   OH242670   2.850   4.797  14.945  0.2871  0.2782 -0.3469
 7060TIP3    H142671   2.866   4.770  15.035  1.8058  1.0226 -0.3739
 7060TIP3    H242672   2.934   4.787  14.901 -0.0888  1.2278 -1.3304
 7061TIP3   OH242673   2.694   2.911   2.366  0.2299 -0.2033 -0.8453
 7061TIP3    H142674   2.617   2.961   2.339  1.2067  0.5182 -2.4334
 7061TIP3    H242675   2.666   2.820   2.363 -0.6410  0.0628 -1.1394
 7062TIP3   OH242676   5.204   0.887  12.391 -0.2834  0.0094  0.5174
 7062TIP3    H142677   5.257   0.944  12.446  1.5555  0.3541 -1.4893
 7062TIP3    H242678   5.263   0.815  12.367 -0.4136  0.7671 -2.3644
 7063TIP3   OH242679   4.187   2.984  15.325  0.7058 -0.3785 -0.0087
 7063TIP3    H142680   4.135   3.049  15.373  1.2823  2.0637 -2.4770
 7063TIP3    H242681   4.254   2.956  15.387  0.0201  0.8740  1.3495
 7064TIP3   OH242682   0.018   2.797   0.611  0.3586 -0.2727 -0.1246
 7064TIP3    H142683   0.015   2.739   0.687 -0.3647  0.5342  0.4933
 7064TIP3    H242684   0.041   2.741   0.538  0.2550 -1.2169  0.5521
 7065TIP3   OH242685   5.531   5.344   2.823  0.4021  0.2807  0.1945
 7065TIP3    H142686   5.464   5.387   2.877  0.6593 -0.5311  1.2017
 7065TIP3    H242687   5.485   5.269   2.784  0.4725  0.2990  0.0771
 7066TIP3   OH242688   5.585   0.219  13.787  0.2283  0.5079 -0.0257
 7066TIP3    H142689   5.674   0.224  13.822  0.3982 -2.5680  0.2238
 7066TIP3    H242690   5.597   0.210  13.692  0.2710 -0.6761  0.0750
 7067TIP3   OH242691   2.210   0.457  14.470  0.5894  0.8511 -0.6259
 7067TIP3    H142692   2.290   0.473  14.519  0.2165  0.7566  0.0250
 7067TIP3    H242693   2.223   0.501  14.386  0.9851  1.5428 -0.2037
 7068TIP3   OH242694   5.850   2.831   4.664 -0.0462  0.1554 -0.2624
 7068TIP3    H142695   5.831   2.893   4.594  0.2037 -0.5927 -1.0257
 7068TIP3    H242696   5.935   2.858   4.698 -0.7793  1.3526  0.7231
 7069TIP3   OH242697   6.409   4.714  12.419  0.0495 -0.1913 -0.3103
 7069TIP3    H142698   6.320   4.702  12.388  0.1672  1.8185 -1.5557
 7069TIP3    H242699   6.410   4.802  12.457  1.4211 -0.3007 -0.0458
 7070TIP3   OH242700   0.254   6.829  12.558  0.0482 -0.3320  0.1337
 7070TIP3    H142701   0.289   6.918  12.563  0.8197 -0.6474  0.5767
 7070TIP3    H242702   0.191   6.824  12.629 -0.9223  0.2331 -0.6519
 7071TIP3   OH242703   0.618   0.394  10.421 -0.6948  0.4726 -0.2614
 7071TIP3    H142704   0.559   0.321  10.402  1.2347 -1.2329 -0.0912
 7071TIP3    H242705   0.576   0.440  10.494 -0.9635 -1.7729  1.0958
 7072TIP3   OH242706   6.387   2.756  15.354  0.2309  0.0584  0.4282
 7072TIP3    H142707   6.384   2.850  15.335  0.9750  0.6233  2.8213
 7072TIP3    H242708   6.300   2.735  15.387  0.6212  0.3922  1.7461
 7073TIP3   OH242709   4.755   4.279   3.904  0.3105  0.4313 -0.0405
 7073TIP3    H142710   4.741   4.373   3.914 -2.3260  0.0050  1.2832
 7073TIP3    H242711   4.816   4.256   3.973 -0.5595  0.9137  0.9174
 7074TIP3   OH242712   4.965   5.553   1.128  0.2225  0.1171  0.0595
 7074TIP3    H142713   4.892   5.603   1.090 -1.1158 -1.3684  0.5550
 7074TIP3    H242714   5.001   5.504   1.055  0.9575  1.1007 -0.2515
 7075TIP3   OH242715   4.894   3.166  15.287 -0.0104 -0.4609  0.1667
 7075TIP3    H142716   4.819   3.168  15.346  0.1777  1.4362  0.3925
 7075TIP3    H242717   4.966   3.203  15.339  0.3425  0.5172 -0.9831
 7076TIP3   OH242718   2.024   4.127   1.390 -0.5002 -0.2655  0.0118
 7076TIP3    H142719   2.014   4.151   1.298  0.9877 -1.4014 -0.4879
 7076TIP3    H242720   1.939   4.091   1.415 -1.1917  0.8455 -0.6482
 7077TIP3   OH242721   6.593   4.642  14.372  0.1871 -0.0771  0.6667
 7077TIP3    H142722   6.684   4.638  14.399  0.5416 -0.6989 -0.5969
 7077TIP3    H242723   6.595   4.654  14.277 -1.0064 -2.6115  0.2278
 7078TIP3   OH242724   6.493   1.448   4.218  0.4272 -1.0374 -0.1354
 7078TIP3    H142725   6.517   1.481   4.305 -0.6848  0.1890 -0.2689
 7078TIP3    H242726   6.471   1.356   4.233  1.5370 -1.1996  0.6289
 7079TIP3   OH242727   3.988   5.345   4.477  0.1511  0.1300  0.3402
 7079TIP3    H142728   3.948   5.423   4.515  0.7226  0.9770 -0.7465
 7079TIP3    H242729   3.946   5.336   4.391 -1.2729 -1.8642  1.1606
 7080TIP3   OH242730   0.138   0.512   6.362  0.3337  0.0991  0.4305
 7080TIP3    H142731   0.097   0.515   6.449 -0.4638 -0.8653  0.1070
 7080TIP3    H242732   0.232   0.508   6.379  0.1410 -2.7378  1.3738
 7081TIP3   OH242733   6.407   1.965  15.273  0.7178 -0.2980 -0.6281
 7081TIP3    H142734   6.432   1.886  15.227  1.2964 -1.1949  1.1290
 7081TIP3    H242735   6.490   2.005  15.300  0.4558 -1.1845  1.7887
 7082TIP3   OH242736   5.257   5.311  11.469  0.5690 -0.1053  0.3417
 7082TIP3    H142737   5.263   5.405  11.488 -1.1628 -0.0839  0.9594
 7082TIP3    H242738   5.286   5.269  11.550 -0.6625 -0.0655  0.8211
 7083TIP3   OH242739   2.518   2.986  14.971 -0.6438  0.4034 -0.2199
 7083TIP3    H142740   2.545   3.076  14.957 -1.8256  0.8646  0.3454
 7083TIP3    H242741   2.504   2.979  15.066  2.7147 -1.3541  0.2974
 7084TIP3   OH242742   3.304   0.311   2.026  0.2012  0.6492  0.2064
 7084TIP3    H142743   3.330   0.221   2.008  0.4853  0.4347  1.6005
 7084TIP3    H242744   3.234   0.329   1.963 -1.0648 -1.1399  1.0214
 7085TIP3   OH242745   2.640   1.902   1.984  0.1248  0.3443  0.4731
 7085TIP3    H142746   2.711   1.924   2.044 -0.9689  0.5791  1.7142
 7085TIP3    H242747   2.574   1.860   2.038  0.1784 -1.8479 -1.0400
 7086TIP3   OH242748   6.043   1.276   1.471 -0.5623  0.0906 -0.5927
 7086TIP3    H142749   5.972   1.274   1.534 -0.2578  0.3093 -0.2383
 7086TIP3    H242750   6.009   1.230   1.394 -0.1919 -2.1713  0.5095
 7087TIP3   OH242751   3.371   0.645  15.814  0.1002  0.2483 -0.3824
 7087TIP3    H142752   3.379   0.593  15.894 -0.5108  0.5968 -0.0899
 7087TIP3    H242753   3.368   0.580  15.743 -1.1633 -0.1487  0.0139
 7088TIP3   OH242754   5.993   3.969   2.824  0.2794 -0.3080  0.0071
 7088TIP3    H142755   5.931   3.985   2.894  0.2666 -2.0040  0.4293
 7088TIP3    H242756   5.988   4.047   2.769 -0.4987  0.5853  1.2884
 7089TIP3   OH242757   0.418   2.941  10.825  0.2056  0.2500  0.2160
 7089TIP3    H142758   0.409   3.001  10.751  0.9357 -2.6249 -2.4295
 7089TIP3    H242759   0.411   2.997  10.903  0.8112  3.6802 -1.9826
 7090TIP3   OH242760   0.813   2.114  12.280  0.6401  0.0048 -0.2356
 7090TIP3    H142761   0.907   2.120  12.262  0.7863 -0.9568  0.1463
 7090TIP3    H242762   0.805   2.041  12.341 -0.4011 -0.1836 -0.5813
 7091TIP3   OH242763   6.017   1.453  16.294  0.0236  0.8755  0.1239
 7091TIP3    H142764   5.926   1.480  16.308  0.1958  1.0784  0.9053
 7091TIP3    H242765   6.010   1.362  16.264 -0.4322  0.8399  0.3237
 7092TIP3   OH242766   5.815   2.130   3.827  0.4070 -0.3861 -0.8918
 7092TIP3    H142767   5.905   2.135   3.859  1.0989  0.6095 -2.8626
 7092TIP3    H242768   5.765   2.188   3.886  0.6208 -2.2806  1.3229
 7093TIP3   OH242769   5.657   2.382   5.355 -0.3906 -0.2788  0.2975
 7093TIP3    H142770   5.710   2.315   5.310 -0.0420  0.7115 -0.8105
 7093TIP3    H242771   5.574   2.382   5.307 -1.3462 -1.6131  1.8398
 7094TIP3   OH242772   2.238   6.628  15.539  0.1244  1.0089  0.2052
 7094TIP3    H142773   2.308   6.673  15.587  0.8293  0.8513 -0.6553
 7094TIP3    H242774   2.222   6.549  15.591  2.0057  0.0215 -0.6134
 7095TIP3   OH242775   0.169   4.025   3.052  0.6086  0.1272 -0.2460
 7095TIP3    H142776   0.213   4.101   3.091 -0.0472  0.6087 -0.4207
 7095TIP3    H242777   0.094   4.062   3.006 -0.1766 -0.7044  0.3245
 7096TIP3   OH242778   0.248   4.817  11.649 -0.3476 -0.1306 -0.1754
 7096TIP3    H142779   0.218   4.874  11.579 -0.6627  1.3137  1.0751
 7096TIP3    H242780   0.342   4.808  11.633  0.6178  3.9796  1.5874
 7097TIP3   OH242781   6.359   3.651  14.946 -0.0773 -0.7487 -0.3482
 7097TIP3    H142782   6.451   3.628  14.932  0.2379 -0.3575  0.9706
 7097TIP3    H242783   6.310   3.576  14.911  0.6707 -0.4232 -2.1896
 7098TIP3   OH242784   5.253   4.665  16.078 -0.4221  0.1366  0.4093
 7098TIP3    H142785   5.200   4.607  16.023 -0.4546 -0.9085  1.5085
 7098TIP3    H242786   5.245   4.629  16.166 -0.0483  1.5428  1.0503
 7099TIP3   OH242787   4.752   1.249   6.276  0.0163  0.1953 -0.8030
 7099TIP3    H142788   4.710   1.243   6.362 -0.0124 -1.0692 -0.8865
 7099TIP3    H242789   4.680   1.261   6.214 -0.4012 -2.6987 -1.0304
 7100TIP3   OH242790   1.865   1.889  15.055 -0.0585  0.3489 -0.1894
 7100TIP3    H142791   1.810   1.853  15.125 -1.8865  1.3428 -1.0535
 7100TIP3    H242792   1.928   1.945  15.101 -0.4136 -0.0035  0.7512
 7101TIP3   OH242793   1.699   1.515   4.779  0.5009 -0.0331  0.0405
 7101TIP3    H142794   1.707   1.456   4.854 -0.6311 -2.8582 -1.9033
 7101TIP3    H242795   1.776   1.496   4.726  0.7623  1.1979 -0.0422
 7102TIP3   OH242796   0.056   1.071   0.485 -0.2079 -0.1408  0.4191
 7102TIP3    H142797   0.135   1.026   0.455 -1.0049 -1.5783  0.3600
 7102TIP3    H242798  -0.009   1.001   0.494 -1.4276  0.9791  0.6266
 7103TIP3   OH242799   0.025   4.984  15.064 -0.2398  0.8408  0.3782
 7103TIP3    H142800   0.066   4.988  14.977  0.8842  0.3130  0.8674
 7103TIP3    H242801   0.047   5.067  15.105 -2.5441  2.0159 -0.5613
 7104TIP3   OH242802   0.513   4.140  16.887  0.4437 -0.5671  0.1735
 7104TIP3    H142803   0.419   4.155  16.876  0.2793 -2.8255 -2.9122
 7104TIP3    H242804   0.519   4.055  16.931  1.0772 -0.3534  0.5160
 7105TIP3   OH242805   5.935   5.967   2.759  0.0212 -0.0049  0.5541
 7105TIP3    H142806   6.015   6.009   2.726 -0.3045  0.3175  0.1648
 7105TIP3    H242807   5.956   5.943   2.849 -0.0663  1.7569  1.0678
 7106TIP3   OH242808   6.095   3.967   4.461 -0.7330  0.1760 -0.3091
 7106TIP3    H142809   6.051   4.047   4.492 -1.0025  0.0706 -0.4165
 7106TIP3    H242810   6.060   3.897   4.516  0.5592  0.3225  0.7564
 7107TIP3   OH242811   0.905   2.015   2.902  0.3545  0.3428  0.3762
 7107TIP3    H142812   0.873   2.021   2.812  3.0188 -0.5427 -0.7185
 7107TIP3    H242813   0.936   1.925   2.912 -1.5087 -0.1378  2.8470
 7108TIP3   OH242814   3.303   1.940   2.202  0.0985 -0.2633 -0.6861
 7108TIP3    H142815   3.224   1.891   2.180 -0.8475 -0.2174  2.1077
 7108TIP3    H242816   3.272   2.029   2.218  0.3650 -0.5433  1.8270
 7109TIP3   OH242817   1.517   1.524   1.556  0.3625  0.3393 -0.6901
 7109TIP3    H142818   1.602   1.490   1.584  1.1468  1.2225 -1.9337
 7109TIP3    H242819   1.509   1.498   1.464 -0.5469  0.5954 -0.6975
 7110TIP3   OH242820   4.687   2.994  14.227 -0.0145  0.3860  0.1893
 7110TIP3    H142821   4.735   3.022  14.305 -2.1955  0.2720  1.6725
 7110TIP3    H242822   4.664   3.075  14.181 -2.2046  0.8407  1.9147
 7111TIP3   OH242823   2.212   4.922  13.534 -0.4185 -0.6224  0.0085
 7111TIP3    H142824   2.286   4.864  13.549 -0.4648 -0.5611  0.4997
 7111TIP3    H242825   2.226   4.996  13.594 -1.1832 -0.9048  0.5615
 7112TIP3   OH242826   4.392   2.931   1.338 -0.1144 -0.4798 -0.1289
 7112TIP3    H142827   4.438   3.015   1.346 -0.3551 -0.4063  0.6107
 7112TIP3    H242828   4.369   2.925   1.246 -2.0468  1.3307  0.1576
 7113TIP3   OH242829   0.791   1.298  16.260  0.1943  0.1866  0.1023
 7113TIP3    H142830   0.726   1.361  16.228 -0.0034 -1.4497 -3.0423
 7113TIP3    H242831   0.875   1.331  16.228  0.5379  0.5692  1.3469
 7114TIP3   OH242832   4.997   4.048  14.041 -0.1879  0.1141  0.3152
 7114TIP3    H142833   5.020   4.030  13.950  0.1305  0.1024  0.3991
 7114TIP3    H242834   4.937   3.978  14.065  1.2429 -0.9991  0.7244
 7115TIP3   OH242835   6.481   4.096   3.353  0.2669 -1.1146 -0.0003
 7115TIP3    H142836   6.416   4.036   3.389 -1.7502  0.7929 -0.2395
 7115TIP3    H242837   6.441   4.128   3.271  0.7311  1.3188  0.6407
 7116TIP3   OH242838   4.282   2.211  12.307 -0.3354  0.5918 -0.1589
 7116TIP3    H142839   4.234   2.288  12.276 -0.6156  0.8165  0.7889
 7116TIP3    H242840   4.332   2.182  12.231 -0.9252  1.1678 -0.7878
 7117TIP3   OH242841   1.166   5.420  12.138 -0.1502 -0.1179  0.1436
 7117TIP3    H142842   1.126   5.505  12.153  0.7020  0.1255  1.1624
 7117TIP3    H242843   1.196   5.423  12.047  0.4005  0.9050  0.3501
 7118TIP3   OH242844   5.033   1.921  14.409 -0.2260  0.3580 -0.1587
 7118TIP3    H142845   5.003   1.931  14.499 -2.3335 -1.1892 -0.6111
 7118TIP3    H242846   4.994   1.994  14.362  0.8052  1.1181  0.1462
 7119TIP3   OH242847   0.220   6.131   0.265  0.5961 -0.5330  0.2886
 7119TIP3    H142848   0.177   6.215   0.258  1.0597 -0.2602  0.6334
 7119TIP3    H242849   0.177   6.088   0.340  0.3626 -0.6015  0.1149
 7120TIP3   OH242850   0.125   4.756  13.768  0.0586  0.0745  0.1379
 7120TIP3    H142851   0.080   4.737  13.850  1.0996  0.1904  0.7549
 7120TIP3    H242852   0.060   4.738  13.700 -0.5209 -0.9529  0.9350
 7121TIP3   OH242853   6.113   6.502  12.768 -0.2238 -0.2709  0.4039
 7121TIP3    H142854   6.041   6.449  12.801 -0.9079  0.3249 -0.0765
 7121TIP3    H242855   6.131   6.565  12.838  0.2961 -0.8479  0.7975
 7122TIP3   OH242856   3.132   2.515   3.001  0.0251 -0.1253 -0.1094
 7122TIP3    H142857   3.103   2.452   3.068 -2.1415  0.7558 -0.1586
 7122TIP3    H242858   3.116   2.471   2.918 -0.1375 -0.0419 -0.1207
 7123TIP3   OH242859   3.196   3.262  15.899  0.7199 -0.0017 -0.6553
 7123TIP3    H142860   3.216   3.293  15.987 -0.0270  0.6476 -0.7053
 7123TIP3    H242861   3.243   3.178  15.892 -1.4825 -1.5665  1.4038
 7124TIP3   OH242862   2.618   4.012   3.128  0.1398  0.7047  0.3284
 7124TIP3    H142863   2.524   4.021   3.148 -0.1470 -2.0252  0.5712
 7124TIP3    H242864   2.648   3.942   3.186  1.6944 -0.3389 -1.6329
 7125TIP3   OH242865   4.737   2.159   5.073  0.4965 -0.0505 -0.0907
 7125TIP3    H142866   4.685   2.175   4.995  0.6835 -1.9935 -0.6805
 7125TIP3    H242867   4.816   2.212   5.062 -0.3307  1.1775 -0.2598
 7126TIP3   OH242868   1.312   2.227  13.443 -0.7532  0.3675  0.0897
 7126TIP3    H142869   1.336   2.279  13.367 -0.4753  1.9012  1.1856
 7126TIP3    H242870   1.388   2.231  13.500 -0.1596 -2.4508 -0.3584
 7127TIP3   OH242871   4.669   4.611   1.009  0.4049  0.0059 -0.0926
 7127TIP3    H142872   4.736   4.545   0.991  0.6453 -0.0223  0.8202
 7127TIP3    H242873   4.718   4.692   1.022  0.2246  0.0953  0.0386
 7128TIP3   OH242874   2.428   5.282  13.472 -0.1553 -0.1102 -0.4600
 7128TIP3    H142875   2.419   5.194  13.510 -0.2417  0.2171  0.2831
 7128TIP3    H242876   2.354   5.289  13.411 -1.2339  0.1226  0.8302
 7129TIP3   OH242877   3.673   3.786   0.528  0.1897  0.3069 -0.2081
 7129TIP3    H142878   3.582   3.760   0.514  0.3422  0.0833 -0.8611
 7129TIP3    H242879   3.691   3.765   0.619 -0.4558  0.4911 -0.0317
 7130TIP3   OH242880   4.470   3.205   2.701  0.4570  0.1218  0.0430
 7130TIP3    H142881   4.552   3.245   2.731 -0.3341  1.4830  0.4705
 7130TIP3    H242882   4.497   3.149   2.628  1.7869  0.4230  0.2672
 7131TIP3   OH242883   4.672   5.201   5.905 -0.3458 -0.0639 -0.8318
 7131TIP3    H142884   4.760   5.170   5.886  0.2875  1.5747 -0.6943
 7131TIP3    H242885   4.625   5.123   5.936  1.2951 -0.7635 -0.0282
 7132TIP3   OH242886   5.536   0.060  15.342  0.2315 -0.3035 -0.2517
 7132TIP3    H142887   5.602   0.013  15.289 -0.2669 -0.4986 -0.7099
 7132TIP3    H242888   5.522   0.003  15.418  0.1488 -0.5596 -0.4562
 7133TIP3   OH242889   5.318   2.749   2.007  0.3384  0.1209 -0.4778
 7133TIP3    H142890   5.269   2.671   2.036  0.2140 -0.2661 -1.6463
 7133TIP3    H242891   5.410   2.723   2.012  0.3534  0.2988  0.2176
 7134TIP3   OH242892   1.911   0.413  16.950 -0.4490  0.2939  0.8131
 7134TIP3    H142893   1.830   0.462  16.967 -1.2751 -0.1305 -1.5208
 7134TIP3    H242894   1.882   0.335  16.903  1.2004 -0.7086  1.3732
 7135TIP3   OH242895   2.677   3.273  12.174 -0.7933 -0.2134  0.1407
 7135TIP3    H142896   2.743   3.323  12.223  0.8512 -2.4547  0.3805
 7135TIP3    H242897   2.670   3.190  12.222 -3.1995 -0.3929 -0.4072
 7136TIP3   OH242898   4.082   2.370   3.103  0.8611  0.3718 -0.0646
 7136TIP3    H142899   4.078   2.355   3.008  0.4708  0.7732 -0.1154
 7136TIP3    H242900   4.165   2.415   3.117  0.0680  2.0336 -0.4707
 7137TIP3   OH242901   4.967   4.103  11.510  0.5621  0.0108 -0.1182
 7137TIP3    H142902   4.934   4.151  11.434  0.1043  0.8489  0.5842
 7137TIP3    H242903   5.053   4.071  11.483  0.2518 -0.0200 -1.1085
 7138TIP3   OH242904   4.697   1.275   4.108 -0.3552  0.2767  0.3998
 7138TIP3    H142905   4.720   1.368   4.110 -0.6422  0.3330  1.0720
 7138TIP3    H242906   4.603   1.274   4.092  0.0427  0.0456 -2.4503
 7139TIP3   OH242907   6.703   0.977   3.041 -0.5159  0.3040 -0.3938
 7139TIP3    H142908   6.694   1.032   2.962 -1.2560 -0.9798 -1.2393
 7139TIP3    H242909   6.742   0.896   3.009  1.0677  0.4940  0.9341
 7140TIP3   OH242910   5.588   2.401  16.122  0.1444 -0.6702  0.2501
 7140TIP3    H142911   5.676   2.435  16.136  0.0758  0.2514 -1.3412
 7140TIP3    H242912   5.600   2.326  16.063 -0.0800 -0.9088  0.5049
 7141TIP3   OH242913   5.259   2.471  14.532  0.3800  0.3053 -0.3213
 7141TIP3    H142914   5.185   2.516  14.571  0.3313  1.2655 -1.4561
 7141TIP3    H242915   5.243   2.476  14.438  0.3925 -2.0954 -0.5066
 7142TIP3   OH242916   2.413   5.996  12.374 -0.1970 -0.0053 -0.6751
 7142TIP3    H142917   2.424   5.918  12.429  0.9494  0.3521 -0.3595
 7142TIP3    H242918   2.329   5.983  12.330 -0.3945 -1.0431 -0.0302
 7143TIP3   OH242919   4.262   3.702   1.529 -0.1707 -0.0500  0.1311
 7143TIP3    H142920   4.239   3.792   1.505 -1.3712 -0.4296 -0.1930
 7143TIP3    H242921   4.188   3.671   1.581  0.1583 -0.9083  0.1032
 7144TIP3   OH242922   6.457   0.772  13.211  0.2138 -0.6021  0.1020
 7144TIP3    H142923   6.437   0.690  13.165  0.8743 -0.7616  0.0853
 7144TIP3    H242924   6.490   0.831  13.143 -0.9387 -0.0656 -0.0133
 7145TIP3   OH242925   0.413   3.535  13.092 -0.0586 -0.0991  0.4795
 7145TIP3    H142926   0.325   3.542  13.129  0.0664  0.0580  0.7511
 7145TIP3    H242927   0.456   3.616  13.117 -0.1872  0.3172 -0.6006
 7146TIP3   OH242928   0.943   2.248  16.038  0.2536  0.2677  0.3013
 7146TIP3    H142929   0.866   2.260  16.093 -1.3000 -1.7264 -1.2982
 7146TIP3    H242930   0.978   2.163  16.064  0.0678 -0.2505 -1.0862
 7147TIP3   OH242931   4.267   0.173  15.006 -0.0834  0.0446 -0.0571
 7147TIP3    H142932   4.331   0.237  14.975 -0.1735 -1.2793 -3.3296
 7147TIP3    H242933   4.319   0.095  15.027 -0.0958  0.7221  2.8536
 7148TIP3   OH242934   5.431   6.374   2.735  0.6210 -0.3018 -0.8776
 7148TIP3    H142935   5.524   6.381   2.756  0.8491  1.7373 -2.2362
 7148TIP3    H242936   5.419   6.433   2.661 -2.3236  1.8209  1.0884
 7149TIP3   OH242937   3.519   5.788  17.035 -0.0916  0.1937 -0.4180
 7149TIP3    H142938   3.548   5.843  17.108  0.3852 -0.2130 -0.2968
 7149TIP3    H242939   3.586   5.720  17.028 -0.4947 -0.1680 -0.7959
 7150TIP3   OH242940   5.455   5.411  12.473  0.1712  0.0284  0.3829
 7150TIP3    H142941   5.393   5.483  12.487 -0.3461 -0.0197 -1.4073
 7150TIP3    H242942   5.532   5.436  12.523  1.2198  3.4466 -2.5255
 7151TIP3   OH242943   3.881   3.146  11.395 -0.1262 -0.1160 -0.0621
 7151TIP3    H142944   3.877   3.191  11.311  1.5988  0.6142  0.2042
 7151TIP3    H242945   3.953   3.082  11.384  0.6166  0.5012  1.0683
 7152TIP3   OH242946   2.645   0.345  14.076  0.3034  0.1346  0.4138
 7152TIP3    H142947   2.689   0.330  14.159  0.3771 -1.0223  0.1823
 7152TIP3    H242948   2.715   0.374  14.017  0.3222  0.5705  0.6473
 7153TIP3   OH242949   3.495   0.193  16.232 -0.2646  0.7603  0.2710
 7153TIP3    H142950   3.526   0.120  16.179 -1.1381  0.9732 -0.5601
 7153TIP3    H242951   3.563   0.205  16.299  1.1357  0.7914 -1.0867
 7154TIP3   OH242952   3.296   0.398   2.820  0.1931  0.2451  0.2806
 7154TIP3    H142953   3.212   0.407   2.866  1.1351  0.2756  2.1136
 7154TIP3    H242954   3.322   0.307   2.835  0.6730  0.3486  0.0806
 7155TIP3   OH242955   1.830   4.006  16.578 -0.3405 -0.1361  0.2472
 7155TIP3    H142956   1.798   4.089  16.542  0.4714 -0.0826 -0.3772
 7155TIP3    H242957   1.751   3.958  16.600 -0.8239  0.8128  0.6318
 7156TIP3   OH242958   2.208   0.185   4.618 -0.1867 -0.4967  0.1142
 7156TIP3    H142959   2.112   0.179   4.615 -0.2031 -1.2402  1.3752
 7156TIP3    H242960   2.225   0.266   4.667 -0.1686 -0.1860 -0.4072
 7157TIP3   OH242961   2.947   3.097  13.000 -0.0986 -0.4571 -0.1495
 7157TIP3    H142962   2.931   3.075  12.908  0.2967 -0.3695 -0.2418
 7157TIP3    H242963   2.861   3.091  13.041 -0.9697  2.6445 -1.1906
 7158TIP3   OH242964   0.592   5.277  13.316 -0.0258  0.1992  0.3211
 7158TIP3    H142965   0.687   5.267  13.314 -0.2716 -2.6167 -0.4810
 7158TIP3    H242966   0.567   5.254  13.405 -0.1663 -2.2757 -0.2944
 7159TIP3   OH242967   4.384   4.277  16.435  0.0770 -0.2884 -0.1504
 7159TIP3    H142968   4.386   4.299  16.529  1.9262  0.8883 -0.4041
 7159TIP3    H242969   4.443   4.202  16.427 -0.1902 -0.4761 -0.3564
 7160TIP3   OH242970   0.585   6.134  12.363  0.2915  0.0785  0.2188
 7160TIP3    H142971   0.615   6.192  12.433  0.6421 -1.0552  1.0472
 7160TIP3    H242972   0.547   6.192  12.297  0.4169  1.2110  1.1241
 7161TIP3   OH242973   3.283   0.222   2.476  0.5903 -0.2492 -1.0971
 7161TIP3    H142974   3.300   0.187   2.564 -0.0214  1.3401 -0.3128
 7161TIP3    H242975   3.360   0.274   2.456  0.0915  0.6029 -0.8507
 7162TIP3   OH242976   6.408   1.495   4.758  0.2620  0.3872 -0.2647
 7162TIP3    H142977   6.320   1.486   4.721 -0.1900 -1.2577  1.0893
 7162TIP3    H242978   6.453   1.415   4.732  0.2580 -0.3270  1.7705
 7163TIP3   OH242979   2.683   0.563   5.662  0.2660 -0.1871 -0.6351
 7163TIP3    H142980   2.670   0.644   5.712 -1.7021 -0.1895 -1.0540
 7163TIP3    H242981   2.778   0.554   5.656  0.5476  1.2426  0.7715
 7164TIP3   OH242982   1.476   1.093  12.322  0.1190  0.3710  0.4569
 7164TIP3    H142983   1.412   1.085  12.251  1.5321  1.8169 -1.0777
 7164TIP3    H242984   1.513   1.181  12.311  1.9479 -0.2016  1.6332
 7165TIP3   OH242985   1.806   6.763   2.281  0.2478 -0.5391 -0.0229
 7165TIP3    H142986   1.864   6.833   2.251 -0.2956 -0.2083 -0.3058
 7165TIP3    H242987   1.744   6.751   2.209  0.4043 -1.3955 -0.0298
 7166TIP3   OH242988   2.467   4.926  15.721  0.4351  0.1354  0.3380
 7166TIP3    H142989   2.394   4.926  15.783  1.0189  1.0320  1.0501
 7166TIP3    H242990   2.458   5.009  15.673  2.1992  1.3374  1.9491
 7167TIP3   OH242991   1.126   1.909  15.778  0.4171 -0.6366  0.0114
 7167TIP3    H142992   1.116   1.998  15.744  0.2884 -0.9452 -0.7773
 7167TIP3    H242993   1.156   1.921  15.868 -2.1552  0.2680  0.8476
 7168TIP3   OH242994   1.131   0.001   4.243 -0.0337 -0.3676  0.2064
 7168TIP3    H142995   1.177  -0.084   4.239 -1.6452 -1.4053  2.0870
 7168TIP3    H242996   1.193   0.059   4.286 -0.0556 -1.4739  1.7918
 7169TIP3   OH242997   4.710   5.946  11.403 -0.7964 -0.2564  0.0126
 7169TIP3    H142998   4.668   5.966  11.319  0.2014 -0.2624 -0.4966
 7169TIP3    H242999   4.678   6.013  11.462  0.1223  1.0425 -0.9097
 7170TIP3   OH243000   5.936   6.118  11.927  0.1368  0.7643 -0.8740
 7170TIP3    H143001   5.859   6.088  11.880  1.1164 -0.6994 -1.6161
 7170TIP3    H243002   5.987   6.167  11.862  0.7875 -0.0219 -0.9832
 7171TIP3   OH243003   6.786   6.566  12.047  0.3116  0.0367 -0.1680
 7171TIP3    H143004   6.844   6.490  12.049  0.5861  0.2544  1.1416
 7171TIP3    H243005   6.766   6.578  11.955  1.9031 -0.4041 -0.6141
 7172TIP3   OH243006   3.302   0.513  12.278 -0.0314 -0.5817 -0.6281
 7172TIP3    H143007   3.268   0.596  12.313 -0.0536 -0.2491 -1.4110
 7172TIP3    H243008   3.302   0.454  12.353  2.0949  0.7331  0.5162
 7173TIP3   OH243009   0.185   5.513  16.520 -0.5620 -0.0346 -0.1835
 7173TIP3    H143010   0.175   5.482  16.610 -2.8309 -1.5567 -0.8488
 7173TIP3    H243011   0.253   5.580  16.525 -0.7886  0.1294  2.6898
 7174TIP3   OH243012   3.091   2.660  10.755 -0.2789 -0.0894  0.1379
 7174TIP3    H143013   3.162   2.614  10.710 -0.7165 -0.5350 -0.1062
 7174TIP3    H243014   3.080   2.741  10.706 -0.4778 -0.3875 -0.3155
 7175TIP3   OH243015   3.239   4.054   1.300  0.1434 -0.0186 -0.6300
 7175TIP3    H143016   3.153   4.057   1.343 -0.2454  0.5602 -1.4344
 7175TIP3    H243017   3.300   4.088   1.365 -0.0467 -1.4966  0.3716
 7176TIP3   OH243018   6.548   3.646  13.212  0.1841  0.7939 -0.4456
 7176TIP3    H143019   6.520   3.732  13.180 -3.5994 -0.1122 -0.0504
 7176TIP3    H243020   6.514   3.584  13.148 -1.0886 -0.6062  1.4617
 7177TIP3   OH243021   0.051   6.339  14.296 -0.5859 -0.0728 -0.1254
 7177TIP3    H143022   0.037   6.431  14.315  3.5524  0.2473  2.6871
 7177TIP3    H243023   0.059   6.335  14.201 -0.1473  2.6057 -0.2804
 7178TIP3   OH243024   4.347   0.247  12.857 -0.4697  0.6230  0.1400
 7178TIP3    H143025   4.301   0.237  12.774 -2.4796  0.3089  1.2452
 7178TIP3    H243026   4.439   0.233  12.835 -1.0103  0.0492 -1.9348
 7179TIP3   OH243027   5.005   4.265  13.804  0.1296  0.3088  0.4033
 7179TIP3    H143028   4.923   4.238  13.845 -0.1616  0.2225 -0.2280
 7179TIP3    H243029   5.040   4.184  13.765  0.5991  0.3103  0.8107
 7180TIP3   OH243030   4.189   3.183   2.717  0.1880 -0.1339  0.0929
 7180TIP3    H143031   4.158   3.258   2.769  0.0964  0.2179 -0.4665
 7180TIP3    H243032   4.284   3.193   2.717  0.1770 -0.0235  0.0253
 7181TIP3   OH243033   0.602   6.455   5.099  0.6719 -0.0087 -0.3666
 7181TIP3    H143034   0.555   6.371   5.098 -0.1334  0.4386 -0.7602
 7181TIP3    H243035   0.694   6.430   5.103  0.4177 -0.9053  0.3096
 7182TIP3   OH243036   5.503   4.852  10.331  0.4875 -0.3415 -0.2267
 7182TIP3    H143037   5.445   4.780  10.355  0.1596  0.5785  2.0110
 7182TIP3    H243038   5.446   4.929  10.326  0.9234 -0.0774 -2.0061
 7183TIP3   OH243039   2.137   0.293   5.269  0.3709  0.2076 -0.6280
 7183TIP3    H143040   2.232   0.284   5.267  0.5007  0.5389  1.3271
 7183TIP3    H243041   2.110   0.241   5.345 -1.1644 -0.8448 -1.8469
 7184TIP3   OH243042   5.898   1.858  12.475 -0.1530  0.4360  1.0310
 7184TIP3    H143043   5.924   1.792  12.412 -2.3480 -0.3967  0.9023
 7184TIP3    H243044   5.928   1.941  12.438 -0.1731 -0.1743 -0.3885
 7185TIP3   OH243045   6.822   3.264  14.832 -0.1439  0.2438 -0.6191
 7185TIP3    H143046   6.857   3.340  14.879  0.4498 -1.3709  1.7268
 7185TIP3    H243047   6.737   3.293  14.800  0.4175  2.1373 -0.5211
 7186TIP3   OH243048   0.769   1.674   3.373 -0.0679 -0.2768  0.3627
 7186TIP3    H143049   0.675   1.670   3.352  0.0503  0.6487 -0.3709
 7186TIP3    H243050   0.773   1.731   3.450 -0.0738  0.0491  0.1254
 7187TIP3   OH243051   3.723   2.533   6.224 -0.4747 -0.0579  0.3859
 7187TIP3    H143052   3.738   2.624   6.199  0.6790 -0.1854  0.5587
 7187TIP3    H243053   3.632   2.531   6.254 -1.2272  0.5821 -1.6425
 7188TIP3   OH243054   5.714   5.418  11.844  0.4965  0.2079 -0.3837
 7188TIP3    H143055   5.676   5.451  11.762 -1.1745  0.3524  0.4022
 7188TIP3    H243056   5.680   5.478  11.911 -1.3678 -2.1114  0.9083
 7189TIP3   OH243057   4.729   5.314   2.392  0.0986 -0.3523 -0.0334
 7189TIP3    H143058   4.779   5.387   2.356  0.4035 -1.0083 -1.0028
 7189TIP3    H243059   4.639   5.332   2.365  0.2869 -0.7058 -0.9436
 7190TIP3   OH243060   1.176   4.313  12.300 -0.1459  0.2619 -0.2215
 7190TIP3    H143061   1.175   4.353  12.386 -1.1962  0.6656 -0.4162
 7190TIP3    H243062   1.113   4.363  12.248 -0.2579 -0.5845 -0.9397
 7191TIP3   OH243063   1.550   1.255  11.524 -0.0586 -0.0486 -0.0952
 7191TIP3    H143064   1.554   1.320  11.594  1.3943  0.3970 -0.5550
 7191TIP3    H243065   1.603   1.182  11.555 -0.5379 -0.4372 -0.1696
 7192TIP3   OH243066   1.953   1.369   0.080  0.3783  0.1312  0.3994
 7192TIP3    H143067   1.973   1.359   0.173  0.6013  2.2709  0.6376
 7192TIP3    H243068   1.895   1.446   0.076  2.5150  1.7754 -1.4312
 7193TIP3   OH243069   3.843   5.831   3.077 -0.3575  0.0142 -0.4241
 7193TIP3    H143070   3.803   5.917   3.092 -0.8352 -0.3204  0.2735
 7193TIP3    H243071   3.854   5.794   3.165  2.1656  0.3870 -0.5051
 7194TIP3   OH243072   0.303   2.260   0.754 -0.4767 -0.2571 -0.8668
 7194TIP3    H143073   0.379   2.261   0.812  2.0254 -1.4640 -3.7998
 7194TIP3    H243074   0.327   2.197   0.686 -3.0600  1.2042 -3.3178
 7195TIP3   OH243075   4.683   3.565   0.815  0.0636 -0.1163  0.3826
 7195TIP3    H143076   4.661   3.586   0.724 -1.7964 -3.3769 -0.0858
 7195TIP3    H243077   4.766   3.517   0.810  1.1258  1.6122  0.7325
 7196TIP3   OH243078   5.407   2.825  10.628 -0.3343  0.3263  0.2221
 7196TIP3    H143079   5.414   2.834  10.533 -0.0275 -0.6524  0.1447
 7196TIP3    H243080   5.474   2.762  10.651  0.3629  1.3970  1.2479
 7197TIP3   OH243081   0.076   1.275  10.618 -0.2033  0.6825 -0.3150
 7197TIP3    H143082   0.130   1.334  10.565 -0.4582  1.6559  0.4723
 7197TIP3    H243083  -0.012   1.284  10.582 -0.0956  0.1444 -0.7208
 7198TIP3   OH243084   1.574   5.300  16.801 -0.1598  0.1618 -0.0925
 7198TIP3    H143085   1.665   5.271  16.792  0.0772  0.6355  0.6882
 7198TIP3    H243086   1.531   5.231  16.851  0.0247  0.4187  0.4246
 7199TIP3   OH243087   0.628   4.763  14.584  0.2483  0.1055 -0.2751
 7199TIP3    H143088   0.615   4.710  14.662 -1.9351  1.6343  0.5006
 7199TIP3    H243089   0.652   4.700  14.515  0.7595 -1.4448  1.2588
 7200TIP3   OH243090   4.629   2.778   5.640 -0.5548 -0.4030  0.4272
 7200TIP3    H143091   4.551   2.723   5.637  0.7468 -2.3518  0.4272
 7200TIP3    H243092   4.671   2.757   5.724 -0.2734  0.9848  0.6585
 7201TIP3   OH243093   4.447   3.643  10.446  0.2275 -0.3486  0.3034
 7201TIP3    H143094   4.525   3.623  10.394  0.2424  0.1509  0.1281
 7201TIP3    H243095   4.431   3.563  10.497  0.2466 -0.8248 -0.4141
 7202TIP3   OH243096   0.620   2.656  12.564  0.3293  0.4190 -0.4373
 7202TIP3    H143097   0.675   2.731  12.589  0.7069  0.3202 -0.9577
 7202TIP3    H243098   0.639   2.642  12.471 -0.4430  0.2685 -0.5816
 7203TIP3   OH243099   4.669   1.833   1.057  0.1653 -0.2666  0.6653
 7203TIP3    H143100   4.690   1.776   1.131  0.5741 -1.3766 -0.2786
 7203TIP3    H243101   4.639   1.773   0.988  1.5888  0.5224 -0.7072
 7204TIP3   OH243102   4.334   6.434  15.473  0.6948  0.1589 -0.4292
 7204TIP3    H143103   4.322   6.508  15.414  1.4347  0.4669 -0.2104
 7204TIP3    H243104   4.420   6.399  15.450  1.0209  0.3256  0.4982
 7205TIP3   OH243105   3.974   5.940   4.896  0.4237 -0.3109  0.1281
 7205TIP3    H143106   4.030   6.003   4.849 -0.4821  0.9084  0.6305
 7205TIP3    H243107   3.942   5.989   4.972  0.9384 -1.8787  1.4141
 7206TIP3   OH243108   0.680   5.757   5.164  0.0710  0.1453  0.2820
 7206TIP3    H143109   0.729   5.758   5.082 -1.7545  0.9813 -0.8436
 7206TIP3    H243110   0.706   5.838   5.209 -0.5561  0.8025 -0.5078
 7207TIP3   OH243111   4.229   5.125   4.059 -0.3502 -0.1480 -0.4376
 7207TIP3    H143112   4.254   5.083   4.140 -0.2912 -0.5100 -0.6423
 7207TIP3    H243113   4.262   5.068   3.990  0.6192  0.7407 -0.7356
 7208TIP3   OH243114   3.789   3.135  12.703  0.2831  0.3313 -0.2995
 7208TIP3    H143115   3.863   3.120  12.762 -0.0039  0.7680  0.1806
 7208TIP3    H243116   3.811   3.085  12.624  1.0959  0.4692 -0.1702
 7209TIP3   OH243117   3.245   4.727  13.924  0.6209 -0.9815  0.9932
 7209TIP3    H143118   3.239   4.640  13.962 -0.5118 -0.7601  1.3680
 7209TIP3    H243119   3.171   4.732  13.864  2.4359 -1.3630 -1.4219
 7210TIP3   OH243120   2.103   2.266   4.214 -0.6879 -0.3833 -0.2403
 7210TIP3    H143121   2.092   2.272   4.309  1.6965 -0.0277  0.0782
 7210TIP3    H243122   2.056   2.186   4.190 -0.6680 -0.9234  1.3635
 7211TIP3   OH243123   3.198   1.477  16.420  0.2944  0.3820  0.6714
 7211TIP3    H143124   3.113   1.484  16.376  1.3945 -0.4282 -1.7068
 7211TIP3    H243125   3.195   1.546  16.487 -1.6225  1.4412 -0.3992
 7212TIP3   OH243126   4.964   2.288  14.645 -0.0762 -0.6981 -0.2495
 7212TIP3    H143127   4.930   2.356  14.703 -0.3833 -0.6286 -0.5082
 7212TIP3    H243128   5.022   2.334  14.585 -1.0845 -0.4849 -1.0881
 7213TIP3   OH243129   2.582   3.537  14.938 -0.2090  0.1619 -0.0598
 7213TIP3    H143130   2.526   3.464  14.965 -1.3444  1.1608  0.4274
 7213TIP3    H243131   2.629   3.505  14.862 -1.1620 -0.8740 -0.2409
 7214TIP3   OH243132   3.576   2.969  14.715  0.3061  0.5396 -0.9699
 7214TIP3    H143133   3.618   3.053  14.694 -0.0476  1.1742  0.6911
 7214TIP3    H243134   3.539   2.983  14.802 -0.6217 -1.0382 -1.0922
 7215TIP3   OH243135   3.238   0.850  15.732  0.0583  0.6190 -0.0971
 7215TIP3    H143136   3.267   0.761  15.753  0.1322  1.1065  2.0131
 7215TIP3    H243137   3.188   0.840  15.650  1.2797 -1.1138 -0.6763
 7216TIP3   OH243138   1.287   4.578   4.150  0.5160 -0.6598 -0.3256
 7216TIP3    H143139   1.313   4.546   4.237  1.9697  1.0871 -0.0478
 7216TIP3    H243140   1.304   4.504   4.092 -0.5318 -1.8867  0.8575
 7217TIP3   OH243141   4.752   5.750  14.799 -0.2751 -0.1258 -0.1865
 7217TIP3    H143142   4.775   5.699  14.877  0.3855  0.1251 -0.2119
 7217TIP3    H243143   4.822   5.732  14.737 -0.4918  0.1423 -0.5116
 7218TIP3   OH243144   3.913   0.491  11.563  0.1663  0.0435 -0.0452
 7218TIP3    H143145   3.915   0.584  11.585 -0.6604  0.5120 -1.7956
 7218TIP3    H243146   4.002   0.471  11.535  0.8387 -0.1980  2.1087
 7219TIP3   OH243147   2.069   1.103  16.240 -0.5612 -0.0770 -0.6948
 7219TIP3    H143148   2.142   1.164  16.251 -0.3584 -0.1982 -1.2921
 7219TIP3    H243149   2.008   1.149  16.182 -1.0478  0.0916 -0.0666
 7220TIP3   OH243150   5.170   5.006  12.002  0.2906 -0.2854  0.6605
 7220TIP3    H143151   5.134   5.082  12.047  1.6321  1.3714 -0.9122
 7220TIP3    H243152   5.112   4.994  11.926  1.2281  0.5046 -0.2147
 7221TIP3   OH243153   3.354   4.593  15.306 -0.0136 -0.4453 -0.6063
 7221TIP3    H143154   3.325   4.683  15.321  0.5057 -0.4394  0.4587
 7221TIP3    H243155   3.292   4.558  15.242 -0.2941  0.6265 -0.9331
 7222TIP3   OH243156   5.400   0.525  16.726  0.4393 -0.5804 -0.3241
 7222TIP3    H143157   5.489   0.531  16.760  0.3244 -2.2852  0.3826
 7222TIP3    H243158   5.411   0.524  16.631  1.0011  1.1499 -0.3063
 7223TIP3   OH243159   6.326   4.238   4.597  0.0489  0.1348  0.2417
 7223TIP3    H143160   6.255   4.212   4.655 -1.0818 -1.2120 -1.6358
 7223TIP3    H243161   6.282   4.272   4.519  1.4555 -0.3144 -0.7838
 7224TIP3   OH243162   2.879   6.692   4.987 -0.0461  0.4234  0.4007
 7224TIP3    H143163   2.815   6.681   5.058 -0.5777 -1.5435 -0.3330
 7224TIP3    H243164   2.864   6.617   4.929  2.0897  0.6113 -0.4759
 7225TIP3   OH243165   5.639   4.647  16.306 -0.3617 -0.5773 -0.2560
 7225TIP3    H143166   5.697   4.579  16.271 -0.9100 -1.2501  0.1090
 7225TIP3    H243167   5.596   4.684  16.230  1.6214  0.9767 -0.6989
 7226TIP3   OH243168   6.557   2.231  15.017  0.3080 -0.2485  0.6562
 7226TIP3    H143169   6.503   2.302  15.053  1.2726  0.9835 -0.2383
 7226TIP3    H243170   6.494   2.162  14.994 -0.7171  0.5364  1.0277
 7227TIP3   OH243171   6.162   0.590   1.165  0.0929  0.1488 -0.0750
 7227TIP3    H143172   6.115   0.527   1.218  1.7784 -0.4084  0.8366
 7227TIP3    H243173   6.156   0.556   1.076 -0.9367 -0.0573  0.0619
 7228TIP3   OH243174   2.822   4.092  16.419  0.2481 -0.1591 -0.0781
 7228TIP3    H143175   2.917   4.086  16.432  0.3772 -0.4527 -1.0991
 7228TIP3    H243176   2.786   4.084  16.508  1.2551  2.0008  0.6028
 7229TIP3   OH243177   5.003   1.316   6.096  0.4538 -1.0060 -0.4482
 7229TIP3    H143178   5.062   1.347   6.028  0.6614 -2.5863 -1.0189
 7229TIP3    H243179   4.915   1.336   6.063  0.5414 -1.9605 -1.3150
 7230TIP3   OH243180   5.191   3.140  12.336  0.2867 -0.2390  0.2059
 7230TIP3    H143181   5.110   3.187  12.316  1.0844  0.7250 -0.9165
 7230TIP3    H243182   5.170   3.086  12.412 -0.9504  1.2518  0.9823
 7231TIP3   OH243183   5.042   5.838  13.833 -0.2466 -0.4230  0.1887
 7231TIP3    H143184   5.062   5.929  13.858  0.1396  0.1301 -1.9187
 7231TIP3    H243185   4.952   5.824  13.863 -0.6423  0.9832 -0.2743
 7232TIP3   OH243186   1.524   1.609  16.676 -0.0594 -0.4370 -0.2975
 7232TIP3    H143187   1.529   1.514  16.664 -1.2933 -0.6838  0.8181
 7232TIP3    H243188   1.431   1.629  16.667  0.0191  0.4696  0.6924
 7233TIP3   OH243189   4.343   6.226  12.123 -0.4309  0.4462  0.1175
 7233TIP3    H143190   4.284   6.192  12.056  0.2130  1.8844 -1.2452
 7233TIP3    H243191   4.290   6.230  12.202 -1.7986  0.5467 -0.7790
 7234TIP3   OH243192   0.588   0.313  10.761 -0.1899  0.2612 -0.6071
 7234TIP3    H143193   0.514   0.280  10.813  0.7643 -0.6319  0.2262
 7234TIP3    H243194   0.562   0.403  10.738 -1.4224  0.0600 -0.1259
 7235TIP3   OH243195   2.741   1.520  16.145  0.8465  0.3023 -0.3405
 7235TIP3    H143196   2.793   1.590  16.183 -0.2904  1.9601 -1.6938
 7235TIP3    H243197   2.742   1.451  16.211  3.7291  0.7027  0.1819
 7236TIP3   OH243198   6.213   4.757   4.840  0.1858 -0.4451 -0.1850
 7236TIP3    H143199   6.242   4.845   4.865  0.4484 -0.9232  1.2943
 7236TIP3    H243200   6.147   4.734   4.905 -0.4524 -1.0461 -1.0293
 7237TIP3   OH243201   3.041   1.456   1.935  0.1292  0.0281  0.5000
 7237TIP3    H143202   2.994   1.539   1.944  0.6537  0.4270 -0.3542
 7237TIP3    H243203   3.063   1.431   2.025  0.3541  1.0417  0.7298
 7238TIP3   OH243204   3.305   5.804   1.162  0.8385 -0.1107 -0.5320
 7238TIP3    H143205   3.367   5.737   1.134  0.2329 -2.2058  2.5687
 7238TIP3    H243206   3.316   5.809   1.257 -1.5831  1.7085 -0.2401
 7239TIP3   OH243207   2.618   4.788  12.042 -0.1140 -0.0823 -0.5420
 7239TIP3    H143208   2.606   4.693  12.039  1.9201 -0.3545 -1.1696
 7239TIP3    H243209   2.529   4.823  12.037 -0.8339 -1.9312 -1.8467
 7240TIP3   OH243210   6.662   3.450  11.354  0.0739 -0.0169 -0.2902
 7240TIP3    H143211   6.667   3.354  11.351 -0.8662 -0.0669 -0.4978
 7240TIP3    H243212   6.622   3.470  11.438 -2.5035  0.0394 -1.4554
 7241TIP3   OH243213   4.660   1.693  12.952  0.5618 -0.2568  0.1484
 7241TIP3    H143214   4.612   1.773  12.931  1.1351  0.4454  1.4133
 7241TIP3    H243215   4.614   1.657  13.028 -0.3566 -1.7546 -1.0442
 7242TIP3   OH243216   3.837   4.836  16.202 -0.0889  0.1464  0.5113
 7242TIP3    H143217   3.932   4.838  16.186 -0.4149  2.9664 -2.0045
 7242TIP3    H243218   3.815   4.925  16.228 -2.1518 -0.2791  0.4163
 7243TIP3   OH243219   3.754   0.632  17.044 -0.3046 -0.0822  1.0831
 7243TIP3    H143220   3.832   0.670  17.085  0.1252  1.1292 -0.7478
 7243TIP3    H243221   3.748   0.676  16.960 -1.7472 -1.7394  0.2749
 7244TIP3   OH243222   3.280   3.737   0.327  0.1031 -0.1328  0.0915
 7244TIP3    H143223   3.314   3.721   0.416  0.1219  0.1776  0.1413
 7244TIP3    H243224   3.198   3.688   0.324 -0.6067  0.9841  0.7591
 7245TIP3   OH243225   5.018   0.913   3.439 -0.1645 -0.4367  0.1329
 7245TIP3    H143226   5.050   0.914   3.529  2.8144 -0.1502 -0.8057
 7245TIP3    H243227   5.079   0.970   3.392 -0.7715 -1.6939 -2.3389
 7246TIP3   OH243228   2.275   1.503  14.712 -0.1287 -0.2029 -0.1674
 7246TIP3    H143229   2.237   1.472  14.795 -1.5052  2.4281  0.2974
 7246TIP3    H243230   2.203   1.549  14.669  1.0329 -0.0666 -2.0622
 7247TIP3   OH243231   2.739   0.069  16.808  0.0606  0.0747 -0.1721
 7247TIP3    H143232   2.719  -0.001  16.747 -0.2655  0.0563 -0.0507
 7247TIP3    H243233   2.713   0.149  16.762 -1.9956 -0.0571  0.6218
 7248TIP3   OH243234   2.496   1.017   2.475  0.2417  0.4436 -0.0475
 7248TIP3    H143235   2.420   1.068   2.504  1.0228  0.8635  1.3823
 7248TIP3    H243236   2.483   0.931   2.516 -0.9449 -0.4965 -2.2477
 7249TIP3   OH243237   2.753   2.949   2.066 -0.4972 -0.1104 -0.7960
 7249TIP3    H143238   2.698   2.962   2.143 -1.6761 -1.4692 -1.3622
 7249TIP3    H243239   2.842   2.962   2.098 -0.9845 -0.2460  0.7122
 7250TIP3   OH243240   1.043   3.372   5.274 -0.4359  0.1772 -0.3219
 7250TIP3    H143241   1.103   3.300   5.253  1.4341  1.8243 -0.9335
 7250TIP3    H243242   1.099   3.450   5.276 -2.3320  1.5855  0.6476
 7251TIP3   OH243243   6.105   1.617  14.208  0.2485  0.3122 -0.4533
 7251TIP3    H143244   6.081   1.535  14.166  0.9173  0.4486 -1.1152
 7251TIP3    H243245   6.046   1.682  14.168 -1.0561  0.0037  0.8700
 7252TIP3   OH243246   5.624   4.675   2.225  0.4746 -0.2824  0.2695
 7252TIP3    H143247   5.709   4.667   2.183  1.1515  1.2050  1.2514
 7252TIP3    H243248   5.567   4.713   2.159  1.2098  0.9117  0.3039
 7253TIP3   OH243249   5.440   1.265   1.651 -0.3841  0.4708  0.0137
 7253TIP3    H143250   5.481   1.326   1.711  0.8151  0.7066 -0.9931
 7253TIP3    H243251   5.453   1.304   1.564  0.5573 -1.2199 -0.6812
 7254TIP3   OH243252   3.917   2.893  11.764 -0.2282  0.2754 -0.3476
 7254TIP3    H143253   3.965   2.817  11.795 -1.1529 -0.2005 -0.0407
 7254TIP3    H243254   3.890   2.869  11.675  0.8616  0.9105 -0.8739
 7255TIP3   OH243255   1.838   1.020   0.998 -0.0196  0.0409  0.6848
 7255TIP3    H143256   1.865   0.942   1.047 -0.8010 -1.0913 -0.5997
 7255TIP3    H243257   1.902   1.026   0.927 -0.5812 -0.0606  0.1692
 7256TIP3   OH243258   3.845   6.481   0.598  0.6288  0.5031 -0.7836
 7256TIP3    H143259   3.938   6.496   0.613  0.3037  1.4956  0.5270
 7256TIP3    H243260   3.809   6.569   0.579  0.0797  0.0252 -2.0774
 7257TIP3   OH243261   0.137   6.128  11.169  0.4494 -0.2024  0.1465
 7257TIP3    H143262   0.144   6.189  11.096 -0.3478  0.0259  0.2456
 7257TIP3    H243263   0.124   6.184  11.246 -0.2504 -0.4767  0.2433
 7258TIP3   OH243264   0.304   6.071  14.283 -0.3738 -0.5006 -0.4595
 7258TIP3    H143265   0.316   6.155  14.238 -0.8163 -0.7222 -1.0081
 7258TIP3    H243266   0.210   6.067  14.302  0.0532  0.4250  2.1855
 7259TIP3   OH243267   3.959   2.568  12.104 -0.5115  0.7062  0.3460
 7259TIP3    H143268   4.018   2.633  12.067  0.6319 -0.6971 -0.4256
 7259TIP3    H243269   3.938   2.601  12.191 -0.3058  2.2890 -0.1722
 7260TIP3   OH243270   1.658   6.014   5.266 -0.1587  0.7105  0.3931
 7260TIP3    H143271   1.583   5.961   5.292  0.2236  0.8893  1.9630
 7260TIP3    H243272   1.628   6.062   5.189 -0.3864 -2.0147 -1.3332
 7261TIP3   OH243273   3.485   0.521  14.203 -0.5089 -0.7229 -0.0687
 7261TIP3    H143274   3.438   0.591  14.248  0.9483  0.6159 -0.5621
 7261TIP3    H243275   3.519   0.562  14.124  1.9494 -1.4561  0.5178
 7262TIP3   OH243276   2.346   3.702  16.324 -0.1440  0.2288  0.2002
 7262TIP3    H143277   2.410   3.639  16.290 -0.0672  0.0309  0.6915
 7262TIP3    H243278   2.367   3.784  16.281  0.6773  0.2508  0.6163
 7263TIP3   OH243279   1.749   5.300   2.607 -0.2750  0.2810 -0.3459
 7263TIP3    H143280   1.690   5.323   2.535 -2.2673 -0.2503  1.0409
 7263TIP3    H243281   1.759   5.380   2.657  1.2996  0.7100 -1.2919
 7264TIP3   OH243282   6.406   1.305   0.399  0.2811 -0.1858 -0.3565
 7264TIP3    H143283   6.438   1.283   0.486 -0.4283  1.1229  0.2555
 7264TIP3    H243284   6.325   1.256   0.390 -0.8998  1.4845  0.7024
 7265TIP3   OH243285   6.863   4.276   5.217  0.1796 -0.1202 -0.0445
 7265TIP3    H143286   6.933   4.292   5.153  2.6057 -1.8936  1.9606
 7265TIP3    H243287   6.809   4.355   5.214  0.7974  0.3245 -3.4314
 7266TIP3   OH243288   5.313   5.638   4.503 -0.3916  0.8231  0.1134
 7266TIP3    H143289   5.245   5.680   4.555 -0.1356 -0.0667  1.2210
 7266TIP3    H243290   5.301   5.544   4.519  2.3336  0.6812  2.0462
 7267TIP3   OH243291   3.947   5.425  13.836 -0.0749  0.5140  0.1002
 7267TIP3    H143292   3.892   5.367  13.784 -1.3484 -0.3026  2.2323
 7267TIP3    H243293   3.931   5.399  13.927  2.1544  1.7604  0.9451
 7268TIP3   OH243294   3.940   1.646   1.624  0.0037  0.6686 -0.3077
 7268TIP3    H143295   3.971   1.581   1.687  0.1662 -1.0263 -2.0528
 7268TIP3    H243296   3.913   1.721   1.678  0.4970 -0.5393  1.7151
 7269TIP3   OH243297   6.582   1.100  14.580 -0.1119 -0.3082 -0.2219
 7269TIP3    H143298   6.595   1.139  14.494  0.3061  1.2816  0.5134
 7269TIP3    H243299   6.647   1.144  14.636  0.8012 -2.5238  0.5739
 7270TIP3   OH243300   4.120   1.715   2.309 -0.0025 -0.0770  0.6619
 7270TIP3    H143301   4.153   1.762   2.232  0.1077 -1.4803 -0.1857
 7270TIP3    H243302   4.084   1.634   2.273  2.4808 -2.0648  2.2938
 7271TIP3   OH243303   6.026   4.648   5.028 -0.1651 -0.2080 -0.6106
 7271TIP3    H143304   5.946   4.622   5.074 -0.3906  1.5916  0.0729
 7271TIP3    H243305   6.088   4.578   5.048 -1.9572 -2.5323 -2.5102
 7272TIP3   OH243306   6.324   5.003   5.456 -0.5617 -0.2197 -0.0605
 7272TIP3    H143307   6.336   4.919   5.499  1.3154  0.3237  0.6027
 7272TIP3    H243308   6.370   5.066   5.512  0.0757  0.8697 -1.7024
 7273TIP3   OH243309   4.951   1.529   0.880  0.4840  0.0746  0.4008
 7273TIP3    H143310   4.949   1.434   0.870  2.1583  0.0086  0.3525
 7273TIP3    H243311   4.976   1.562   0.794 -1.4574  0.6845  0.0366
 7274TIP3   OH243312   6.478   0.756  17.072  0.3482 -0.2098 -0.1369
 7274TIP3    H143313   6.571   0.737  17.066  1.1236  3.1435 -1.2992
 7274TIP3    H243314   6.441   0.719  16.992  0.3168 -2.7847  0.9804
 7275TIP3   OH243315   0.825   2.005   4.450  0.5595 -0.1607 -0.6285
 7275TIP3    H143316   0.786   2.000   4.537 -0.0719  0.0157 -0.8932
 7275TIP3    H243317   0.887   1.933   4.447 -0.6804 -1.2691 -0.6406
 7276TIP3   OH243318   4.714   4.813  16.711  0.1826 -0.3013 -0.2513
 7276TIP3    H143319   4.717   4.894  16.660 -0.2463  1.3661  2.2056
 7276TIP3    H243320   4.763   4.833  16.790  0.6875 -2.7323  0.1313
 7277TIP3   OH243321   6.627   5.039  14.253  0.1457 -0.2073 -0.0318
 7277TIP3    H143322   6.675   5.114  14.289 -2.0604  0.3113  2.0814
 7277TIP3    H243323   6.560   5.019  14.319 -1.1787 -2.2268 -1.8454
 7278TIP3   OH243324   0.160   4.900  14.358  0.4514  0.0729  0.1037
 7278TIP3    H143325   0.253   4.923  14.356 -0.0136  2.2062  0.2287
 7278TIP3    H243326   0.146   4.866  14.447  1.3087 -1.3713 -0.2826
 7279TIP3   OH243327   2.370   1.747  16.953  0.6620  0.3516  0.1677
 7279TIP3    H143328   2.435   1.680  16.975 -0.4331 -0.9402 -0.4266
 7279TIP3    H243329   2.291   1.720  16.999 -0.2059  0.4300 -1.2206
 7280TIP3   OH243330   1.666   1.758   2.146  0.0303 -0.3362 -0.1743
 7280TIP3    H143331   1.591   1.698   2.141  1.4201 -2.2673  1.0948
 7280TIP3    H243332   1.656   1.815   2.069 -1.6930 -1.7720 -1.0783
 7281TIP3   OH243333   4.176   3.567   5.425 -0.3748  0.0383 -0.6617
 7281TIP3    H143334   4.161   3.650   5.471  0.2067 -0.1104 -0.1914
 7281TIP3    H243335   4.196   3.593   5.335 -1.8116  0.3164 -0.9308
 7282TIP3   OH243336   3.473   6.825  16.449 -0.0472  0.2619  0.1125
 7282TIP3    H143337   3.399   6.846  16.392  0.3731 -0.2758 -0.6481
 7282TIP3    H243338   3.515   6.910  16.466  0.2044  0.3554 -0.9209
 7283TIP3   OH243339   0.598   5.458  16.233 -0.3245 -0.4130  0.0431
 7283TIP3    H143340   0.615   5.550  16.212  0.6564  0.0608  2.5333
 7283TIP3    H243341   0.682   5.415  16.219 -0.6157 -0.8156 -0.4902
 7284TIP3   OH243342   2.605   0.723  15.866 -0.0327  0.0415  0.6829
 7284TIP3    H143343   2.681   0.770  15.901 -0.8153  1.2599  0.7787
 7284TIP3    H243344   2.537   0.734  15.933 -1.1306  1.2410 -0.5740
 7285TIP3   OH243345   4.076   3.793   0.791  0.0415  0.0961  0.0753
 7285TIP3    H143346   4.005   3.856   0.788  0.3362  0.4076 -0.3844
 7285TIP3    H243347   4.092   3.770   0.700  1.2497  0.8454  0.0794
 7286TIP3   OH243348   1.141   0.309   5.106  0.5924  0.3272  0.5649
 7286TIP3    H143349   1.174   0.227   5.144  2.0144  1.2275  1.3488
 7286TIP3    H243350   1.099   0.353   5.179 -0.4436  0.1799  0.0697
 7287TIP3   OH243351   2.739   0.267  11.372 -0.7231  0.3414 -0.3947
 7287TIP3    H143352   2.799   0.281  11.445 -0.4943  1.3797 -0.7596
 7287TIP3    H243353   2.735   0.172  11.362  1.9916  0.2051 -1.2274
 7288TIP3   OH243354   5.995   1.155  16.408 -0.3700 -0.0825 -0.0117
 7288TIP3    H143355   5.938   1.205  16.467  0.6679  0.2221  0.7421
 7288TIP3    H243356   6.080   1.197  16.415 -0.3520  0.4235 -2.2662
 7289TIP3   OH243357   1.215   0.463  14.765 -0.1295  0.1508 -0.6358
 7289TIP3    H143358   1.239   0.518  14.839 -1.9782  0.3273 -0.0986
 7289TIP3    H243359   1.220   0.522  14.689 -1.1342  0.8365 -0.1973
 7290TIP3   OH243360   4.143   3.916  13.089 -0.2572 -0.5703 -0.5649
 7290TIP3    H143361   4.185   3.979  13.030 -0.8868 -0.2695 -0.7059
 7290TIP3    H243362   4.158   3.831  13.049 -1.9651 -0.2592 -2.0073
 7291TIP3   OH243363   5.251   1.275  15.186  0.6177 -0.7672 -0.4388
 7291TIP3    H143364   5.159   1.272  15.214  0.8782 -1.0803  0.4357
 7291TIP3    H243365   5.291   1.341  15.243  1.5213 -2.5385  1.1344
 7292TIP3   OH243366   1.506   6.157  12.587 -0.2830  0.0416  0.0196
 7292TIP3    H143367   1.578   6.180  12.529  0.2101  1.3700  1.0876
 7292TIP3    H243368   1.428   6.164  12.533  0.2908 -0.3395 -0.8783
 7293TIP3   OH243369   0.372   4.769   5.483  0.0637  0.1912  0.3504
 7293TIP3    H143370   0.433   4.695   5.485 -0.4803 -0.2555  0.6645
 7293TIP3    H243371   0.340   4.776   5.573 -1.2425 -0.3434 -0.0386
 7294TIP3   OH243372   4.259   3.836  10.385  1.1523  0.1382  0.0924
 7294TIP3    H143373   4.331   3.788  10.426  2.4117  1.2389 -0.7336
 7294TIP3    H243374   4.222   3.773  10.322  0.3111 -0.9694  1.6100
 7295TIP3   OH243375   3.221   1.790   3.920 -0.0071 -0.3773  0.2850
 7295TIP3    H143376   3.197   1.881   3.938 -0.4232 -0.6195  0.9949
 7295TIP3    H243377   3.306   1.779   3.963  2.0763  0.8058 -3.1700
 7296TIP3   OH243378   4.969   5.193   5.770  0.4623 -0.3205 -0.5674
 7296TIP3    H143379   5.050   5.211   5.818 -0.6330  1.1198  0.8404
 7296TIP3    H243380   4.975   5.100   5.746  2.6515 -0.1748 -0.8123
 7297TIP3   OH243381   4.798   1.606  12.728  0.6336  0.5755 -0.0772
 7297TIP3    H143382   4.742   1.539  12.689  1.2513 -0.5269  0.8806
 7297TIP3    H243383   4.747   1.639  12.802  0.9314  0.1054  0.3413
 7298TIP3   OH243384   2.703   5.567  10.856  0.2450 -0.1748  0.1888
 7298TIP3    H143385   2.693   5.561  10.761 -0.9225 -0.2112  0.2980
 7298TIP3    H243386   2.795   5.547  10.872  0.8277  1.3791 -1.0575
 7299TIP3   OH243387   3.618   3.481   2.298 -0.1273 -0.1944 -0.3045
 7299TIP3    H143388   3.708   3.461   2.273  0.2450  0.9114  0.0908
 7299TIP3    H243389   3.598   3.421   2.370 -0.5595 -2.1009 -1.9189
 7300TIP3   OH243390   4.109   1.223  15.622  0.3730  0.3492  0.1810
 7300TIP3    H143391   4.066   1.150  15.576  3.0922 -2.6880  2.0507
 7300TIP3    H243392   4.037   1.272  15.660 -1.7306  0.2551 -3.2352
 7301TIP3   OH243393   0.472   5.070  12.919  0.6514  0.3562 -0.6292
 7301TIP3    H143394   0.458   5.041  12.829 -1.5920 -2.5980  0.4876
 7301TIP3    H243395   0.546   5.018  12.950  2.0723  2.0869 -0.9670
 7302TIP3   OH243396   6.519   2.125  11.397  0.1860 -0.2803 -0.3933
 7302TIP3    H143397   6.475   2.162  11.321 -1.3199 -1.7125 -0.2906
 7302TIP3    H243398   6.467   2.156  11.472 -0.4676 -1.6734 -0.2401
 7303TIP3   OH243399   4.392   3.487   0.548 -0.1034 -0.0166  0.2501
 7303TIP3    H143400   4.423   3.546   0.480  1.5109 -1.9013 -0.7698
 7303TIP3    H243401   4.420   3.528   0.630  0.1688  1.0503 -0.3573
 7304TIP3   OH243402   6.611   0.816  15.323 -0.6026  0.1978 -0.4002
 7304TIP3    H143403   6.699   0.826  15.286 -0.4656  0.4108 -0.0151
 7304TIP3    H243404   6.588   0.904  15.353  0.4513 -0.4632  2.6702
 7305TIP3   OH243405   2.273   6.764  11.276 -0.1698 -0.2028  0.3114
 7305TIP3    H143406   2.235   6.803  11.197 -1.1232  1.7374  1.6328
 7305TIP3    H243407   2.254   6.828  11.345 -1.8563 -3.0104  2.6916
 7306TIP3   OH243408   5.125   4.436   4.900 -0.2710  0.1354 -0.0613
 7306TIP3    H143409   5.143   4.374   4.971  0.1220  0.5787  0.2399
 7306TIP3    H243410   5.207   4.440   4.851 -1.0314 -1.4047 -1.5454
 7307TIP3   OH243411   4.107   1.700   3.772 -0.1239  0.2099 -0.0112
 7307TIP3    H143412   4.195   1.729   3.749 -0.3709  1.1970  0.2012
 7307TIP3    H243413   4.099   1.718   3.865  0.1941 -1.9462  0.4771
 7308TIP3   OH243414   3.632   3.000   3.267  0.3125  0.1339  0.2145
 7308TIP3    H143415   3.618   2.908   3.245 -1.2131  0.7775 -1.9043
 7308TIP3    H243416   3.711   3.024   3.219 -0.2728  0.3273 -0.6785
 7309TIP3   OH243417   1.346   3.828  15.936  0.1328 -0.2486  0.2106
 7309TIP3    H143418   1.382   3.840  16.024  0.8160  0.9774 -0.2101
 7309TIP3    H243419   1.367   3.910  15.890 -1.9946 -0.0197 -0.4837
 7310TIP3   OH243420   4.930   4.959   3.913 -0.2433  0.8484 -0.3138
 7310TIP3    H143421   4.976   4.879   3.889  2.6890  2.6526 -1.1188
 7310TIP3    H243422   4.878   4.980   3.835 -2.0345 -0.8228  0.3437
 7311TIP3   OH243423   4.119   5.887   3.029  0.2308  1.0460 -0.3044
 7311TIP3    H143424   4.037   5.880   3.078 -1.0910  0.0543 -2.4879
 7311TIP3    H243425   4.109   5.967   2.977  0.4963  0.7721 -0.7892
 7312TIP3   OH243426   0.347   2.493  13.557  0.2931 -0.7314 -0.3052
 7312TIP3    H143427   0.414   2.555  13.586  0.8034 -0.1970 -2.5008
 7312TIP3    H243428   0.267   2.546  13.549  0.0922 -0.9316  0.2916
 7313TIP3   OH243429   2.581   4.054   0.110  0.4752 -0.3696  0.1452
 7313TIP3    H143430   2.602   4.062   0.203 -0.0120  1.1202  0.1534
 7313TIP3    H243431   2.658   4.090   0.066 -0.9971  3.1023  0.1267
 7314TIP3   OH243432   6.168   4.077   0.728 -0.7046  0.2835 -0.3858
 7314TIP3    H143433   6.146   3.989   0.698  3.3276 -0.6827 -1.0086
 7314TIP3    H243434   6.210   4.064   0.813  0.2588  1.5473 -0.6372
 7315TIP3   OH243435   1.642   6.280   4.301 -0.1308 -0.1461 -0.0583
 7315TIP3    H143436   1.618   6.288   4.394 -1.1770 -0.5525 -0.2734
 7315TIP3    H243437   1.578   6.218   4.266  0.5838 -0.4027 -0.9405
 7316TIP3   OH243438   3.034   4.834   3.623 -0.4453 -0.3188 -1.0545
 7316TIP3    H143439   3.095   4.784   3.677 -1.0265 -0.7877 -0.8237
 7316TIP3    H243440   3.079   4.843   3.539  0.2178 -0.0843 -0.6867
 7317TIP3   OH243441   5.957   6.134  12.536  0.4675  0.6187  0.1176
 7317TIP3    H143442   6.029   6.087  12.578  0.2637  0.1400 -0.0659
 7317TIP3    H243443   5.954   6.099  12.447  0.8926  1.6182 -0.3171
 7318TIP3   OH243444   3.824   3.918  12.448 -0.0913  0.1029 -0.3520
 7318TIP3    H143445   3.906   3.890  12.408  0.3032 -0.2251  0.6567
 7318TIP3    H243446   3.851   3.972  12.523 -0.8049  0.3737 -0.2796
 7319TIP3   OH243447   2.661   3.761  10.520  0.6365  0.0874 -0.3157
 7319TIP3    H143448   2.644   3.760  10.614 -0.0001 -0.1489 -0.4270
 7319TIP3    H243449   2.726   3.692  10.507 -0.2724 -0.8195 -0.2183
 7320TIP3   OH243450   2.637   6.160  16.367  0.3290  0.0500  0.1385
 7320TIP3    H143451   2.567   6.096  16.377 -0.4148  0.6742 -0.9201
 7320TIP3    H243452   2.697   6.120  16.304  1.1514 -0.6477  1.3240
 7321TIP3   OH243453   1.476   6.014  15.282 -0.3871 -0.0763 -0.6330
 7321TIP3    H143454   1.471   6.050  15.193  1.0857  0.5784 -0.4843
 7321TIP3    H243455   1.444   5.924  15.273 -3.3331  0.9293 -1.1644
 7322TIP3   OH243456   4.412   2.178   5.297  0.0108 -0.3221 -0.0756
 7322TIP3    H143457   4.442   2.232   5.371  3.8207 -1.9138 -0.2202
 7322TIP3    H243458   4.403   2.240   5.224 -0.2611  0.7408  0.8325
 7323TIP3   OH243459   3.604   0.344   1.411 -0.4688 -0.3565  0.2739
 7323TIP3    H143460   3.603   0.250   1.427  0.7548 -0.1375  1.9043
 7323TIP3    H243461   3.697   0.364   1.395 -0.7081  0.5765  0.0091
 7324TIP3   OH243462   3.268   2.141   3.044 -0.5582 -0.5654 -0.3271
 7324TIP3    H143463   3.346   2.102   3.004  0.9177  3.2186 -1.4948
 7324TIP3    H243464   3.196   2.114   2.987  0.5124 -0.8163 -1.6078
 7325TIP3   OH243465   4.697   5.321   1.500 -0.4265  0.9260  0.2712
 7325TIP3    H143466   4.669   5.411   1.519  0.7498  1.2974  0.2978
 7325TIP3    H243467   4.626   5.285   1.447 -0.0473  2.5082 -1.4188
 7326TIP3   OH243468   5.370   2.051  15.383  0.1284 -0.2676 -0.8852
 7326TIP3    H143469   5.346   2.079  15.295 -0.6831  1.9236 -0.0445
 7326TIP3    H243470   5.414   2.127  15.421  2.6554 -1.9619 -0.1394
 7327TIP3   OH243471   4.924   2.095   3.316 -0.2729 -0.2640 -0.1945
 7327TIP3    H143472   5.003   2.074   3.366 -2.1934 -3.3699  1.9091
 7327TIP3    H243473   4.950   2.086   3.225  1.5171 -2.6953  0.4588
 7328TIP3   OH243474   1.219   0.608   4.954 -0.2601 -0.3126  0.0995
 7328TIP3    H143475   1.162   0.579   4.883 -0.0693 -1.1652  0.2871
 7328TIP3    H243476   1.296   0.644   4.910  1.5417 -4.1125 -0.2109
 7329TIP3   OH243477   3.594   0.046  14.105  0.2470  0.6611 -0.2933
 7329TIP3    H143478   3.615  -0.033  14.055 -2.7368  0.7863 -1.9924
 7329TIP3    H243479   3.578   0.015  14.194  2.7977 -0.0110  0.0048
 7330TIP3   OH243480   4.975   4.479  13.622 -0.6555  0.5689 -0.0156
 7330TIP3    H143481   4.920   4.461  13.545 -1.4684  0.8228  0.4918
 7330TIP3    H243482   4.985   4.393  13.664 -0.6826  0.5270 -0.0939
 7331TIP3   OH243483   1.176   0.967   3.261 -0.0896 -0.0173 -0.1522
 7331TIP3    H143484   1.191   1.048   3.213  0.2976  0.3929  0.6328
 7331TIP3    H243485   1.232   0.974   3.338 -2.1153  0.2336  1.3750
 7332TIP3   OH243486   6.439   6.814  13.326  0.6666 -0.5949 -0.1966
 7332TIP3    H143487   6.422   6.840  13.416 -1.5069 -0.8728 -0.4735
 7332TIP3    H243488   6.357   6.776  13.295  1.6619 -1.4700 -1.9810
 7333TIP3   OH243489   3.010   4.953   1.475  0.3757 -0.3634  0.7890
 7333TIP3    H143490   3.057   4.995   1.546  0.7483  0.2040  0.2180
 7333TIP3    H243491   2.929   5.004   1.467  0.5442 -0.1365  0.5069
 7334TIP3   OH243492   2.582   5.255   2.672 -0.8970  0.2802 -0.4873
 7334TIP3    H143493   2.613   5.329   2.620  0.0081  2.0683  2.3680
 7334TIP3    H243494   2.492   5.278   2.696 -1.2347 -0.4240 -1.0611
 7335TIP3   OH243495   1.523   3.427  14.761 -0.0667  0.2279  0.1142
 7335TIP3    H143496   1.501   3.467  14.677 -0.3407  0.5124  0.3202
 7335TIP3    H243497   1.449   3.370  14.781 -0.1164  0.3510  0.2835
 7336TIP3   OH243498   6.578   1.590   2.319 -0.4266  0.2316  0.0993
 7336TIP3    H143499   6.523   1.522   2.359 -1.1173  0.6988 -0.0361
 7336TIP3    H243500   6.592   1.653   2.390 -0.0665  0.1129  0.1318
 7337TIP3   OH243501   5.512   1.862  15.915  0.3388  0.7307  0.3027
 7337TIP3    H143502   5.572   1.936  15.910 -0.1150  1.0365 -1.5307
 7337TIP3    H243503   5.437   1.889  15.862 -0.1086 -0.7991  0.1134
 7338TIP3   OH243504   4.959   2.022   5.197  0.5372  0.2355  0.6236
 7338TIP3    H143505   4.876   2.033   5.242 -0.0582 -2.2680  0.2565
 7338TIP3    H243506   4.940   2.038   5.105  0.4091 -0.5435  0.5126
 7339TIP3   OH243507   4.167   4.318  15.502 -0.0403 -0.5437 -0.0451
 7339TIP3    H143508   4.216   4.238  15.520  2.4497  0.9794  0.5711
 7339TIP3    H243509   4.197   4.346  15.416 -0.2590  0.1504  0.0977
 7340TIP3   OH243510   6.439   0.725  16.783  0.1108 -0.8884  0.3558
 7340TIP3    H143511   6.463   0.691  16.697  0.8264  0.0681  0.1614
 7340TIP3    H243512   6.504   0.793  16.801 -1.0530  0.1246  0.8902
 7341TIP3   OH243513   3.537   4.830  16.881  0.2953 -0.4508 -0.0447
 7341TIP3    H143514   3.487   4.757  16.845 -0.2309 -0.6396  1.0362
 7341TIP3    H243515   3.471   4.890  16.917  0.7943 -0.4914  0.9955
 7342TIP3   OH243516   5.429   1.631   0.931 -0.1902 -0.2060  0.2078
 7342TIP3    H143517   5.370   1.706   0.937 -0.5708 -0.5365  0.7690
 7342TIP3    H243518   5.412   1.581   1.011  2.0014  0.5105  1.1830
 7343TIP3   OH243519   0.612   2.260   4.973  0.3001  0.3344 -0.0546
 7343TIP3    H143520   0.541   2.303   5.020 -0.0025  0.6785 -0.8134
 7343TIP3    H243521   0.621   2.175   5.017 -2.5043 -0.9452 -1.6594
 7344TIP3   OH243522   6.638   0.077  16.795 -0.4388  0.2919  0.3585
 7344TIP3    H143523   6.589  -0.005  16.791 -0.1872  0.1710 -2.6018
 7344TIP3    H243524   6.729   0.050  16.801 -0.4792  0.4618  2.2750
 7345TIP3   OH243525   1.408   5.877  11.887 -0.9489  0.9648 -0.2706
 7345TIP3    H143526   1.482   5.928  11.856 -0.6776 -1.1623 -3.5543
 7345TIP3    H243527   1.332   5.915  11.844 -1.1013  0.3212 -0.5926
 7346TIP3   OH243528   4.605   3.535  14.306  0.1728 -0.4275 -0.1734
 7346TIP3    H143529   4.630   3.546  14.214 -0.3645 -0.1652 -0.2921
 7346TIP3    H243530   4.539   3.603  14.322 -1.0653 -1.5928 -0.1061
 7347TIP3   OH243531   3.036   5.672  13.182 -0.1621  0.3054 -0.1082
 7347TIP3    H143532   3.050   5.620  13.261 -0.0762  1.4611  0.6764
 7347TIP3    H243533   3.039   5.763  13.213  0.7546  0.8181 -1.5830
 7348TIP3   OH243534   5.074   4.285   4.570 -0.0021  0.1712  0.9052
 7348TIP3    H143535   5.055   4.290   4.477 -1.1113 -3.5043  0.7863
 7348TIP3    H243536   4.998   4.324   4.612  0.0834  1.0100  0.2991
 7349TIP3   OH243537   1.172   5.835   1.061 -0.1062  0.1199  0.1954
 7349TIP3    H143538   1.155   5.892   0.985 -1.3472 -1.5285 -0.8355
 7349TIP3    H243539   1.086   5.806   1.089  0.5093 -2.9369 -0.7095
 7350TIP3   OH243540   6.597   5.151   3.412 -0.0393 -0.3003  0.1280
 7350TIP3    H143541   6.677   5.188   3.450  1.7049 -0.5723 -2.9069
 7350TIP3    H243542   6.618   5.059   3.396  0.2030  0.1931 -3.1712
 7351TIP3   OH243543   1.603   2.049   6.016  0.0851  0.0704 -0.2022
 7351TIP3    H143544   1.646   2.134   6.026 -0.8406  0.4085  1.3481
 7351TIP3    H243545   1.631   1.999   6.093  0.1737 -0.8335 -0.8091
 7352TIP3   OH243546   3.438   0.066   4.858 -0.3541 -0.4199  0.4413
 7352TIP3    H143547   3.516   0.075   4.912  0.2577 -1.3691 -0.2475
 7352TIP3    H243548   3.435  -0.027   4.835 -0.8392 -0.1186 -0.7952
 7353TIP3   OH243549   3.659   1.199  16.516 -0.1393 -0.2011 -0.4244
 7353TIP3    H143550   3.642   1.272  16.456 -0.7440 -0.2087 -0.2784
 7353TIP3    H243551   3.716   1.236  16.583 -2.0998  0.7808  0.8107
 7354TIP3   OH243552   2.912   5.666  14.853  0.1044  0.0626 -0.5523
 7354TIP3    H143553   2.826   5.628  14.873  0.9815 -1.4320  0.5610
 7354TIP3    H243554   2.897   5.716  14.772 -1.8318 -0.0213 -0.3102
 7355TIP3   OH243555   0.908   2.464   0.581 -0.2455  0.0588  0.1025
 7355TIP3    H143556   0.865   2.415   0.511  0.1233  0.4004 -0.3693
 7355TIP3    H243557   0.987   2.413   0.602  0.5527  0.8145 -0.9238
 7356TIP3   OH243558   4.514   3.296   3.769  0.1438  0.1917 -0.3177
 7356TIP3    H143559   4.503   3.231   3.839 -1.8965  2.4670  1.6555
 7356TIP3    H243560   4.574   3.361   3.805  0.0107  0.8135 -1.1855
 7357TIP3   OH243561   6.631   1.073  13.774  0.6221  0.0956  0.4649
 7357TIP3    H143562   6.549   1.057  13.820 -0.6578 -1.8162 -2.1951
 7357TIP3    H243563   6.621   1.161  13.737  1.5633  1.5389  3.3797
 7358TIP3   OH243564   5.847   6.855  16.667 -0.2317 -0.1961  0.1177
 7358TIP3    H143565   5.837   6.791  16.738 -0.1977  0.5749  0.8360
 7358TIP3    H243566   5.911   6.816  16.608  0.3718 -0.4832  0.9489
 7359TIP3   OH243567   6.374   3.720   0.773 -0.1980 -0.6076  0.4638
 7359TIP3    H143568   6.342   3.634   0.801 -1.8367  0.0136  0.6137
 7359TIP3    H243569   6.333   3.734   0.688 -0.1350  0.1342  0.5488
 7360TIP3   OH243570   0.199   2.260  13.003 -0.5757 -0.0329 -0.1845
 7360TIP3    H143571   0.159   2.323  12.943 -0.5874  1.2344  1.0995
 7360TIP3    H243572   0.258   2.313  13.057  0.4346 -1.3600  0.0532
 7361TIP3   OH243573   5.828   2.739   5.598 -0.6617 -0.5047  0.0083
 7361TIP3    H143574   5.870   2.756   5.683 -2.0931 -1.3557  0.9313
 7361TIP3    H243575   5.798   2.825   5.568 -1.1773 -0.3381  0.9565
 7362TIP3   OH243576   1.900   4.835  13.789 -0.0130  0.4620  0.1323
 7362TIP3    H143577   1.834   4.787  13.838 -0.5721 -0.3196 -1.3307
 7362TIP3    H243578   1.891   4.925  13.818 -0.6783  0.1110  1.0648
 7363TIP3   OH243579   2.011   0.089  14.519 -0.4505  0.0727  0.1469
 7363TIP3    H143580   2.067   0.133  14.455 -0.6115  0.3768  0.2105
 7363TIP3    H243581   1.969   0.018  14.470 -1.2299  0.8306 -0.3133
 7364TIP3   OH243582   6.002   6.766  16.456 -0.2629  0.1537  0.2912
 7364TIP3    H143583   6.057   6.694  16.489 -0.3766 -0.1965 -0.2603
 7364TIP3    H243584   6.010   6.759  16.360 -0.8238  0.4481  0.2218
 7365TIP3   OH243585   6.267   3.212   1.638  0.6045  0.0894 -0.0341
 7365TIP3    H143586   6.225   3.296   1.618  2.0995  0.8501 -0.1772
 7365TIP3    H243587   6.276   3.212   1.733  0.5840  0.0819 -0.0322
 7366TIP3   OH243588   3.568   4.514  11.345 -0.2526  0.0268 -0.3953
 7366TIP3    H143589   3.610   4.520  11.259 -1.8033 -0.9949 -1.2756
 7366TIP3    H243590   3.619   4.449  11.393  2.2541  2.4468  0.5390
 7367TIP3   OH243591   2.465   4.698  14.567  0.6595 -0.2385  0.1217
 7367TIP3    H143592   2.545   4.743  14.593  0.7941 -0.1948 -0.3569
 7367TIP3    H243593   2.430   4.662  14.649  1.4088 -0.6455  0.2714
 7368TIP3   OH243594   6.459   2.561  14.953 -0.4008 -0.4675  0.1258
 7368TIP3    H143595   6.382   2.545  14.899 -0.6022 -0.8942  0.5232
 7368TIP3    H243596   6.445   2.507  15.031  0.0520 -0.1420  0.4399
 7369TIP3   OH243597   3.799   4.742  11.241 -0.1264 -0.0695  0.6709
 7369TIP3    H143598   3.841   4.784  11.166  2.1968 -3.0585  0.1133
 7369TIP3    H243599   3.738   4.679  11.203 -0.6378 -0.0191  1.3780
 7370TIP3   OH243600   0.889   6.463  11.411 -0.2875  0.4446  0.8585
 7370TIP3    H143601   0.838   6.540  11.387 -3.1616 -1.6281 -0.3542
 7370TIP3    H243602   0.891   6.463  11.506  0.6088  2.4269  0.8850
 7371TIP3   OH243603   1.705   5.074  13.763  1.0396 -0.2321 -0.2288
 7371TIP3    H143604   1.685   5.157  13.719 -0.5319 -0.9083 -0.8808
 7371TIP3    H243605   1.749   5.099  13.844 -0.5027  1.3132  0.1856
 7372TIP3   OH243606   1.100   6.035  14.420  0.1881 -0.1139 -0.1076
 7372TIP3    H143607   1.075   6.124  14.444  2.3605  0.4570  0.2753
 7372TIP3    H243608   1.076   6.027  14.328  0.2927  1.0117 -0.2413
 7373TIP3   OH243609   0.477   6.452  14.761  0.1556 -0.0918 -0.4300
 7373TIP3    H143610   0.454   6.440  14.853  0.0377  0.0522 -0.4397
 7373TIP3    H243611   0.572   6.446  14.758  0.0540 -2.1968 -0.6066
 7374TIP3   OH243612   1.323   1.872  13.857 -0.7626 -0.5031  0.3440
 7374TIP3    H143613   1.279   1.808  13.801 -1.1858  0.5029 -0.4952
 7374TIP3    H243614   1.276   1.954  13.841  1.7062  0.7608 -1.0399
 7375TIP3   OH243615   2.878   4.424   4.606 -0.0420  0.1999  0.3223
 7375TIP3    H143616   2.849   4.447   4.518  0.3497 -0.0721  0.1204
 7375TIP3    H243617   2.914   4.506   4.641  0.9246  0.0218 -0.2248
 7376TIP3   OH243618   1.044   2.384   4.029  0.0829  0.6905 -0.4616
 7376TIP3    H143619   0.988   2.396   3.952 -1.6990  1.9265  0.9513
 7376TIP3    H243620   1.008   2.306   4.072  0.5879  0.4498 -0.4758
 7377TIP3   OH243621   1.444   0.270   5.476 -0.0097 -0.8099  0.0396
 7377TIP3    H143622   1.363   0.320   5.479  1.3035  1.3961  0.9689
 7377TIP3    H243623   1.450   0.240   5.385 -1.8915 -1.1373 -0.0171
 7378TIP3   OH243624   0.758   1.370   0.342 -0.0004  0.7159  0.5580
 7378TIP3    H143625   0.724   1.285   0.317  1.1566  0.3002  0.3567
 7378TIP3    H243626   0.777   1.414   0.259 -0.3205  1.0672  0.6652
 7379TIP3   OH243627   5.372   0.652   0.997 -0.2169  0.2122  0.0207
 7379TIP3    H143628   5.289   0.666   0.951 -1.5712 -0.6013  2.0464
 7379TIP3    H243629   5.373   0.720   1.065 -0.8488 -1.6356  2.0150
 7380TIP3   OH243630   5.830   2.338  13.690 -0.2444  0.0512 -0.2490
 7380TIP3    H143631   5.875   2.421  13.679 -0.4830  0.1473 -0.5014
 7380TIP3    H243632   5.755   2.358  13.746 -0.0076 -0.1005  0.1345
 7381TIP3   OH243633   2.232   0.888  16.725  0.1205 -0.7580 -0.4841
 7381TIP3    H143634   2.215   0.983  16.726  2.3884 -0.2841  0.6184
 7381TIP3    H243635   2.215   0.862  16.635  1.4901  1.1683 -1.3745
 7382TIP3   OH243636   4.979   6.313   1.891  0.0444 -0.0586  0.0721
 7382TIP3    H143637   4.955   6.237   1.838 -1.2911  1.5258 -1.7028
 7382TIP3    H243638   5.071   6.330   1.868 -0.8762  1.4667 -3.0317
 7383TIP3   OH243639   6.325   5.700  13.447  0.2914  0.7842  0.1770
 7383TIP3    H143640   6.389   5.717  13.378  0.4573  1.3014  0.4535
 7383TIP3    H243641   6.364   5.739  13.526  2.0557 -3.1787  1.5481
 7384TIP3   OH243642   5.983   5.414   3.467  0.3759 -0.4376  0.0457
 7384TIP3    H143643   5.952   5.326   3.447  0.0315 -0.7603  1.8344
 7384TIP3    H243644   5.939   5.471   3.403  1.0381 -1.5862 -1.5006
 7385TIP3   OH243645   3.030   6.774   5.499  0.6693  0.3409  0.3631
 7385TIP3    H143646   3.105   6.833   5.509  0.4924  0.5184  0.6776
 7385TIP3    H243647   3.054   6.716   5.427  0.0972  1.9400 -1.1708
 7386TIP3   OH243648   4.329   2.358  14.914  0.6402  0.1880  0.0774
 7386TIP3    H143649   4.263   2.362  14.983  0.4445 -0.6692 -0.0583
 7386TIP3    H243650   4.300   2.288  14.856  2.0142 -0.6746  0.3917
 7387TIP3   OH243651   4.225   2.467  12.195 -0.3671  0.3162  0.1119
 7387TIP3    H143652   4.137   2.502  12.182 -0.9661 -1.0896  0.1708
 7387TIP3    H243653   4.269   2.480  12.111 -1.5284 -1.3314 -0.8218
 7388TIP3   OH243654   1.692   0.000   3.379  0.4336 -0.2883  0.5728
 7388TIP3    H143655   1.662  -0.023   3.467  0.0172  0.0865  0.5373
 7388TIP3    H243656   1.787   0.000   3.385  0.4688 -2.0510  0.5518
 7389TIP3   OH243657   0.103   0.504  14.063  0.0708 -0.0972 -0.1364
 7389TIP3    H143658   0.023   0.539  14.103  0.0565 -0.7673  0.4465
 7389TIP3    H243659   0.144   0.453  14.133  1.4362  0.8928 -0.1827
 7390TIP3   OH243660   6.619   0.619   1.994 -0.4679 -0.0340  0.2714
 7390TIP3    H143661   6.586   0.660   2.074 -3.6608  0.3654 -1.1078
 7390TIP3    H243662   6.674   0.547   2.025 -3.4316 -1.3716  2.9241
 7391TIP3   OH243663   6.356   4.557   0.043 -0.0947 -0.1142  0.1465
 7391TIP3    H143664   6.398   4.481   0.003  0.1599 -0.1837  0.5492
 7391TIP3    H243665   6.392   4.562   0.131 -0.2458  0.3686  0.1847
 7392TIP3   OH243666   3.071   0.923  16.272 -0.2120 -0.5500  0.1191
 7392TIP3    H143667   3.151   0.942  16.320  0.4814 -2.1030 -0.3491
 7392TIP3    H243668   3.095   0.935  16.180 -0.8029 -0.0913  0.0133
 7393TIP3   OH243669   5.514   6.284   0.611  0.2377  0.1591  0.2501
 7393TIP3    H143670   5.506   6.375   0.638 -2.2308  0.3269 -0.8017
 7393TIP3    H243671   5.495   6.284   0.518 -0.6462 -1.5021  0.3843
 7394TIP3   OH243672   3.892   2.288   2.227  0.2450  1.2846  0.1563
 7394TIP3    H143673   3.914   2.283   2.320 -2.2252  1.4406  0.7968
 7394TIP3    H243674   3.878   2.197   2.201  1.6998  1.1584 -0.3299
 7395TIP3   OH243675   2.370   6.857  13.214  0.5686  0.3215 -0.2316
 7395TIP3    H143676   2.286   6.895  13.189 -0.2977 -1.4284 -0.1820
 7395TIP3    H243677   2.404   6.819  13.133  0.5369 -0.3313  0.0519
 7396TIP3   OH243678   0.343   4.717  12.417 -0.2226  0.0946  0.0874
 7396TIP3    H143679   0.398   4.673  12.483  1.2504 -0.0409 -1.1778
 7396TIP3    H243680   0.264   4.663  12.413  0.6606 -1.2538  0.0720
 7397TIP3   OH243681   2.151   3.881   6.355 -0.1594  0.0288 -0.3589
 7397TIP3    H143682   2.057   3.896   6.350 -0.0425  1.5488  1.0815
 7397TIP3    H243683   2.189   3.945   6.296  0.0096 -0.1289 -0.4233
 7398TIP3   OH243684   0.672   5.437   0.848  0.8191 -0.4421  0.1041
 7398TIP3    H143685   0.677   5.529   0.820  0.9831 -1.0166 -1.9061
 7398TIP3    H243686   0.736   5.392   0.793  1.7448 -1.5879  2.0151
 7399TIP3   OH243687   3.470   1.178  14.369  0.7252  0.0574  0.6479
 7399TIP3    H143688   3.464   1.115  14.297 -1.0556  0.6309  0.2515
 7399TIP3    H243689   3.405   1.148  14.432 -0.4936  1.7120  0.2397
 7400TIP3   OH243690   1.415   6.564  13.609 -0.3265  0.0767 -0.1738
 7400TIP3    H143691   1.433   6.529  13.522  1.6552 -0.1509  0.2671
 7400TIP3    H243692   1.468   6.509  13.668 -0.6042  1.0438  1.0150
 7401TIP3   OH243693   3.862   2.719   5.142 -0.2315  0.0734 -0.0656
 7401TIP3    H143694   3.807   2.692   5.216 -0.1062 -0.2748 -0.0972
 7401TIP3    H243695   3.948   2.680   5.160 -0.1387  0.1779 -0.2796
 7402TIP3   OH243696   4.634   0.199   0.115  0.2685 -0.5576  0.1345
 7402TIP3    H143697   4.658   0.276   0.064 -1.0761  0.5511  1.0993
 7402TIP3    H243698   4.714   0.175   0.162  0.7383  0.1422 -0.2922
 7403TIP3   OH243699   5.787   2.582   4.781 -0.4673  0.0082  0.1602
 7403TIP3    H143700   5.720   2.576   4.849  1.7914  1.1789  2.6985
 7403TIP3    H243701   5.785   2.674   4.755 -0.2947 -0.0919 -0.2032
 7404TIP3   OH243702   5.421   0.064   5.949 -0.1781  0.2812  0.5194
 7404TIP3    H143703   5.482   0.048   6.021  0.4068 -0.8964 -0.1983
 7404TIP3    H243704   5.474   0.105   5.881 -0.2186 -0.5018 -0.0052
 7405TIP3   OH243705   2.152   6.561   1.970  0.2712  0.1784  0.0791
 7405TIP3    H143706   2.236   6.530   2.004  0.0109 -1.1416 -0.4374
 7405TIP3    H243707   2.145   6.651   2.002  1.6842  0.1636  0.4796
 7406TIP3   OH243708   3.023   0.594   3.098  0.1315  0.1888 -0.0538
 7406TIP3    H143709   3.094   0.648   3.134 -1.9672  2.4655  0.9311
 7406TIP3    H243710   3.005   0.633   3.012  1.2395 -1.5857 -1.1674
 7407TIP3   OH243711   5.390   4.462   4.801  0.1376 -0.7034  0.1165
 7407TIP3    H143712   5.484   4.444   4.808  0.0508 -0.6376  1.6495
 7407TIP3    H243713   5.385   4.543   4.750  0.9503 -0.3561  0.5697
 7408TIP3   OH243714   5.482   4.857   0.309  0.0917 -0.7278  0.1723
 7408TIP3    H143715   5.479   4.909   0.229 -0.8430 -1.5134 -0.3066
 7408TIP3    H243716   5.569   4.819   0.310  1.6305  2.3772  1.5482
 7409TIP3   OH243717   1.367   0.805  11.652 -0.6312  0.2497 -0.5691
 7409TIP3    H143718   1.372   0.887  11.602  1.7204  0.9602  0.6675
 7409TIP3    H243719   1.454   0.767  11.645 -1.0524 -1.0514  0.6870
 7410TIP3   OH243720   4.750   5.049  11.838  0.3802  0.2364 -0.8605
 7410TIP3    H143721   4.726   5.121  11.780  2.9680  0.2764 -2.0259
 7410TIP3    H243722   4.707   4.972  11.800  1.8152  0.3063 -2.7764
 7411TIP3   OH243723   4.087   4.484   1.114 -0.3799  0.3305 -0.5033
 7411TIP3    H143724   4.125   4.402   1.145 -1.2163 -0.0137 -0.3656
 7411TIP3    H243725   3.992   4.468   1.112 -0.5222  1.1430 -0.9048
 7412TIP3   OH243726   3.874   4.235   6.519  0.1178 -0.0735  0.0791
 7412TIP3    H143727   3.961   4.201   6.498 -0.4159 -0.8605 -0.9587
 7412TIP3    H243728   3.832   4.164   6.568 -0.4685 -0.3243 -0.7705
 7413TIP3   OH243729   4.763   1.383  14.261  0.2177  0.2064  0.1594
 7413TIP3    H143730   4.851   1.391  14.298 -0.1245 -0.3894  1.1258
 7413TIP3    H243731   4.713   1.453  14.303 -0.0497 -0.1692  0.4721
 7414TIP3   OH243732   5.490   6.625   3.998 -1.0428 -0.0483 -0.6061
 7414TIP3    H143733   5.572   6.589   3.963  0.5988  0.6902  2.1170
 7414TIP3    H243734   5.422   6.593   3.939  1.1251 -1.2667 -2.6145
 7415TIP3   OH243735   6.789   1.062  11.506 -0.2504  0.6927 -0.2632
 7415TIP3    H143736   6.737   1.071  11.426  0.2119 -1.5587 -0.8857
 7415TIP3    H243737   6.749   0.988  11.552  1.1810  0.2065  0.2284
 7416TIP3   OH243738   3.674   3.504  14.687 -0.0477  0.0772 -0.1467
 7416TIP3    H143739   3.760   3.516  14.647  0.0784  2.5942  0.6690
 7416TIP3    H243740   3.640   3.593  14.697 -1.5500 -0.6596  2.0869
 7417TIP3   OH243741   5.204   1.186  12.331 -0.0485  0.3715  0.0143
 7417TIP3    H143742   5.274   1.142  12.378  0.3905  0.7703 -0.2475
 7417TIP3    H243743   5.164   1.118  12.277  0.0540  0.1120  0.2658
 7418TIP3   OH243744   6.327   2.522   0.221  0.2591  0.2965  0.2701
 7418TIP3    H143745   6.417   2.535   0.192  0.1243 -2.5266 -1.8423
 7418TIP3    H243746   6.333   2.515   0.317  2.5255 -1.2437  0.0805
 7419TIP3   OH243747   1.020   0.174  14.027  0.4107 -0.0106  0.1170
 7419TIP3    H143748   1.045   0.110  13.960 -1.2395  0.1128 -0.6987
 7419TIP3    H243749   0.933   0.204  13.999  0.8655  2.1402  0.8031
 7420TIP3   OH243750   4.278   5.153   2.018  0.1652 -0.6100 -0.0968
 7420TIP3    H143751   4.256   5.246   2.019 -0.3926 -0.7036  2.4999
 7420TIP3    H243752   4.244   5.121   1.934 -0.6262  1.2983 -0.5450
 7421TIP3   OH243753   5.121   3.794   3.825 -0.5161 -0.7189  0.2554
 7421TIP3    H143754   5.181   3.742   3.879  1.0146  0.8135  0.1428
 7421TIP3    H243755   5.108   3.742   3.746  1.8140 -0.5497 -0.3248
 7422TIP3   OH243756   1.216   2.782  12.595  0.0419  0.2956  0.0501
 7422TIP3    H143757   1.243   2.866  12.632 -0.6161  0.8577 -0.7193
 7422TIP3    H243758   1.217   2.797  12.500 -0.8091 -0.3352 -0.0635
 7423TIP3   OH243759   5.496   5.653   6.199  0.3163  0.2894 -0.4779
 7423TIP3    H143760   5.423   5.696   6.154 -0.0227 -0.0616 -0.2706
 7423TIP3    H243761   5.513   5.574   6.147  0.3362  0.2043 -0.3432
 7424TIP3   OH243762   2.139   3.161   0.617 -0.5835  0.5401 -0.2573
 7424TIP3    H143763   2.059   3.211   0.634  0.1365  1.2573  1.2065
 7424TIP3    H243764   2.210   3.217   0.648  0.2735 -1.3829  1.5428
 7425TIP3   OH243765   2.731   6.842   0.859 -0.0362  0.0875  0.1538
 7425TIP3    H143766   2.746   6.936   0.849 -0.3409  0.2194  0.8738
 7425TIP3    H243767   2.797   6.802   0.804  0.2043  0.7254 -0.0359
 7426TIP3   OH243768   0.866   0.145   2.057  0.4874 -0.4941 -0.1275
 7426TIP3    H143769   0.846   0.095   2.136 -0.1998  0.6112  0.4311
 7426TIP3    H243770   0.957   0.171   2.067 -0.3441  2.2020  1.8751
 7427TIP3   OH243771   0.944   6.285  12.887  0.2391 -0.3345  0.8231
 7427TIP3    H143772   0.965   6.234  12.809 -0.8854 -0.1228  0.3590
 7427TIP3    H243773   1.008   6.356  12.888  0.2400 -0.3224  0.0733
 7428TIP3   OH243774   0.268   3.999   5.148 -0.2821 -0.5265  0.3104
 7428TIP3    H143775   0.286   4.037   5.234  0.1703 -0.3978  0.1585
 7428TIP3    H243776   0.272   4.073   5.087  1.4269 -0.9223 -0.1028
 7429TIP3   OH243777   2.882   6.079  12.839 -0.4961  0.0096 -0.2479
 7429TIP3    H143778   2.787   6.075  12.831 -0.4654 -0.8604 -0.1939
 7429TIP3    H243779   2.901   6.173  12.842 -1.3533  0.1927 -0.2091
 7430TIP3   OH243780   1.330   2.539  12.590 -0.0682  0.6719  0.1304
 7430TIP3    H143781   1.301   2.630  12.588  2.0457  1.3890  0.0038
 7430TIP3    H243782   1.307   2.504  12.504 -0.5127  1.2065  0.0338
 7431TIP3   OH243783   5.554   2.344   2.718  0.2897  0.2337  0.0331
 7431TIP3    H143784   5.645   2.351   2.748  1.1379 -1.2231 -1.9453
 7431TIP3    H243785   5.515   2.279   2.778  1.1399 -0.5768 -0.2551
 7432TIP3   OH243786   2.813   3.415  12.579 -0.1828 -0.0367  0.0027
 7432TIP3    H143787   2.746   3.417  12.647 -0.4682 -1.1985 -0.2275
 7432TIP3    H243788   2.765   3.432  12.498  0.2788  2.2177  0.1335
 7433TIP3   OH243789   5.004   5.849   5.067 -0.1126  0.1640 -0.1756
 7433TIP3    H143790   5.092   5.859   5.103 -0.0645 -1.8588  0.3705
 7433TIP3    H243791   5.017   5.800   4.985 -0.7376 -0.5110  0.1163
 7434TIP3   OH243792   2.193   1.418  14.967 -0.1731  0.3374 -0.2524
 7434TIP3    H143793   2.168   1.510  14.970  2.4779  1.3223 -3.0206
 7434TIP3    H243794   2.252   1.407  15.042 -0.6659  0.7769  0.2143
 7435TIP3   OH243795   1.530   2.246   3.211  0.3350  0.0878 -0.4855
 7435TIP3    H143796   1.545   2.340   3.201  2.6014 -0.3753 -2.4491
 7435TIP3    H243797   1.436   2.235   3.201  0.1715  2.0297 -1.5816
 7436TIP3   OH243798   5.738   5.227  14.125 -0.2268  0.0445  0.2460
 7436TIP3    H143799   5.781   5.150  14.161  0.0081  0.5669  1.1035
 7436TIP3    H243800   5.645   5.203  14.123 -0.0082 -0.7970 -0.8935
 7437TIP3   OH243801   4.136   3.822  14.172  0.0034  0.1936  0.6635
 7437TIP3    H143802   4.216   3.860  14.135 -0.3281  0.5856  0.3486
 7437TIP3    H243803   4.079   3.897  14.187 -0.8413 -0.2148 -0.3833
 7438TIP3   OH243804   2.483   5.402   4.907 -0.2946  0.3879  0.2940
 7438TIP3    H143805   2.449   5.437   4.825 -0.5651 -1.6813 -0.5091
 7438TIP3    H243806   2.577   5.394   4.892 -0.1703  1.0671  0.6266
 7439TIP3   OH243807   0.306   3.932  15.122 -0.0567 -0.1050  0.3868
 7439TIP3    H143808   0.223   3.949  15.167 -0.0291  0.7147  0.1462
 7439TIP3    H243809   0.340   4.019  15.101  1.3303 -0.3996  1.3008
 7440TIP3   OH243810   5.840   1.725  13.172  0.0676 -0.1790  0.2394
 7440TIP3    H143811   5.849   1.764  13.259 -0.6815  0.7501 -0.0936
 7440TIP3    H243812   5.909   1.767  13.120  0.7655 -1.0151  0.4703
 7441TIP3   OH243813   6.692   1.139   5.648  0.0467  0.0302 -0.9512
 7441TIP3    H143814   6.741   1.221   5.659 -1.2544  0.9632 -1.7812
 7441TIP3    H243815   6.740   1.092   5.580  1.0502 -0.1221 -0.1724
 7442TIP3   OH243816   4.269   6.711   1.738  0.0598  0.2544 -0.1078
 7442TIP3    H143817   4.315   6.783   1.783  0.8963 -0.5853  0.4149
 7442TIP3    H243818   4.204   6.681   1.801 -1.8349  1.9356 -1.1172
 7443TIP3   OH243819   4.498   1.913   1.293  0.3246 -0.2899 -0.3848
 7443TIP3    H143820   4.448   1.836   1.267 -0.2752  0.3016 -1.0294
 7443TIP3    H243821   4.477   1.979   1.226  2.7479 -0.3355 -1.3174
 7444TIP3   OH243822   3.285   4.490  15.946 -0.4580 -0.3004 -0.4131
 7444TIP3    H143823   3.277   4.577  15.985 -4.0012 -0.1607 -1.1070
 7444TIP3    H243824   3.244   4.431  16.009  0.8970 -1.3623 -0.4643
 7445TIP3   OH243825   6.791   4.504   4.532  0.0042 -0.1193 -0.1704
 7445TIP3    H143826   6.712   4.500   4.586  0.2150 -1.2727  0.0799
 7445TIP3    H243827   6.846   4.570   4.576 -1.6760  2.3862 -1.6086
 7446TIP3   OH243828   0.157   2.554   0.118  0.6494  0.7920 -0.2789
 7446TIP3    H143829   0.206   2.624   0.074 -0.9138  1.4025 -1.0925
 7446TIP3    H243830   0.152   2.484   0.053  0.3425  0.7818 -0.2454
 7447TIP3   OH243831   5.039   5.785   2.603 -0.0433 -0.3866 -0.0183
 7447TIP3    H143832   5.111   5.731   2.571  0.9438  1.5239 -1.2240
 7447TIP3    H243833   5.075   5.828   2.682 -0.5145 -0.8103  0.4344
 7448TIP3   OH243834   5.544   1.418  10.792 -0.1968 -0.0015  0.1909
 7448TIP3    H143835   5.594   1.337  10.780 -0.7837 -0.5159  1.0720
 7448TIP3    H243836   5.610   1.484  10.814  0.3296 -0.1372 -0.8865
 7449TIP3   OH243837   0.218   0.799   2.832  0.2759 -0.0957 -0.0075
 7449TIP3    H143838   0.263   0.867   2.882  1.2875 -0.8904  0.1889
 7449TIP3    H243839   0.182   0.845   2.756  0.9922  0.6488  0.0917
 7450TIP3   OH243840   4.784   6.559  12.143 -0.3734  0.4523  0.3609
 7450TIP3    H143841   4.727   6.485  12.161 -0.8122  0.9725  1.1890
 7450TIP3    H243842   4.794   6.560  12.048 -1.7572  0.3546  0.1957
 7451TIP3   OH243843   0.853   2.547   4.209 -0.0494  0.5761  0.0830
 7451TIP3    H143844   0.880   2.457   4.226 -0.0779  0.1544 -1.9092
 7451TIP3    H243845   0.864   2.591   4.293 -1.2507 -1.5652  1.4647
 7452TIP3   OH243846   3.516   4.795   1.753 -0.0531  0.1422  0.4646
 7452TIP3    H143847   3.455   4.808   1.826 -1.3945 -1.2002 -0.3552
 7452TIP3    H243848   3.572   4.723   1.781 -2.9438 -3.0149 -1.0991
 7453TIP3   OH243849   1.314   0.358  13.155 -0.5761  0.5626  0.6496
 7453TIP3    H143850   1.388   0.317  13.199 -0.2874  0.4914  0.1048
 7453TIP3    H243851   1.246   0.363  13.222 -0.5312 -0.5674  0.7923
 7454TIP3   OH243852   6.405   4.865  16.373  0.6437 -0.1986 -0.4332
 7454TIP3    H143853   6.321   4.819  16.374  0.6864 -0.2677  0.5089
 7454TIP3    H243854   6.468   4.800  16.344  0.3494 -0.0921 -1.3463
 7455TIP3   OH243855   4.765   2.721   5.102 -0.2205  0.2053  0.5685
 7455TIP3    H143856   4.735   2.645   5.152 -0.7147  0.5088  0.7341
 7455TIP3    H243857   4.741   2.796   5.155 -0.5355  0.5254 -0.0183
 7456TIP3   OH243858   0.884   6.206  11.027 -0.5146 -0.3447  0.3932
 7456TIP3    H143859   0.844   6.140  11.085 -0.1145 -2.8963 -2.0362
 7456TIP3    H243860   0.889   6.163  10.942  1.0220  2.4268 -1.0422
 7457TIP3   OH243861   3.602   5.975   1.671 -0.1143 -0.2952 -0.2051
 7457TIP3    H143862   3.582   5.940   1.758  0.3030  3.0258  1.3913
 7457TIP3    H243863   3.689   5.939   1.650 -0.0997 -0.9179  0.8735
 7458TIP3   OH243864   4.519   6.118   1.693  0.4845  0.1581  0.4945
 7458TIP3    H143865   4.483   6.191   1.743  0.8945  0.7608 -0.0684
 7458TIP3    H243866   4.477   6.040   1.730 -0.2088  0.7048  0.8788
 7459TIP3   OH243867   3.778   4.976  15.694 -0.2763  0.0276 -0.0267
 7459TIP3    H143868   3.736   4.915  15.634 -1.3584  0.4989  0.2149
 7459TIP3    H243869   3.855   4.930  15.727  0.6698 -0.0284 -2.1836
 7460TIP3   OH243870   3.910   3.597  12.353  0.1540  0.1225 -0.5113
 7460TIP3    H143871   3.858   3.594  12.433  3.0718 -1.7385  1.5142
 7460TIP3    H243872   3.867   3.535  12.294 -2.1838  1.7114 -0.5861
 7461TIP3   OH243873   0.324   4.092  16.486  0.1077  0.7293 -0.2575
 7461TIP3    H143874   0.379   4.080  16.409 -0.6191 -1.5899 -0.5086
 7461TIP3    H243875   0.241   4.049  16.463 -0.0603 -0.2130  1.8739
 7462TIP3   OH243876   3.717   1.264  12.053 -0.3387  0.1430  0.0065
 7462TIP3    H143877   3.665   1.325  12.000 -0.0395  1.5567  1.2740
 7462TIP3    H243878   3.694   1.286  12.144 -1.7233 -2.9684  0.5394
 7463TIP3   OH243879   6.701   2.538  11.207 -0.4276  0.0096  0.5556
 7463TIP3    H143880   6.795   2.532  11.227  0.1272  1.9236 -1.1317
 7463TIP3    H243881   6.690   2.487  11.127 -1.3035 -1.9503  1.8453
 7464TIP3   OH243882   5.804   6.612   5.942 -0.1946  0.2388  0.6506
 7464TIP3    H143883   5.788   6.560   5.863 -1.4018  0.4378  0.7500
 7464TIP3    H243884   5.717   6.627   5.979  0.2741  1.0087  1.4751
 7465TIP3   OH243885   1.711   5.332  15.516  0.6286  0.4301 -0.2898
 7465TIP3    H143886   1.796   5.290  15.534  1.0065  1.0574 -0.5588
 7465TIP3    H243887   1.654   5.302  15.586  1.4341  1.0231  0.6419
 7466TIP3   OH243888   3.615   2.216  15.327 -0.3367  0.7911  0.2571
 7466TIP3    H143889   3.562   2.244  15.252  2.5430 -1.4719 -2.8945
 7466TIP3    H243890   3.556   2.162  15.379 -1.8123  0.4040 -1.7106
 7467TIP3   OH243891   4.732   4.692  16.469  0.2865  0.2895 -0.3597
 7467TIP3    H143892   4.670   4.730  16.407  3.1003  1.9293 -2.3851
 7467TIP3    H243893   4.710   4.731  16.553 -1.8333  0.2451 -0.8544
 7468TIP3   OH243894   5.349   5.891   6.153  0.0449  0.0653  0.0444
 7468TIP3    H143895   5.305   5.917   6.072 -2.1331  0.6410  1.3344
 7468TIP3    H243896   5.392   5.971   6.184 -0.9089  0.4006  0.5236
 7469TIP3   OH243897   1.938   1.958   5.873  0.0177 -0.5512 -0.2277
 7469TIP3    H143898   1.896   1.872   5.876  0.4906 -0.7721  0.1777
 7469TIP3    H243899   1.944   1.986   5.964 -0.2510 -0.0251 -0.3646
 7470TIP3   OH243900   2.707   4.228  11.447  0.3109 -0.1285  0.2427
 7470TIP3    H143901   2.789   4.257  11.486  0.3227 -1.3532  1.2069
 7470TIP3    H243902   2.639   4.265  11.503  0.2738 -0.5691  0.4941
 7471TIP3   OH243903   1.489   4.950   3.515 -0.2393 -0.0109 -0.6643
 7471TIP3    H143904   1.409   4.963   3.463 -1.4487  1.0472  1.3253
 7471TIP3    H243905   1.478   5.008   3.591  1.5944 -1.2152  0.6032
 7472TIP3   OH243906   4.550   1.419  15.796  0.1174  0.9087 -0.5542
 7472TIP3    H143907   4.494   1.490  15.762  0.5075  0.2615 -2.7602
 7472TIP3    H243908   4.496   1.341  15.786  0.5262  0.6009 -0.3515
 7473TIP3   OH243909   6.126   2.900   5.261 -0.1275  0.0506 -0.0161
 7473TIP3    H143910   6.164   2.988   5.256  3.3410 -1.1558  1.7419
 7473TIP3    H243911   6.080   2.890   5.178  1.6793  2.5641 -1.4930
 7474TIP3   OH243912   3.175   4.238   0.520 -0.0835 -0.5195  0.1164
 7474TIP3    H143913   3.101   4.179   0.503  0.0714 -0.7599  0.2611
 7474TIP3    H243914   3.241   4.182   0.562  0.1488 -0.2892  0.0625
 7475TIP3   OH243915   4.020   2.889  14.809  0.0582 -0.1152  0.0676
 7475TIP3    H143916   4.014   2.801  14.771  0.2865 -0.0131 -0.2102
 7475TIP3    H243917   4.071   2.876  14.889 -0.6982 -0.3825  0.5171
 7476TIP3   OH243918   3.943   1.939   3.567  0.1153 -0.2886  0.0943
 7476TIP3    H143919   3.992   1.858   3.557  0.1083 -0.1118 -1.7446
 7476TIP3    H243920   3.988   1.987   3.637  0.1675 -1.7981  1.1438
 7477TIP3   OH243921   5.104   3.223   5.790 -0.5278  0.5012 -0.6665
 7477TIP3    H143922   5.171   3.159   5.766 -1.4839 -0.6813 -0.2664
 7477TIP3    H243923   5.060   3.245   5.708 -1.7927 -1.2320 -0.5029
 7478TIP3   OH243924   6.558   0.156   0.557  0.3064 -0.4224 -1.2180
 7478TIP3    H143925   6.489   0.095   0.534  1.2288 -1.7218 -0.6897
 7478TIP3    H243926   6.545   0.174   0.650  0.5664 -0.5433 -1.1550
 7479TIP3   OH243927   6.812   6.817  13.502 -0.4221  0.5362  0.8767
 7479TIP3    H143928   6.800   6.767  13.583  2.3446  0.4582  1.3323
 7479TIP3    H243929   6.848   6.755  13.440  0.9658  1.4074  0.7643
 7480TIP3   OH243930   0.782   3.805  12.147 -0.1481 -0.2335  0.3043
 7480TIP3    H143931   0.781   3.709  12.143 -1.1031 -0.2023 -2.3994
 7480TIP3    H243932   0.873   3.829  12.131 -0.1335 -0.6976 -0.3606
 7481TIP3   OH243933   2.788   0.981  13.737  0.1509  0.5367 -0.1569
 7481TIP3    H143934   2.714   0.947  13.687 -0.1378  0.5000  0.2961
 7481TIP3    H243935   2.812   1.062  13.692  0.1486  0.2986 -0.5915
 7482TIP3   OH243936   3.034   3.178   2.647  0.0104 -0.1775 -0.6599
 7482TIP3    H143937   3.048   3.093   2.688 -1.6952  0.2949  1.0772
 7482TIP3    H243938   2.995   3.158   2.562 -0.1454 -1.1412 -0.3691
 7483TIP3   OH243939   0.730   0.126  11.917  0.6674  0.0377  0.0569
 7483TIP3    H143940   0.768   0.038  11.906 -2.3790 -1.2329 -1.2928
 7483TIP3    H243941   0.663   0.115  11.984 -0.6440  0.9830 -1.0526
 7484TIP3   OH243942   4.662   1.613   2.140 -0.1418  0.2138 -0.1350
 7484TIP3    H143943   4.667   1.704   2.112 -0.6698  0.1734 -0.3811
 7484TIP3    H243944   4.568   1.594   2.145 -0.0395 -0.2430  0.1557
 7485TIP3   OH243945   4.393   4.044   3.855 -0.2496 -0.3056  0.5444
 7485TIP3    H143946   4.331   4.113   3.878  0.2742  0.2292  0.3731
 7485TIP3    H243947   4.355   3.964   3.894 -1.5277 -0.1798 -0.3705
 7486TIP3   OH243948   6.231   4.206  12.541 -0.3240  0.3577  0.0203
 7486TIP3    H143949   6.165   4.139  12.522 -0.5947  0.2922  1.1090
 7486TIP3    H243950   6.276   4.220  12.458 -0.5204 -0.8950 -0.3141
 7487TIP3   OH243951   3.967   6.759  14.493 -0.0043  0.1549 -0.1441
 7487TIP3    H143952   4.039   6.720  14.444  1.2041 -0.3014  1.8575
 7487TIP3    H243953   3.962   6.849  14.462  1.4073  0.1712 -0.3814
 7488TIP3   OH243954   4.409   1.538   6.786  0.0964 -0.2358  0.4783
 7488TIP3    H143955   4.439   1.483   6.714 -1.4696 -0.1296 -0.2940
 7488TIP3    H243956   4.348   1.483   6.835 -0.8072  0.5144  0.2152
 7489TIP3   OH243957   3.903   2.038   1.431 -0.4570 -0.1056 -0.4224
 7489TIP3    H143958   3.817   1.997   1.442  0.4240 -1.6911  1.0550
 7489TIP3    H243959   3.935   2.051   1.520  0.1646  2.0239 -0.9103
 7490TIP3   OH243960   3.385   1.265   6.221  0.1267 -0.5689 -0.0752
 7490TIP3    H143961   3.312   1.236   6.276 -1.1826  1.4020 -0.6629
 7490TIP3    H243962   3.437   1.322   6.279  0.2702 -0.6598 -0.1144
 7491TIP3   OH243963   4.753   0.436  16.320 -0.3507  0.3921  0.6508
 7491TIP3    H143964   4.750   0.360  16.263  1.3825  0.8893 -0.1891
 7491TIP3    H243965   4.715   0.406  16.403 -1.2714 -0.8529 -0.1842
 7492TIP3   OH243966   4.323   6.261   0.671  0.5815  0.1041 -0.2345
 7492TIP3    H143967   4.272   6.315   0.611  2.4672  1.4603 -0.6735
 7492TIP3    H243968   4.372   6.202   0.615  0.2718 -0.5284  0.1416
 7493TIP3   OH243969   3.719   1.708  13.504 -0.4382  0.0464  0.1079
 7493TIP3    H143970   3.652   1.646  13.534 -1.8917  1.6104  0.2182
 7493TIP3    H243971   3.684   1.742  13.421  0.8634 -0.0507 -0.5094
 7494TIP3   OH243972   4.208   4.643  14.740 -0.4674 -0.0148 -0.2388
 7494TIP3    H143973   4.235   4.606  14.824 -2.7306 -1.2782  0.0071
 7494TIP3    H243974   4.290   4.658  14.693  0.8634  0.6710  2.1344
 7495TIP3   OH243975   5.646   0.546  13.365 -0.5354 -0.4058  0.7616
 7495TIP3    H143976   5.715   0.581  13.422  1.2458  1.1195 -2.1179
 7495TIP3    H243977   5.594   0.622  13.340 -1.3699 -1.0678  0.4240
 7496TIP3   OH243978   0.085   4.625   3.944 -0.3943 -0.1028 -0.4807
 7496TIP3    H143979   0.078   4.671   3.860 -0.4789 -0.0718 -0.4565
 7496TIP3    H243980   0.124   4.688   4.003 -1.1886  0.1880 -0.2546
 7497TIP3   OH243981   3.143   0.018  16.516 -0.8236  0.3335  1.0120
 7497TIP3    H143982   3.166   0.032  16.608 -1.1922  0.5661  1.0686
 7497TIP3    H243983   3.199   0.079  16.468  1.0106 -1.3404  0.9003
 7498TIP3   OH243984   5.771   5.463   6.350 -0.2061 -0.8290  0.4834
 7498TIP3    H143985   5.743   5.534   6.408  0.0028 -1.0616  0.8763
 7498TIP3    H243986   5.785   5.389   6.409  3.5664 -0.1268  0.7411
 7499TIP3   OH243987   6.842   5.274   0.763 -0.1300  0.0547 -0.4535
 7499TIP3    H143988   6.875   5.351   0.809 -0.7286 -0.3138  0.6231
 7499TIP3    H243989   6.815   5.307   0.677 -1.5725  1.3100  0.4370
 7500TIP3   OH243990   0.012   4.187   1.411 -0.1451  0.3203 -0.0016
 7500TIP3    H143991  -0.013   4.105   1.454  0.3596  1.4536  2.6255
 7500TIP3    H243992  -0.057   4.249   1.433 -0.3351  0.7385 -1.6506
 7501TIP3   OH243993   5.044   5.050  13.676  0.5697  0.1558  0.5466
 7501TIP3    H143994   5.022   4.958  13.692 -0.7757  0.4093  0.2430
 7501TIP3    H243995   4.972   5.099  13.716  0.9783  1.0614  0.1950
 7502TIP3   OH243996   0.969   4.636  11.940  0.2629  0.6879  0.0404
 7502TIP3    H143997   1.058   4.608  11.962  0.2884 -0.9568 -1.8976
 7502TIP3    H243998   0.981   4.723  11.902  0.8178  1.1767  1.2654
 7503TIP3   OH243999   1.701   0.782   5.463 -0.0731 -0.0870  0.2248
 7503TIP3    H144000   1.662   0.724   5.397  0.0057  0.1799 -0.0587
 7503TIP3    H244001   1.718   0.725   5.538  1.6228 -0.8284 -0.6549
 7504TIP3   OH244002   3.228   0.119   5.485 -0.1791 -0.0402 -0.0692
 7504TIP3    H144003   3.210   0.170   5.563 -0.0930 -0.3425  0.1514
 7504TIP3    H244004   3.246   0.183   5.417  2.5581  0.2266  0.7910
 7505TIP3   OH244005   5.349   2.786   2.364 -0.3262  0.1897  0.5787
 7505TIP3    H144006   5.372   2.794   2.457 -1.9682  3.1053  0.8876
 7505TIP3    H244007   5.253   2.789   2.364 -0.3335  1.4156 -1.2200
 7506TIP3   OH244008   4.684   6.574  13.579 -0.2324 -0.2800  0.6747
 7506TIP3    H144009   4.779   6.585  13.575 -0.4598  1.8814 -1.8443
 7506TIP3    H244010   4.656   6.630  13.652  0.3759 -0.5743  1.1417
 7507TIP3   OH244011   5.054   3.569  13.124 -0.1311  0.5349 -0.0321
 7507TIP3    H144012   4.968   3.527  13.123 -0.3325  0.9034  0.8116
 7507TIP3    H244013   5.041   3.651  13.171  0.1190  1.9143 -2.2109
 7508TIP3   OH244014   6.200   3.710   1.556  0.0077 -0.1995 -0.0770
 7508TIP3    H144015   6.220   3.748   1.470 -2.0711 -0.8917 -0.9359
 7508TIP3    H244016   6.115   3.746   1.579 -0.9558 -2.4730  0.1540
 7509TIP3   OH244017   0.987   3.480  11.965 -0.4066 -0.8795 -0.0794
 7509TIP3    H144018   0.910   3.504  12.016 -0.5619 -0.0734 -0.6809
 7509TIP3    H244019   0.992   3.546  11.896 -0.1639 -1.9054 -1.0746
 7510TIP3   OH244020   3.514   1.469  11.574  0.0417 -0.0585  0.2631
 7510TIP3    H144021   3.590   1.522  11.554 -0.9729  1.8800  1.3025
 7510TIP3    H244022   3.513   1.462  11.670  0.7226 -2.9247  0.1740
 7511TIP3   OH244023   1.945   2.731   6.676 -0.0745  0.4780  0.4386
 7511TIP3    H144024   1.944   2.758   6.584 -1.4834 -0.4842  0.1254
 7511TIP3    H244025   2.028   2.762   6.710  0.1214  1.5724 -0.9486
 7512TIP3   OH244026   2.349   0.993  11.809 -0.0191 -0.7687  0.1584
 7512TIP3    H144027   2.341   1.078  11.765  0.2535 -1.0042 -0.3557
 7512TIP3    H244028   2.319   1.009  11.898 -1.6463 -0.5370 -0.3962
 7513TIP3   OH244029   4.556   6.774  15.278  0.2331  0.2384 -0.6304
 7513TIP3    H144030   4.604   6.691  15.274 -0.9083 -0.4988  0.3545
 7513TIP3    H244031   4.587   6.815  15.359  1.7252  1.4101 -1.7313
 7514TIP3   OH244032   5.986   4.200   2.663 -0.7886 -0.8509  0.3978
 7514TIP3    H144033   6.072   4.192   2.623 -0.6098 -1.9025  0.9543
 7514TIP3    H244034   5.975   4.293   2.679 -1.3618 -0.1464 -3.1234
 7515TIP3   OH244035   5.951   3.784  10.541  0.7836 -0.0168 -0.4790
 7515TIP3    H144036   5.973   3.691  10.535 -0.1721 -0.4768  2.0517
 7515TIP3    H244037   5.857   3.785  10.557  1.0134  1.2758  1.0511
 7516TIP3   OH244038   1.316   0.966  12.661  0.2228  0.5912 -0.2184
 7516TIP3    H144039   1.279   1.053  12.645 -0.9826  0.3869  1.2402
 7516TIP3    H244040   1.299   0.950  12.754  0.3543 -1.2375 -0.4765
 7517TIP3   OH244041   2.853   3.881   3.589  0.3085  0.0418  0.2452
 7517TIP3    H144042   2.820   3.798   3.555 -3.2241  0.8423  1.3149
 7517TIP3    H244043   2.929   3.856   3.642  0.1144 -2.3141 -0.4554
 7518TIP3   OH244044   5.040   3.280   4.690 -0.3409 -0.1775 -0.1180
 7518TIP3    H144045   5.027   3.242   4.777 -2.2732  0.3526 -0.1429
 7518TIP3    H244046   5.130   3.256   4.667  0.4402  0.1841  2.2717
 7519TIP3   OH244047   4.320   0.018  11.788  0.3888 -0.3067 -0.1255
 7519TIP3    H144048   4.274   0.067  11.857  0.2033 -0.4094 -0.1764
 7519TIP3    H244049   4.261   0.022  11.713 -1.2016 -3.4036  0.7948
 7520TIP3   OH244050   2.940   6.419   1.820 -0.3432 -0.0611 -0.1455
 7520TIP3    H144051   2.994   6.497   1.834  1.1616 -1.1573  0.4243
 7520TIP3    H244052   2.856   6.453   1.788  0.6085  1.7095 -0.8714
 7521TIP3   OH244053   1.320   2.234  12.183 -0.6097 -0.2791 -0.2721
 7521TIP3    H144054   1.274   2.284  12.116  0.0273  0.3482 -0.2410
 7521TIP3    H244055   1.256   2.167  12.210 -0.7410 -0.7962 -1.7574
 7522TIP3   OH244056   2.316   4.824  12.363 -0.1707  0.7980  0.5774
 7522TIP3    H144057   2.224   4.815  12.389  0.1079  0.6096  1.5519
 7522TIP3    H244058   2.348   4.734  12.355 -0.4115  0.8254 -1.1255
 7523TIP3   OH244059   1.121   4.770   1.820  0.3938  0.0724 -0.1133
 7523TIP3    H144060   1.152   4.720   1.895 -1.2133 -0.7902  0.0218
 7523TIP3    H244061   1.058   4.712   1.777 -0.8006  1.6005 -0.5153
 7524TIP3   OH244062   5.330   2.383  11.030 -0.1015  0.2744 -0.2771
 7524TIP3    H144063   5.307   2.453  11.091 -1.0606 -1.4107  1.3977
 7524TIP3    H244064   5.425   2.373  11.039 -0.2567 -0.0704  1.1229
 7525TIP3   OH244065   5.773   1.600   2.603  0.3917 -0.6016 -0.3662
 7525TIP3    H144066   5.740   1.569   2.687  1.5595  0.3723  0.5045
 7525TIP3    H244067   5.755   1.529   2.542 -1.8834 -0.7247  0.3422
 7526TIP3   OH244068   4.624   1.094   0.994 -0.9524  0.7418 -0.1070
 7526TIP3    H144069   4.628   1.149   1.072 -0.2222 -1.7203  1.7155
 7526TIP3    H244070   4.568   1.143   0.933 -1.7314  2.6676  2.0083
 7527TIP3   OH244071   0.283   2.628  10.871  0.3412  0.2707  0.4002
 7527TIP3    H144072   0.255   2.669  10.953 -1.6578  0.2159 -0.1989
 7527TIP3    H244073   0.359   2.679  10.843  2.0340 -0.6528  3.0141
 7528TIP3   OH244074   0.876   4.757   3.754 -0.1806  0.0539 -0.1294
 7528TIP3    H144075   0.782   4.757   3.735 -0.2119  0.7508  0.0079
 7528TIP3    H244076   0.899   4.664   3.759 -0.8733 -0.1246 -0.1087
 7529TIP3   OH244077   1.047   2.114  13.360  0.3732 -0.3994  0.1274
 7529TIP3    H144078   1.074   2.101  13.269 -0.4077  0.3399 -0.2302
 7529TIP3    H244079   1.108   2.179  13.395 -0.1280  0.3029 -0.2822
 7530TIP3   OH244080   0.158   5.228   5.425  0.2791  0.1454 -0.2900
 7530TIP3    H144081   0.230   5.211   5.365  0.3521 -1.1300  0.1276
 7530TIP3    H244082   0.123   5.141   5.445 -0.2808  0.6142  0.8397
 7531TIP3   OH244083   5.806   3.234   3.756  0.2451  0.0348  0.3050
 7531TIP3    H144084   5.853   3.282   3.824  0.9585 -0.2102 -0.0115
 7531TIP3    H244085   5.764   3.162   3.803  0.3879  0.1080  0.5502
 7532TIP3   OH244086   2.111   0.004  13.740  0.0218 -0.3212 -0.4025
 7532TIP3    H144087   2.163   0.034  13.814 -0.2438  0.1324 -0.3939
 7532TIP3    H244088   2.166  -0.061  13.696 -0.3141 -1.5630  0.9212
 7533TIP3   OH244089   0.100   2.807  13.174 -0.5371 -0.4681  0.3511
 7533TIP3    H144090   0.086   2.894  13.137  0.4415 -0.8481 -0.9917
 7533TIP3    H244091   0.037   2.801  13.246 -2.6398  0.2584 -1.3416
 7534TIP3   OH244092   4.252   6.733  15.629  0.5790 -0.1755 -0.0829
 7534TIP3    H144093   4.179   6.723  15.690 -0.2344  0.0284 -1.0084
 7534TIP3    H244094   4.328   6.698  15.677 -0.1026 -0.3272  0.9103
 7535TIP3   OH244095   5.280   6.748  17.106 -0.2283 -0.3900 -0.0560
 7535TIP3    H144096   5.349   6.686  17.128 -0.2430  0.0974  1.4592
 7535TIP3    H244097   5.323   6.834  17.107 -0.7903 -0.1126  0.6126
 7536TIP3   OH244098   0.322   4.233  15.368  0.4080  0.2772 -0.4422
 7536TIP3    H144099   0.353   4.189  15.447 -0.1024  1.3148  0.3575
 7536TIP3    H244100   0.249   4.288  15.397 -0.7232 -0.3806 -1.8792
 7537TIP3   OH244101   0.135   3.205  15.656  0.2586  0.1494  0.4408
 7537TIP3    H144102   0.207   3.225  15.716  1.3249  1.9442 -1.3120
 7537TIP3    H244103   0.170   3.226  15.569 -1.4878 -1.5849 -0.7638
 7538TIP3   OH244104   4.464   3.551  12.897 -0.0037  0.0689  0.7552
 7538TIP3    H144105   4.550   3.593  12.902  1.0794 -1.9777  0.4711
 7538TIP3    H244106   4.461   3.494  12.973 -0.0034 -1.7639 -0.5510
 7539TIP3   OH244107   6.468   0.684  12.400  0.1767 -0.1728  0.7131
 7539TIP3    H144108   6.450   0.778  12.392  2.5066  0.1857 -2.1350
 7539TIP3    H244109   6.395   0.642  12.354 -0.9400  0.1554  2.0981
 7540TIP3   OH244110   6.684   1.145  10.508 -0.5154  0.0992  0.6921
 7540TIP3    H144111   6.745   1.071  10.509 -0.3205  0.2572  1.1576
 7540TIP3    H244112   6.715   1.201  10.437 -1.5236 -0.9523 -0.6240
 7541TIP3   OH244113   4.796   2.551  15.084  0.1731 -0.3555  0.5474
 7541TIP3    H144114   4.791   2.614  15.156 -1.2367  0.9527 -0.6227
 7541TIP3    H244115   4.722   2.491  15.099  2.0020 -2.3708  2.1304
 7542TIP3   OH244116   6.554   6.426  13.499 -0.2208  0.3140 -0.0042
 7542TIP3    H144117   6.563   6.518  13.525 -0.0577 -0.1535  1.6784
 7542TIP3    H244118   6.523   6.382  13.578 -0.0193 -1.1379 -0.7165
 7543TIP3   OH244119   2.171   6.599  16.736  0.2489  0.1566  0.3554
 7543TIP3    H144120   2.220   6.521  16.763  0.5019  0.6811  1.5212
 7543TIP3    H244121   2.079   6.573  16.742  0.3485 -0.3856 -0.3735
 7544TIP3   OH244122   5.958   5.376  13.076 -0.4426 -0.1559  0.6233
 7544TIP3    H144123   6.030   5.314  13.085 -0.8818 -1.1117 -1.6209
 7544TIP3    H244124   5.971   5.439  13.147  2.5229 -0.3670  0.4069
 7545TIP3   OH244125   4.048   6.447   3.824 -0.0538  0.6184  0.0051
 7545TIP3    H144126   4.116   6.510   3.848  0.9336 -0.6875  0.7996
 7545TIP3    H244127   4.049   6.446   3.729  1.6360  0.0381  0.0050
 7546TIP3   OH244128   2.537   5.015  12.372  0.0572  0.2408 -0.2537
 7546TIP3    H144129   2.549   5.009  12.467  0.5463 -1.3952 -0.3925
 7546TIP3    H244130   2.480   4.941  12.350 -0.5123  0.9254 -1.1833
 7547TIP3   OH244131   2.429   0.633  13.624  0.1656 -0.3337 -0.1717
 7547TIP3    H144132   2.341   0.618  13.659  0.6879 -4.6223 -0.2590
 7547TIP3    H244133   2.427   0.595  13.537  1.7621  0.9057 -0.7969
 7548TIP3   OH244134   2.819   1.834   4.432 -0.6666 -0.2509  0.1724
 7548TIP3    H144135   2.812   1.774   4.358  0.7418 -0.3979  0.1353
 7548TIP3    H244136   2.834   1.920   4.393 -1.0895 -0.1314  0.2662
 7549TIP3   OH244137   6.054   1.940  13.389  0.5368 -0.0166 -0.5869
 7549TIP3    H144138   6.043   2.014  13.449  0.7581 -1.3361  1.1384
 7549TIP3    H244139   6.037   1.978  13.302  1.7647  2.3221  0.0857
 7550TIP3   OH244140   2.777   3.738  16.863 -0.3288 -0.2747 -0.7809
 7550TIP3    H144141   2.843   3.751  16.795 -0.9405  0.6965 -1.2103
 7550TIP3    H244142   2.695   3.766  16.822 -0.7402  0.1466  0.2986
 7551TIP3   OH244143   3.903   3.696   1.407  0.0587 -0.1317 -0.6581
 7551TIP3    H144144   3.928   3.621   1.354 -0.9267  0.0569 -1.4140
 7551TIP3    H244145   3.980   3.714   1.461  0.9475 -0.5699 -1.7424
 7552TIP3   OH244146   3.434   2.752  15.296 -0.0355  0.3125  0.0444
 7552TIP3    H144147   3.452   2.741  15.389  0.0187 -0.7176 -0.0847
 7552TIP3    H244148   3.505   2.808  15.265  0.6298 -0.3265  0.3807
 7553TIP3   OH244149   4.905   2.084   4.843 -0.3865  0.2086 -0.2201
 7553TIP3    H144150   4.821   2.055   4.807 -0.4557  1.0760 -0.7917
 7553TIP3    H244151   4.968   2.019   4.811 -0.8224 -0.4342  0.1900
 7554TIP3   OH244152   1.971   0.650  14.484  0.6815 -0.0739  0.1384
 7554TIP3    H144153   1.894   0.601  14.514  1.3926 -0.7365  0.9295
 7554TIP3    H244154   2.039   0.583  14.471  1.0184  0.4530 -0.9312
 7555TIP3   OH244155   0.369   5.915  16.982 -0.0966 -0.6383  0.0338
 7555TIP3    H144156   0.306   5.844  16.987 -0.8644  0.0553  0.4866
 7555TIP3    H244157   0.416   5.912  17.065  1.5590 -2.0971 -0.8822
 7556TIP3   OH244158   6.002   6.539   1.254  0.5552 -0.0893  0.0896
 7556TIP3    H144159   6.006   6.443   1.244  0.3100 -0.0067 -0.9649
 7556TIP3    H244160   6.076   6.571   1.202 -0.2715  0.3512 -0.8580
 7557TIP3   OH244161   4.911   4.270  15.938 -1.1261  0.0849 -0.2579
 7557TIP3    H144162   4.824   4.304  15.919 -1.4707 -1.2639 -1.2778
 7557TIP3    H244163   4.899   4.214  16.015 -0.5535  2.1893  1.4402
 7558TIP3   OH244164   3.481   6.145   6.800  0.2907  0.0996  0.6280
 7558TIP3    H144165   3.401   6.152   6.851  0.0355 -1.1878  0.4327
 7558TIP3    H244166   3.504   6.052   6.804  1.0736  0.2347 -0.3680
 7559TIP3   OH244167   6.060   1.554  12.743 -0.5639  0.0710  0.2141
 7559TIP3    H144168   6.081   1.515  12.828  1.0445 -0.1831 -0.2597
 7559TIP3    H244169   6.059   1.648  12.760  0.2473  0.0488  0.4276
 7560TIP3   OH244170   0.607   1.205   2.892 -0.3999 -0.0589 -0.3481
 7560TIP3    H144171   0.571   1.128   2.938  0.9295 -1.7086 -1.9215
 7560TIP3    H244172   0.556   1.210   2.811 -1.2710  1.4916  0.2649
 7561TIP3   OH244173   1.556   3.293  13.349  0.4204 -0.1381 -0.5608
 7561TIP3    H144174   1.491   3.298  13.278 -1.0120 -3.3691  0.3718
 7561TIP3    H244175   1.628   3.348  13.318 -0.5273 -0.6307 -4.0838
 7562TIP3   OH244176   1.308   6.330  13.099  0.1957  0.2732 -0.1069
 7562TIP3    H144177   1.339   6.245  13.066 -2.2945 -1.2836  1.2055
 7562TIP3    H244178   1.315   6.389  13.024  1.6145 -1.1887 -1.1927
 7563TIP3   OH244179   5.796   2.642   1.831 -0.2291 -0.0860  0.2267
 7563TIP3    H144180   5.732   2.616   1.765 -0.4451  3.8807 -1.4463
 7563TIP3    H244181   5.743   2.673   1.904 -0.2407  0.8547 -0.1533
 7564TIP3   OH244182   0.716   5.730  10.941  0.1245  0.7908  0.4274
 7564TIP3    H144183   0.672   5.647  10.962 -1.4175  1.4508 -0.0872
 7564TIP3    H244184   0.789   5.734  11.003  0.9252 -1.4636 -0.2335
 7565TIP3   OH244185   6.141   4.553   3.002 -0.3622  0.5307 -0.2941
 7565TIP3    H144186   6.196   4.598   3.067  1.3293 -2.1011  0.2429
 7565TIP3    H244187   6.184   4.569   2.918 -0.4390  0.8683 -0.2696
 7566TIP3   OH244188   5.388   0.838  13.676  0.1047 -0.2643  0.2512
 7566TIP3    H144189   5.446   0.775  13.719 -1.8021 -1.3617  1.3166
 7566TIP3    H244190   5.438   0.867  13.599  2.8869  0.4216  2.1686
 7567TIP3   OH244191   6.134   1.477   3.216 -0.0312  0.2118  0.4340
 7567TIP3    H144192   6.162   1.433   3.297 -2.2288 -2.2253 -0.0099
 7567TIP3    H244193   6.122   1.406   3.153 -1.6647  1.6681 -0.9988
 7568TIP3   OH244194   5.946   5.054   2.107 -0.1977 -0.3743  0.2694
 7568TIP3    H144195   5.907   5.040   2.193 -0.3320 -1.6621  0.0226
 7568TIP3    H244196   6.020   4.993   2.104  0.4160  0.3709 -0.1543
 7569TIP3   OH244197   6.421   5.830  13.980  0.4285  0.0512  0.1247
 7569TIP3    H144198   6.492   5.775  14.013  0.3751 -0.5212 -0.6846
 7569TIP3    H244199   6.342   5.778  13.992 -0.0299  1.1207  2.0325
 7570TIP3   OH244200   0.803   4.078  16.521  0.0541 -0.2909 -0.3564
 7570TIP3    H144201   0.855   4.084  16.601  0.4176  1.6784 -0.6861
 7570TIP3    H244202   0.714   4.059  16.552  0.4564 -0.9908  0.4008
 7571TIP3   OH244203   6.412   0.269  14.376 -0.6340  0.0224  0.6704
 7571TIP3    H144204   6.446   0.185  14.344 -1.2826  0.0703 -0.1947
 7571TIP3    H244205   6.472   0.295  14.446 -0.9404 -1.5923  1.5717
 7572TIP3   OH244206   0.257   0.596  17.087  0.9493  0.5301  0.7857
 7572TIP3    H144207   0.218   0.527  17.142  1.1335  1.1691  1.7387
 7572TIP3    H244208   0.333   0.554  17.046  0.4464 -0.1354  0.5184
 7573TIP3   OH244209   4.952   1.440   0.620  0.2857 -0.2032 -0.0963
 7573TIP3    H144210   4.907   1.501   0.562 -1.6686 -0.7505  0.7379
 7573TIP3    H244211   4.895   1.362   0.621  0.9460 -0.7102  1.4833
 7574TIP3   OH244212   5.334   2.691   5.434  0.1314 -0.0586 -0.2623
 7574TIP3    H144213   5.245   2.657   5.435  0.7992 -1.9476  0.9965
 7574TIP3    H244214   5.332   2.766   5.494 -0.7581  0.4653 -0.9189
 7575TIP3   OH244215   5.002   3.535  12.304  0.0856 -0.7682  0.1320
 7575TIP3    H144216   4.929   3.545  12.364  0.0533  2.7686 -0.3213
 7575TIP3    H244217   5.074   3.584  12.344  1.4672 -2.0884 -0.6255
 7576TIP3   OH244218   4.648   6.529  14.903 -0.0916 -0.4497 -0.1391
 7576TIP3    H144219   4.600   6.510  14.984  1.0589  1.3053  1.0206
 7576TIP3    H244220   4.729   6.478  14.910 -0.2860 -0.8157 -0.5151
 7577TIP3   OH244221   2.359   3.475   5.434  0.4030 -0.1304 -0.1013
 7577TIP3    H144222   2.402   3.429   5.362 -1.8813 -1.2603 -0.8551
 7577TIP3    H244223   2.355   3.567   5.405  2.3545  0.0481  0.0852
 7578TIP3   OH244224   1.990   4.866  15.428 -0.1557  0.4393 -0.2639
 7578TIP3    H144225   2.013   4.849  15.519  1.1642  0.0782 -0.6475
 7578TIP3    H244226   2.043   4.803  15.378 -0.1897  1.2392 -1.3304
 7579TIP3   OH244227   4.023   0.206   3.839  0.2148  0.0223 -0.1205
 7579TIP3    H144228   4.001   0.290   3.879  0.5454  0.3063 -0.5324
 7579TIP3    H244229   4.057   0.228   3.753 -0.8810 -0.6175 -0.7422
 7580TIP3   OH244230   6.345   1.636   5.518 -0.0723 -0.0644  0.4442
 7580TIP3    H144231   6.289   1.604   5.446  1.3674 -0.6299 -0.4619
 7580TIP3    H244232   6.298   1.712   5.552 -0.5651  0.5470 -1.4511
 7581TIP3   OH244233   2.188   0.129   2.453  0.1026 -0.1497  0.5982
 7581TIP3    H144234   2.278   0.097   2.448 -0.4225 -1.4786 -2.8400
 7581TIP3    H244235   2.194   0.222   2.428  0.4663 -0.4685 -0.5619
 7582TIP3   OH244236   6.192   2.326  16.409  0.0558 -0.1290 -0.6001
 7582TIP3    H144237   6.107   2.370  16.412  0.8475  1.4411 -0.5028
 7582TIP3    H244238   6.233   2.347  16.493  1.5652  1.2841 -1.6376
 7583TIP3   OH244239   0.873   2.732  13.554  0.0237  0.5103  0.1946
 7583TIP3    H144240   0.856   2.739  13.460  1.2659  0.3406 -0.0513
 7583TIP3    H244241   0.829   2.652  13.580  0.1219  0.2754 -0.3504
 7584TIP3   OH244242   4.831   1.654   4.850 -0.0392 -0.3621 -0.0301
 7584TIP3    H144243   4.864   1.602   4.776  0.6045 -0.4037  0.2811
 7584TIP3    H244244   4.742   1.676   4.825  0.5492  0.6454 -1.3745
 7585TIP3   OH244245   3.226   0.376   0.306 -0.0166 -0.2237 -0.3356
 7585TIP3    H144246   3.235   0.282   0.324  0.2753 -0.3926 -1.3178
 7585TIP3    H244247   3.192   0.413   0.388  1.6187 -0.8808  0.6882
 7586TIP3   OH244248   6.242   2.164   1.239 -0.4632 -0.5233 -0.2711
 7586TIP3    H144249   6.286   2.086   1.271  1.0120  0.5046  0.3116
 7586TIP3    H244250   6.170   2.178   1.300  0.4774 -0.3255  0.8345
 7587TIP3   OH244251   5.265   2.027   3.972 -0.2844  0.4246  0.6389
 7587TIP3    H144252   5.225   1.977   4.043  0.7126 -0.5603  0.5416
 7587TIP3    H244253   5.241   2.118   3.989 -1.5261  0.0011  1.2430
 7588TIP3   OH244254   0.294   2.813   3.682 -0.2182 -0.3893 -0.3177
 7588TIP3    H144255   0.307   2.833   3.775  2.1396 -0.9466 -0.4389
 7588TIP3    H244256   0.370   2.852   3.639 -0.3072 -1.6963 -1.7441
 7589TIP3   OH244257   6.834   1.685  16.895 -0.4243  0.3790  0.3335
 7589TIP3    H144258   6.878   1.632  16.828  1.0763  2.4403 -0.4555
 7589TIP3    H244259   6.874   1.658  16.977 -1.0298 -0.9755  0.2005
 7590TIP3   OH244260   3.156   6.202   0.096  0.1240  0.2394 -0.4729
 7590TIP3    H144261   3.115   6.194   0.010 -2.2699  1.7432  0.4231
 7590TIP3    H244262   3.087   6.177   0.158  1.0527  1.3369  1.0804
 7591TIP3   OH244263   2.107   1.210  13.727 -0.1621  0.1666 -0.0524
 7591TIP3    H144264   2.190   1.236  13.687 -0.3118 -0.6400 -0.9493
 7591TIP3    H244265   2.046   1.206  13.653 -0.8326  0.1041  0.4948
 7592TIP3   OH244266   2.952   3.926   4.796 -0.1885  0.0298  0.4471
 7592TIP3    H144267   2.971   3.980   4.719  0.4763  0.3559  0.8363
 7592TIP3    H244268   3.005   3.848   4.784  1.5862  0.9860  1.5850
 7593TIP3   OH244269   3.984   4.786   4.637 -0.2929  0.7755 -0.2603
 7593TIP3    H144270   4.062   4.775   4.582 -0.5322  1.7659 -0.8378
 7593TIP3    H244271   3.918   4.730   4.596  0.3660 -0.8650  0.8223
 7594TIP3   OH244272   5.888   5.725  16.666 -0.3329  0.1622  0.2461
 7594TIP3    H144273   5.830   5.801  16.661 -0.2758  0.3599  1.9480
 7594TIP3    H244274   5.946   5.735  16.591 -1.1009  1.1382 -0.2525
 7595TIP3   OH244275   6.505   4.492   5.017  0.0143 -0.1451 -0.9403
 7595TIP3    H144276   6.559   4.542   5.078 -1.7383  0.8988 -0.1741
 7595TIP3    H244277   6.519   4.401   5.042  0.7779  0.1472 -0.2488
 7596TIP3   OH244278   6.182   4.845   4.448 -0.3548 -0.3317 -0.3248
 7596TIP3    H144279   6.107   4.890   4.410  0.3795  0.0751 -1.3280
 7596TIP3    H244280   6.244   4.836   4.376  0.5353 -0.7337  0.4677
 7597TIP3   OH244281   4.670   2.296   3.665 -0.6072 -0.3745 -0.2465
 7597TIP3    H144282   4.724   2.371   3.689 -1.3394 -0.0347  0.3735
 7597TIP3    H244283   4.643   2.258   3.749 -1.1879 -0.6415 -0.5487
 7598TIP3   OH244284   4.214   3.590  15.045  0.0476 -0.2143  0.8165
 7598TIP3    H144285   4.264   3.550  14.974 -2.9095 -1.0816 -0.9239
 7598TIP3    H244286   4.129   3.611  15.006 -0.7448  1.8948  3.3956
 7599TIP3   OH244287   0.010   4.018  14.827  0.3742  0.1835  0.2485
 7599TIP3    H144288  -0.060   3.956  14.851  0.6852 -0.2971 -0.0666
 7599TIP3    H244289   0.008   4.021  14.732  0.9287 -0.0034  0.2286
 7600TIP3   OH244290   0.792   2.183   2.453  0.0160 -0.0210 -0.7877
 7600TIP3    H144291   0.816   2.258   2.508 -1.3876 -0.5218  0.6019
 7600TIP3    H244292   0.864   2.174   2.392  2.6122 -0.5467  2.1056
 7601TIP3   OH244293   0.935   5.723  13.149  0.0791 -0.0391  0.3224
 7601TIP3    H144294   0.901   5.633  13.147 -0.8127  0.2887  0.2482
 7601TIP3    H244295   0.858   5.778  13.137  0.6884  0.7297 -0.1960
 7602TIP3   OH244296   3.044   5.226  13.867  0.3569  0.0915  0.4571
 7602TIP3    H144297   3.089   5.145  13.894  1.3479 -0.5397 -2.7299
 7602TIP3    H244298   3.113   5.282  13.833 -0.5906  1.5023  0.7665
 7603TIP3   OH244299   2.345   5.421  17.096  0.0705  0.0311  0.1357
 7603TIP3    H144300   2.305   5.441  17.012 -0.4616  0.6671  0.5246
 7603TIP3    H244301   2.432   5.389  17.075 -0.3186 -0.5223 -0.6926
 7604TIP3   OH244302   6.784   6.710  14.113 -0.2416 -0.1097 -0.1234
 7604TIP3    H144303   6.817   6.782  14.059  2.1586 -1.4516 -0.6068
 7604TIP3    H244304   6.732   6.658  14.052  1.0670 -0.7065 -0.7835
 7605TIP3   OH244305   0.303   1.289  10.796  0.9316  0.3568 -0.0674
 7605TIP3    H144306   0.346   1.365  10.756 -0.1931  1.5730  0.9255
 7605TIP3    H244307   0.224   1.276  10.743  1.3031 -0.3698 -0.4532
 7606TIP3   OH244308   2.865   5.022   3.748  0.2027  0.0242  0.4586
 7606TIP3    H144309   2.921   4.945   3.735 -1.7516 -1.8105  2.1158
 7606TIP3    H244310   2.790   4.989   3.798 -1.8636  2.5592 -0.7328
 7607TIP3   OH244311   3.537   0.794  11.454 -0.5716  0.0921  0.3844
 7607TIP3    H144312   3.571   0.863  11.398 -0.3638  1.0150  1.6088
 7607TIP3    H244313   3.491   0.735  11.394  0.9817  0.1831 -0.9600
 7608TIP3   OH244314   2.477   4.473  15.789  0.2360 -0.8296  0.7768
 7608TIP3    H144315   2.411   4.541  15.780 -0.3715 -1.5706 -0.5768
 7608TIP3    H244316   2.491   4.465  15.884  0.9261  1.7044  0.9601
 7609TIP3   OH244317   3.827   0.320   0.714  0.4911 -0.3073  0.0851
 7609TIP3    H144318   3.877   0.291   0.789  0.7389 -0.2466 -0.0554
 7609TIP3    H244319   3.868   0.403   0.688  0.3207 -0.2574 -0.0299
 7610TIP3   OH244320   4.156   5.287  12.577  0.0615 -0.2328 -0.1851
 7610TIP3    H144321   4.129   5.330  12.496  0.0841 -0.2658 -0.2101
 7610TIP3    H244322   4.154   5.193  12.555  0.1615 -0.2365 -0.1763
 7611TIP3   OH244323   0.413   5.745  15.797  0.3222 -0.5076 -0.0111
 7611TIP3    H144324   0.486   5.804  15.781  0.0744 -0.1780  0.0736
 7611TIP3    H244325   0.448   5.658  15.776  0.8395 -0.3906  0.3632
 7612TIP3   OH244326   5.761   5.478  15.360 -0.0085 -0.3908  0.0170
 7612TIP3    H144327   5.696   5.428  15.410 -0.0718 -0.6739 -0.3386
 7612TIP3    H244328   5.723   5.566  15.353 -0.1821 -0.4558  0.1291
 7613TIP3   OH244329   1.567   3.529   4.592 -0.2415 -0.8521 -0.3658
 7613TIP3    H144330   1.661   3.521   4.607 -0.5205 -4.2565  0.3978
 7613TIP3    H244331   1.538   3.598   4.652  1.5620 -0.6629  0.3399
 7614TIP3   OH244332   0.748   6.601  14.688  0.2106  0.1007 -0.6865
 7614TIP3    H144333   0.748   6.601  14.783  0.8375 -2.2733 -0.6235
 7614TIP3    H244334   0.832   6.640  14.664  0.6501 -0.5346 -0.2137
 7615TIP3   OH244335   1.822   5.396  16.145  0.2741 -0.0757 -0.4350
 7615TIP3    H144336   1.822   5.426  16.236 -2.0256  1.2162 -0.7829
 7615TIP3    H244337   1.871   5.464  16.098  1.7168 -0.8901 -0.1854
 7616TIP3   OH244338   6.618   2.020   2.148 -0.8652  0.1517 -0.0746
 7616TIP3    H144339   6.698   1.995   2.104 -0.0400  0.4142  1.2243
 7616TIP3    H244340   6.642   2.026   2.241 -1.5411  3.3720  0.0175
 7617TIP3   OH244341   0.511   3.426  11.988 -0.5504 -0.1802  0.0978
 7617TIP3    H144342   0.439   3.421  12.051  0.5724  0.0351  1.4421
 7617TIP3    H244343   0.472   3.467  11.911 -1.8076  0.1824  0.8917
 7618TIP3   OH244344   4.637   6.538   3.660 -0.3296  0.2542  0.1032
 7618TIP3    H144345   4.606   6.627   3.677  1.5200  0.5606  2.4051
 7618TIP3    H244346   4.721   6.550   3.614  0.1885 -0.2513  0.8941
 7619TIP3   OH244347   6.555   2.828   3.476 -0.1201 -0.7130  0.1672
 7619TIP3    H144348   6.482   2.796   3.423 -0.3957  0.1392  0.0139
 7619TIP3    H244349   6.565   2.919   3.449  0.7204 -0.6996  0.5056
 7620TIP3   OH244350   5.038   0.216   0.822  0.4885 -0.1883 -0.1077
 7620TIP3    H144351   4.998   0.129   0.816 -1.7313  0.4455  2.9265
 7620TIP3    H244352   5.096   0.211   0.898  0.5846  0.8819 -0.0967
 7621TIP3   OH244353   0.685   3.821  12.417  0.2902 -0.1456  0.4375
 7621TIP3    H144354   0.688   3.767  12.496  1.2938 -0.6467  0.0783
 7621TIP3    H244355   0.761   3.793  12.366 -0.9474 -0.6249 -1.2213
 7622TIP3   OH244356   4.172   5.957   4.094  0.2298 -0.1336 -0.3723
 7622TIP3    H144357   4.248   5.905   4.121  0.6909 -1.4705 -3.7799
 7622TIP3    H244358   4.097   5.908   4.128  0.7492  0.8624  2.4799
 7623TIP3   OH244359   2.462   6.217  17.017 -0.7062  0.8026 -0.2435
 7623TIP3    H144360   2.381   6.264  17.037 -0.1131  0.6066  3.1682
 7623TIP3    H244361   2.532   6.279  17.037  0.0294 -0.0406 -0.1328
 7624TIP3   OH244362   4.877   3.924   4.872  0.1250 -0.4774 -0.2898
 7624TIP3    H144363   4.858   3.859   4.804  1.8203 -2.4235  0.9821
 7624TIP3    H244364   4.973   3.931   4.872  0.1709 -0.5467  1.8846
 7625TIP3   OH244365   4.871   2.355   1.209  0.1382 -0.6478 -0.5553
 7625TIP3    H144366   4.814   2.295   1.161 -1.8895 -0.2674  1.2164
 7625TIP3    H244367   4.856   2.333   1.301  0.4632  1.5618  0.0687
 7626TIP3   OH244368   6.284   5.705   0.398  0.0884 -0.3767 -0.4786
 7626TIP3    H144369   6.271   5.719   0.492 -0.8533  2.5637 -0.9508
 7626TIP3    H244370   6.205   5.660   0.369 -1.0150  1.3471 -0.2899
 7627TIP3   OH244371   3.919   0.920   3.060  0.2448  0.0173  0.2058
 7627TIP3    H144372   3.854   0.855   3.088 -2.0549  2.2843  0.5858
 7627TIP3    H244373   3.976   0.931   3.137 -1.6549  1.0483  1.5695
 7628TIP3   OH244374   0.011   2.439   2.115  0.3637  0.0825 -0.2230
 7628TIP3    H144375  -0.000   2.474   2.204  0.2776 -0.3925 -0.0429
 7628TIP3    H244376   0.084   2.377   2.123  0.5814  0.2904 -0.5599
 7629TIP3   OH244377   3.132   4.167   6.641  0.2674 -0.1725 -0.0646
 7629TIP3    H144378   3.054   4.222   6.645  0.0439 -0.3886 -1.2538
 7629TIP3    H244379   3.101   4.079   6.661  0.3996 -0.1018  0.4909
 7630TIP3   OH244380   6.042   3.742  11.114  0.0090  0.1610 -0.2222
 7630TIP3    H144381   6.063   3.829  11.148  0.3949  0.0296 -0.1260
 7630TIP3    H244382   5.962   3.755  11.063  1.8429  1.2934 -3.0958
 7631TIP3   OH244383   0.211   2.390   0.343  0.3891 -0.8213  0.1668
 7631TIP3    H144384   0.188   2.453   0.274  0.0388 -0.8412  0.2597
 7631TIP3    H244385   0.215   2.306   0.298  0.5752 -0.7738  0.0942
 7632TIP3   OH244386   5.480   6.755  14.362  0.6595  0.4874  0.3751
 7632TIP3    H144387   5.505   6.691  14.295  1.1319 -0.2244  1.2044
 7632TIP3    H244388   5.385   6.765  14.352  0.7137  0.3089 -0.3268
 7633TIP3   OH244389   3.601   4.504   6.125 -0.2511  0.0208 -0.1157
 7633TIP3    H144390   3.590   4.495   6.219 -1.5408 -0.2804 -0.2782
 7633TIP3    H244391   3.611   4.598   6.111 -1.8555  0.2623  0.1710
 7634TIP3   OH244392   4.006   4.764  15.822 -0.1143  0.4694  0.1798
 7634TIP3    H144393   3.920   4.756  15.862  0.6705  0.9136  2.0849
 7634TIP3    H244394   4.035   4.674  15.808 -0.8209  0.3209 -0.3396
 7635TIP3   OH244395   1.724   1.596   0.114  0.2373  0.1858  0.0153
 7635TIP3    H144396   1.740   1.562   0.202  0.4349 -1.2332 -0.5516
 7635TIP3    H244397   1.684   1.682   0.129 -0.8083 -0.5107  1.5123
 7636TIP3   OH244398   0.578   5.297   4.323 -0.5823  0.1724  0.1130
 7636TIP3    H144399   0.569   5.292   4.418 -0.2111  2.6560  0.3520
 7636TIP3    H244400   0.567   5.390   4.302 -1.2180 -0.3635 -2.3554
 7637TIP3   OH244401   5.294   2.832  16.428 -0.2150  0.2869  0.4002
 7637TIP3    H144402   5.306   2.851  16.335 -3.4170  1.3055  0.0752
 7637TIP3    H244403   5.380   2.850  16.467  0.4551  2.8563 -1.9017
 7638TIP3   OH244404   4.478   3.388  10.590 -0.1178 -0.1464  0.1798
 7638TIP3    H144405   4.566   3.384  10.552 -0.8905 -0.5441 -1.6942
 7638TIP3    H244406   4.444   3.299  10.580 -1.1597  0.2833 -0.2381
 7639TIP3   OH244407   2.605   6.606   4.368 -0.2167 -0.0165 -0.4649
 7639TIP3    H144408   2.541   6.665   4.406 -1.3620 -1.2154 -0.4619
 7639TIP3    H244409   2.659   6.578   4.442 -0.1404  0.4344 -0.3480
 7640TIP3   OH244410   2.901   2.783  16.598 -0.2237  0.1843 -0.1766
 7640TIP3    H144411   2.991   2.795  16.568  1.1429 -2.5016  2.3766
 7640TIP3    H244412   2.848   2.834  16.536  2.9957  1.9420 -1.7279
 7641TIP3   OH244413   3.828   0.116  11.220  0.0775  0.2629 -0.2297
 7641TIP3    H144414   3.905   0.069  11.189 -0.8122 -0.3873 -1.5567
 7641TIP3    H244415   3.845   0.132  11.313  1.5615 -0.3366 -0.3817
 7642TIP3   OH244416   5.081   3.043   5.459  0.0603  0.1905 -0.6855
 7642TIP3    H144417   5.164   3.091   5.461 -0.6348  1.4844  2.1720
 7642TIP3    H244418   5.019   3.103   5.418 -0.1605  0.6035  0.2247
 7643TIP3   OH244419   2.418   6.605   6.618  0.2517 -0.4109 -0.2090
 7643TIP3    H144420   2.407   6.519   6.579  3.3216 -0.2468 -1.7998
 7643TIP3    H244421   2.426   6.664   6.542  1.2923  0.7383  0.7512
 7644TIP3   OH244422   5.199   0.375  12.871 -0.3326 -0.1747  0.4408
 7644TIP3    H144423   5.153   0.454  12.900 -1.5116 -0.6260 -0.1324
 7644TIP3    H244424   5.194   0.315  12.945  0.9919  0.4284  1.0590
 7645TIP3   OH244425   5.143   5.492   0.460 -0.4183  0.5414  0.1274
 7645TIP3    H144426   5.219   5.435   0.450 -0.7874 -0.0929  0.8079
 7645TIP3    H244427   5.178   5.580   0.448  0.2697  0.2091 -0.3750
 7646TIP3   OH244428   6.708   5.043   1.224 -0.3808 -0.3492 -0.3825
 7646TIP3    H144429   6.668   4.961   1.195 -0.3539 -0.6772  0.4970
 7646TIP3    H244430   6.703   5.100   1.147  2.6462 -2.2191 -2.1476
 7647TIP3   OH244431   6.427   5.392   0.088 -0.2086 -0.4575  0.0501
 7647TIP3    H144432   6.466   5.314   0.050 -1.4866  0.0531 -2.5496
 7647TIP3    H244433   6.501   5.452   0.100  0.4180 -1.1196 -0.4088
 7648TIP3   OH244434   2.944   4.557  11.353 -0.0738 -0.7265 -0.3158
 7648TIP3    H144435   2.997   4.478  11.350 -0.7339 -1.3247  1.6543
 7648TIP3    H244436   2.853   4.526  11.353 -0.3719  0.0985 -0.7600
 7649TIP3   OH244437   2.633   2.111   0.764  0.6080  0.0890  0.1014
 7649TIP3    H144438   2.693   2.124   0.690  1.4183  0.0377  0.7348
 7649TIP3    H244439   2.608   2.200   0.789  0.1639  0.0987 -0.3638
 7650TIP3   OH244440   1.131   6.307  11.027  0.0959 -0.4716 -0.4151
 7650TIP3    H144441   1.038   6.284  11.035  0.6041 -2.5872  0.0464
 7650TIP3    H244442   1.170   6.278  11.110  1.4087 -0.9079 -1.1647
 7651TIP3   OH244443   4.093   2.704   5.528  0.2884  0.0761  0.1737
 7651TIP3    H144444   4.060   2.793   5.512  2.7146  1.1646  0.8067
 7651TIP3    H244445   4.094   2.664   5.441 -1.8871  0.1950  0.0143
 7652TIP3   OH244446   1.601   0.340  13.170  0.2080 -0.9796 -0.2161
 7652TIP3    H144447   1.533   0.379  13.116  0.9885 -1.2775 -1.4598
 7652TIP3    H244448   1.634   0.412  13.224  0.1121 -0.4235 -0.8839
 7653TIP3   OH244449   2.156   6.263  13.412 -0.1162 -0.0332 -0.6688
 7653TIP3    H144450   2.169   6.352  13.379 -0.3275  1.3755  2.5679
 7653TIP3    H244451   2.232   6.247  13.468 -1.3099 -0.7715  0.8446
 7654TIP3   OH244452   4.748   1.214  11.149 -0.1683 -0.0754  0.0306
 7654TIP3    H144453   4.679   1.195  11.085  1.5866  0.4100 -2.1671
 7654TIP3    H244454   4.717   1.291  11.196 -0.4112  1.2813 -2.2012
 7655TIP3   OH244455   3.168   3.035  11.034 -0.2750 -0.7818  0.3156
 7655TIP3    H144456   3.152   3.121  11.071  0.6910 -0.7757  0.7472
 7655TIP3    H244457   3.200   3.052  10.946  0.3417 -0.6797  0.5576
 7656TIP3   OH244458   4.265   2.703   1.340  0.6738  0.5965 -0.7500
 7656TIP3    H144459   4.328   2.644   1.300  1.0705 -1.3249  2.4156
 7656TIP3    H244460   4.316   2.780   1.365  1.5870 -0.4842  0.8108
 7657TIP3   OH244461   1.595   6.595   5.112  0.2731 -0.2061  0.0973
 7657TIP3    H144462   1.601   6.682   5.071 -0.4362  0.7478  1.9163
 7657TIP3    H244463   1.676   6.551   5.087  0.8164  1.1086 -0.5742
 7658TIP3   OH244464   4.069   1.597  11.200 -0.5729  0.0540 -0.2933
 7658TIP3    H144465   4.062   1.676  11.147  0.2644  1.2321  1.2809
 7658TIP3    H244466   4.090   1.629  11.288  2.4712 -2.0138 -0.1399
 7659TIP3   OH244467   0.491   5.808   6.061 -0.2261 -0.3268  0.2035
 7659TIP3    H144468   0.584   5.815   6.044 -0.4396  1.9414 -0.3520
 7659TIP3    H244469   0.457   5.753   5.991  0.7016 -1.4561  0.6047
 7660TIP3   OH244470   1.763   2.864  15.169 -0.2636 -0.4175  0.0268
 7660TIP3    H144471   1.671   2.848  15.191  0.3736 -1.7784  1.9891
 7660TIP3    H244472   1.790   2.786  15.120 -0.0781 -0.1240 -0.3444
 7661TIP3   OH244473   1.148   5.178  10.952  0.1715 -0.2529 -0.5913
 7661TIP3    H144474   1.188   5.101  10.911 -0.6231 -1.9601  1.6563
 7661TIP3    H244475   1.054   5.164  10.943  0.0173  0.5764 -0.3224
 7662TIP3   OH244476   1.759   5.105   0.204  0.0647  0.3408  0.0941
 7662TIP3    H144477   1.785   5.073   0.118 -1.9217  0.0866 -0.4472
 7662TIP3    H244478   1.822   5.064   0.264  1.0351 -0.0463 -1.1387
 7663TIP3   OH244479   5.770   4.234   0.914 -0.5822  0.3870  0.1231
 7663TIP3    H144480   5.721   4.273   0.986  1.1336 -0.3028  1.7323
 7663TIP3    H244481   5.726   4.266   0.835 -2.1302  1.6727  1.4414
 7664TIP3   OH244482   2.319   0.357   1.405 -0.5411 -0.1876 -0.4139
 7664TIP3    H144483   2.292   0.360   1.313 -1.6569 -1.4419 -0.1554
 7664TIP3    H244484   2.280   0.277   1.439 -0.3015  0.3534  1.2127
 7665TIP3   OH244485   2.716   2.443   4.739 -0.1165 -0.3377  0.2297
 7665TIP3    H144486   2.645   2.501   4.767 -1.6483 -1.9628 -0.1191
 7665TIP3    H244487   2.762   2.492   4.671 -1.9942  0.1320 -0.7779
 7666TIP3   OH244488   3.343   0.424  16.461 -0.2013 -0.0958 -0.0258
 7666TIP3    H144489   3.365   0.351  16.404  0.8039  0.7329 -0.7324
 7666TIP3    H244490   3.366   0.502  16.411 -1.1765  0.7243  0.7342
 7667TIP3   OH244491   1.867   2.542   1.670  0.1009  0.3967 -0.1470
 7667TIP3    H144492   1.840   2.491   1.593  0.4303 -0.8332  0.5224
 7667TIP3    H244493   1.894   2.476   1.734  0.3982  1.4231  0.8164
 7668TIP3   OH244494   0.659   0.104  16.329  0.1763  0.7596 -0.2193
 7668TIP3    H144495   0.591   0.156  16.372  1.7464  1.8401  1.0244
 7668TIP3    H244496   0.613   0.024  16.301 -1.0321  0.0629  3.2484
 7669TIP3   OH244497   6.746   2.682   4.662  0.6112  1.3916 -0.5456
 7669TIP3    H144498   6.801   2.641   4.728 -0.5713  1.1980  0.3454
 7669TIP3    H244499   6.805   2.740   4.614  1.8169  0.3806 -0.3428
 7670TIP3   OH244500   4.649   0.227   1.033 -0.5265  0.2021 -0.0268
 7670TIP3    H144501   4.620   0.204   1.121  0.3793  1.2340  0.5721
 7670TIP3    H244502   4.683   0.145   0.997 -1.9503 -0.4796  0.1370
 7671TIP3   OH244503   5.267   0.315   6.063 -0.3352  0.1744 -0.4915
 7671TIP3    H144504   5.291   0.348   6.150 -2.1225 -0.1254  0.1439
 7671TIP3    H244505   5.293   0.223   6.064  0.2741  0.3394 -0.5413
 7672TIP3   OH244506   2.268   2.587   6.364 -0.8096 -0.1110 -0.4712
 7672TIP3    H144507   2.251   2.525   6.435 -2.7376  1.0336  0.1492
 7672TIP3    H244508   2.252   2.537   6.284  0.9962 -1.3009 -0.1480
 7673TIP3   OH244509   5.816   5.782  16.983  0.6342  0.1008 -0.1013
 7673TIP3    H144510   5.845   5.872  16.968 -0.2943  0.4892  0.2929
 7673TIP3    H244511   5.845   5.733  16.907  0.3188  0.9479 -0.7762
 7674TIP3   OH244512   2.803   2.608  17.102 -0.0191 -0.1969  0.1196
 7674TIP3    H144513   2.864   2.583  17.171  0.1692 -1.7036 -0.5550
 7674TIP3    H244514   2.817   2.544  17.032 -0.4113  1.1019 -1.2134
 7675TIP3   OH244515   4.372   6.532  11.080  0.0991  0.0135 -0.3107
 7675TIP3    H144516   4.407   6.581  11.155 -0.9836  1.7329 -0.8796
 7675TIP3    H244517   4.282   6.563  11.071 -0.5554 -1.9240 -0.8932
 7676TIP3   OH244518   2.446   3.543  14.596 -0.4832  0.3559  0.2518
 7676TIP3    H144519   2.516   3.593  14.638  1.1819 -0.8266 -1.0185
 7676TIP3    H244520   2.374   3.545  14.659  0.9780  0.8847  1.9676
 7677TIP3   OH244521   0.976   3.410   3.136  0.2857  0.1005 -0.0875
 7677TIP3    H144522   0.930   3.326   3.135  0.9149 -0.2674 -1.4577
 7677TIP3    H244523   0.921   3.468   3.083  2.2646 -0.9276 -3.6060
 7678TIP3   OH244524   3.248   2.293   2.557  0.5458 -0.4023 -0.0536
 7678TIP3    H144525   3.173   2.311   2.501 -0.6574 -2.4614  0.7943
 7678TIP3    H244526   3.246   2.198   2.571  3.1784 -0.4962  0.2122
 7679TIP3   OH244527   3.941   4.033   5.546  0.0563 -0.6328  0.0148
 7679TIP3    H144528   3.984   4.100   5.492  1.9215 -1.6820  0.1103
 7679TIP3    H244529   3.903   4.082   5.619  2.1484  0.2903  0.5545
 7680TIP3   OH244530   5.227   5.898   6.405  0.5111  0.4339  0.1216
 7680TIP3    H144531   5.254   5.892   6.313  2.8303  1.4675  0.6553
 7680TIP3    H244532   5.234   5.991   6.426 -3.3195  0.7859  0.5075
 7681TIP3   OH244533   1.991   0.377   5.714 -0.1532 -0.5792 -0.2167
 7681TIP3    H144534   1.906   0.379   5.758 -1.4324  0.5834 -2.5603
 7681TIP3    H244535   2.020   0.468   5.713 -0.1130 -0.5942 -1.6731
 7682TIP3   OH244536   0.031   0.744  14.838 -0.1415 -0.1802 -0.0591
 7682TIP3    H144537   0.103   0.684  14.861  0.0611  0.9340  2.5433
 7682TIP3    H244538   0.074   0.819  14.799 -0.0739 -0.3216 -0.2571
 7683TIP3   OH244539   1.961   1.502  13.661  0.2822 -0.3377  0.0524
 7683TIP3    H144540   2.015   1.568  13.618 -0.8528  0.9717  0.5717
 7683TIP3    H244541   1.954   1.431  13.597 -1.6927  1.6991 -2.2021
 7684TIP3   OH244542   2.030   4.286  12.533 -0.2599 -0.1684  0.3696
 7684TIP3    H144543   1.943   4.289  12.493 -1.2447  0.7682  2.4302
 7684TIP3    H244544   2.025   4.347  12.606  1.5958 -1.3719  1.5891
 7685TIP3   OH244545   5.024   3.357   1.076  0.1310 -0.3047 -0.0027
 7685TIP3    H144546   5.085   3.362   1.150 -0.0711  0.7402  0.1110
 7685TIP3    H244547   5.058   3.287   1.021  0.0337 -1.4126  1.3061
 7686TIP3   OH244548   2.899   2.164  12.417  0.2768  0.1949 -0.7497
 7686TIP3    H144549   2.842   2.093  12.446  1.7813 -0.7056  0.1088
 7686TIP3    H244550   2.904   2.154  12.322 -0.5121 -0.0733 -0.7670
 7687TIP3   OH244551   2.644   1.189  10.986  0.3780  0.0131 -0.4172
 7687TIP3    H144552   2.634   1.105  10.942 -1.4260  1.2697 -2.5816
 7687TIP3    H244553   2.695   1.242  10.926  1.1850  0.6405  0.7710
 7688TIP3   OH244554   4.398   6.072   0.856  0.4709  0.1387  0.0959
 7688TIP3    H144555   4.370   6.162   0.839  0.1556  0.4015  1.8256
 7688TIP3    H244556   4.481   6.064   0.811 -0.3349  0.7189 -1.5731
 7689TIP3   OH244557   1.846   5.600  12.515  0.4813 -0.0997 -0.4940
 7689TIP3    H144558   1.886   5.553  12.588 -0.3807 -1.0220 -0.6041
 7689TIP3    H244559   1.781   5.657  12.557 -0.7449 -1.3879 -0.6023
 7690TIP3   OH244560   5.823   6.855  15.558  0.1215  0.0968  0.0264
 7690TIP3    H144561   5.872   6.802  15.496  0.5848 -0.8938  1.2015
 7690TIP3    H244562   5.883   6.925  15.583 -1.3505  2.8862 -3.5061
 7691TIP3   OH244563   0.633   1.051   0.605  0.9258 -0.1566  0.2189
 7691TIP3    H144564   0.648   1.097   0.523  0.6789  0.0753  0.3005
 7691TIP3    H244565   0.618   0.960   0.580 -0.4994  0.1552 -0.1122
 7692TIP3   OH244566   3.360   6.854  13.933 -0.0508  0.1864 -0.8583
 7692TIP3    H144567   3.443   6.820  13.899  1.8745  1.0760  2.4779
 7692TIP3    H244568   3.359   6.825  14.024 -2.6699  1.5890 -0.3604
 7693TIP3   OH244569   2.577   4.609  15.139  0.0953  0.0276  0.0926
 7693TIP3    H144570   2.667   4.626  15.165  0.2180 -1.1670  0.5382
 7693TIP3    H244571   2.565   4.515  15.155 -0.6347 -0.2387 -1.7634
 7694TIP3   OH244572   2.384   0.062  11.936 -0.0866  0.4578 -0.9002
 7694TIP3    H144573   2.474   0.031  11.947  0.7752  2.8328 -0.8072
 7694TIP3    H244574   2.334   0.013  12.002  1.3530  0.0296 -0.0781
 7695TIP3   OH244575   2.357   0.545   5.332  0.3895  0.3776 -0.4530
 7695TIP3    H144576   2.376   0.615   5.396 -1.2931  1.7988 -1.4354
 7695TIP3    H244577   2.266   0.522   5.348  0.7605 -1.2339 -0.5380
 7696TIP3   OH244578   4.966   2.501   6.085  0.0041 -0.5079  0.4069
 7696TIP3    H144579   4.906   2.526   6.155 -1.5096  1.1484 -1.3524
 7696TIP3    H244580   5.028   2.575   6.079 -1.8301  0.9958 -1.9662
 7697TIP3   OH244581   4.065   3.432  15.230 -0.3623  0.4806  0.3773
 7697TIP3    H144582   4.107   3.465  15.150 -0.0207  1.8372  1.0840
 7697TIP3    H244583   4.121   3.464  15.301  0.2160 -2.0046  1.1315
 7698TIP3   OH244584   3.040   6.027   0.529 -0.1417 -0.2485  0.3278
 7698TIP3    H144585   3.052   5.955   0.467 -2.2024 -0.4973  0.1231
 7698TIP3    H244586   3.087   5.999   0.608  1.8091 -0.3133 -0.7886
 7699TIP3   OH244587   2.877   4.861   3.090  0.2832  0.3450 -0.0552
 7699TIP3    H144588   2.907   4.798   3.156 -1.4490 -0.7932 -0.2765
 7699TIP3    H244589   2.789   4.884   3.118  0.0710  0.9759 -1.2013
 7700TIP3   OH244590   1.376   3.844   4.363 -0.0542 -0.0893  0.3118
 7700TIP3    H144591   1.295   3.836   4.414 -0.4840  0.7719 -0.2114
 7700TIP3    H244592   1.365   3.925   4.313  0.7787 -0.4054 -0.4044
 7701TIP3   OH244593   6.749   3.053  13.989 -0.3656  0.4066  0.7386
 7701TIP3    H144594   6.813   2.982  13.993 -1.4664 -0.6225  0.9123
 7701TIP3    H244595   6.704   3.050  14.074 -0.6304  1.1196  0.6367
 7702TIP3   OH244596   1.752   2.156  11.653  0.2169  0.3917  0.2618
 7702TIP3    H144597   1.773   2.216  11.582 -0.9696 -1.6338 -1.9073
 7702TIP3    H244598   1.656   2.161  11.661  0.2976  0.3008  1.4876
 7703TIP3   OH244599   2.265   2.258  11.878  0.2640 -0.1441 -0.1863
 7703TIP3    H144600   2.199   2.237  11.812  0.0092  0.0810 -0.0019
 7703TIP3    H244601   2.248   2.197  11.950 -0.9361  1.1150  0.6622
 7704TIP3   OH244602   6.715   0.809  16.348  0.3886  0.1555  0.2132
 7704TIP3    H144603   6.807   0.802  16.322 -0.0826  0.5222 -1.6771
 7704TIP3    H244604   6.667   0.766  16.278 -0.9923  1.6288  0.1971
 7705TIP3   OH244605   5.573   4.716   5.808 -0.2299 -0.2691 -0.3784
 7705TIP3    H144606   5.509   4.704   5.738 -2.9290  1.1603  1.6572
 7705TIP3    H244607   5.582   4.629   5.847 -1.0187 -0.4737 -0.6286
 7706TIP3   OH244608   6.732   2.444   1.843  0.6846  0.3232 -0.8085
 7706TIP3    H144609   6.796   2.475   1.907  1.1830 -0.3867 -0.9443
 7706TIP3    H244610   6.689   2.523   1.811 -1.9603  0.5417  2.7585
 7707TIP3   OH244611   2.096   6.477  16.450 -0.0234  0.1753  0.1022
 7707TIP3    H144612   2.025   6.496  16.389  0.6727 -0.3514 -0.9150
 7707TIP3    H244613   2.058   6.488  16.537 -1.3479 -0.1519 -0.4186
 7708TIP3   OH244614   1.942   4.276  16.720 -0.0671 -0.4047 -0.3373
 7708TIP3    H144615   1.992   4.199  16.692 -1.2122 -2.0604  1.8896
 7708TIP3    H244616   1.900   4.249  16.801 -2.6716  1.7086 -0.8640
 7709TIP3   OH244617   4.409   5.009  12.659 -0.0992  0.2079 -0.2155
 7709TIP3    H144618   4.427   4.917  12.681 -0.5946 -0.1445 -1.2227
 7709TIP3    H244619   4.495   5.051  12.658  0.3949 -0.7425 -1.8641
 7710TIP3   OH244620   4.842   3.143   1.970  0.0510 -0.5863  0.2115
 7710TIP3    H144621   4.897   3.106   2.039  1.8446  1.3525 -0.0407
 7710TIP3    H244622   4.860   3.237   1.974 -0.0596 -0.3565 -2.6428
 7711TIP3   OH244623   1.382   3.854   0.553 -0.2726  0.1778 -0.2644
 7711TIP3    H144624   1.426   3.778   0.589  2.1053  1.5280 -0.1287
 7711TIP3    H244625   1.341   3.897   0.628 -0.5206 -0.2724 -0.1432
 7712TIP3   OH244626   3.605   2.785   1.636 -1.1780  0.4117  0.6051
 7712TIP3    H144627   3.615   2.729   1.713  0.8224 -1.5672 -0.9380
 7712TIP3    H244628   3.652   2.865   1.659  2.2711 -1.3564  0.5118
 7713TIP3   OH244629   0.401   6.841   5.516 -0.5542  0.3286 -0.1971
 7713TIP3    H144630   0.413   6.818   5.608 -0.0622 -0.5756 -0.4805
 7713TIP3    H244631   0.476   6.803   5.471 -0.9338  0.5239 -1.0198
 7714TIP3   OH244632   2.188   2.883  13.268  0.0110 -0.1065 -0.5752
 7714TIP3    H144633   2.194   2.961  13.212  1.4531  1.0978  1.1407
 7714TIP3    H244634   2.115   2.902  13.327  0.6995  0.2153  0.1907
 7715TIP3   OH244635   3.838   2.385   1.784 -0.7636 -0.4837  0.1270
 7715TIP3    H144636   3.782   2.430   1.721 -0.4798  0.1932  0.3433
 7715TIP3    H244637   3.814   2.423   1.869  0.0322 -0.1676  0.2188
 7716TIP3   OH244638   1.575   2.240  13.531  0.0281 -0.0274 -0.3450
 7716TIP3    H144639   1.606   2.172  13.591  0.6583  0.6715  0.1353
 7716TIP3    H244640   1.644   2.247  13.465  0.5788  1.0235  0.3178
 7717TIP3   OH244641   6.152   0.082  15.477 -0.7850 -0.1268 -0.3574
 7717TIP3    H144642   6.133   0.143  15.405 -3.3937 -1.4282 -0.8839
 7717TIP3    H244643   6.185   0.004  15.433 -3.0008 -1.1669 -0.2821
 7718TIP3   OH244644   4.096   5.725   6.035 -0.3070  0.2955  0.1977
 7718TIP3    H144645   4.093   5.643   5.987  0.3420  0.1861  0.3400
 7718TIP3    H244646   4.005   5.756   6.035 -0.3526  0.1989 -0.9008
 7719TIP3   OH244647   3.811   0.173  13.273 -0.2811  0.2095  0.1476
 7719TIP3    H144648   3.824   0.125  13.191  1.1953 -1.0387  1.0721
 7719TIP3    H244649   3.893   0.221  13.287 -0.8144  1.0526  0.5149
 7720TIP3   OH244650   6.798   0.562  15.244  0.1245  0.2170 -0.3523
 7720TIP3    H144651   6.790   0.655  15.266  0.5872  0.2722 -0.4044
 7720TIP3    H244652   6.714   0.540  15.205  0.0263  0.6265 -0.3810
 7721TIP3   OH244653   0.804   1.230   5.277 -0.2561  0.5913 -0.7228
 7721TIP3    H144654   0.742   1.223   5.205  0.9898 -1.3596 -1.6815
 7721TIP3    H244655   0.886   1.257   5.236  0.3200  0.0236  0.0238
 7722TIP3   OH244656   4.088   0.545  12.796  0.0465  0.4693 -0.4191
 7722TIP3    H144657   4.164   0.603  12.789  0.6001 -0.4398 -2.8329
 7722TIP3    H244658   4.081   0.504  12.710 -2.1100 -0.8425  0.3042
 7723TIP3   OH244659   1.100   0.325  13.335  0.6275 -0.1849  0.0359
 7723TIP3    H144660   1.100   0.235  13.303 -1.1547 -0.7254  1.3837
 7723TIP3    H244661   1.007   0.350  13.336  0.8562  0.7470  2.0855
 7724TIP3   OH244662   2.911   0.747   4.746 -0.3805 -0.4546  0.2731
 7724TIP3    H144663   2.840   0.785   4.796 -1.2843  3.1539 -3.2310
 7724TIP3    H244664   2.868   0.692   4.681  0.1315  0.3129 -0.7386
 7725TIP3   OH244665   2.908   2.567   6.539  0.2429 -0.2882 -0.2230
 7725TIP3    H144666   2.906   2.661   6.557 -0.7064 -0.1987 -0.7188
 7725TIP3    H244667   2.822   2.549   6.501 -0.0933 -1.6020  1.0946
 7726TIP3   OH244668   1.512   1.912   3.364 -0.3652  0.2872 -0.4832
 7726TIP3    H144669   1.501   1.831   3.414  1.5919  1.9178  2.9709
 7726TIP3    H244670   1.425   1.951   3.363 -0.5012  0.1755  1.8137
 7727TIP3   OH244671   4.836   5.992  16.702  0.0778 -0.8582 -0.3180
 7727TIP3    H144672   4.778   6.064  16.678  0.2371 -0.5910  0.0984
 7727TIP3    H244673   4.923   6.019  16.671  0.4149 -0.2067  1.1363
 7728TIP3   OH244674   5.336   2.129   3.136 -0.1567  0.7619 -0.0242
 7728TIP3    H144675   5.413   2.186   3.142  0.4869  0.0718 -1.2470
 7728TIP3    H244676   5.271   2.170   3.192  1.4471  0.7920  1.9238
 7729TIP3   OH244677   2.760   0.113  16.044 -0.0229  0.2480  0.1101
 7729TIP3    H144678   2.773   0.206  16.029 -1.6192  0.6852  1.1841
 7729TIP3    H244679   2.805   0.094  16.126  0.0179  0.1503  0.0664
 7730TIP3   OH244680   4.585   4.545  12.695 -0.4442 -0.2862  0.7515
 7730TIP3    H144681   4.526   4.551  12.770  0.8885  2.3630  1.7293
 7730TIP3    H244682   4.634   4.464  12.709 -0.3491  0.0611  2.6673
 7731TIP3   OH244683   4.044   3.150  12.795  1.0638 -0.1767  0.2648
 7731TIP3    H144684   4.093   3.226  12.825  0.8160 -0.5589  1.7281
 7731TIP3    H244685   4.065   3.082  12.859  0.4206 -1.0091 -0.3932
 7732TIP3   OH244686   0.035   2.310   3.259 -0.1918 -0.5131 -0.5124
 7732TIP3    H144687  -0.002   2.346   3.178  0.1448  4.2164  1.1220
 7732TIP3    H244688   0.130   2.319   3.247 -0.1618  2.3619  1.0366
 7733TIP3   OH244689   4.661   5.283   4.259  0.0187  0.4726 -0.2976
 7733TIP3    H144690   4.713   5.221   4.206  0.5098  1.1806 -0.6549
 7733TIP3    H244691   4.588   5.307   4.203 -0.3391 -0.0110 -0.0448
 7734TIP3   OH244692   5.737   1.252   5.653  0.0544  0.5779 -0.0314
 7734TIP3    H144693   5.662   1.241   5.711  0.4001  1.0146  0.5143
 7734TIP3    H244694   5.770   1.340   5.672  1.1703  0.1072  0.3050
 7735TIP3   OH244695   5.538   4.162   4.875  0.4534  0.6982  0.0068
 7735TIP3    H144696   5.629   4.188   4.857  0.7056  0.2488  0.6051
 7735TIP3    H244697   5.497   4.158   4.789  1.3606 -0.3966 -0.4046
 7736TIP3   OH244698   4.826   0.323  16.757 -0.2580  0.3905  0.1097
 7736TIP3    H144699   4.751   0.299  16.811 -0.1271 -3.4056 -1.1477
 7736TIP3    H244700   4.818   0.418  16.747 -3.8136  0.4034  1.5452
 7737TIP3   OH244701   1.267   1.820  12.091  0.2547  0.1783 -0.4385
 7737TIP3    H144702   1.222   1.875  12.155  0.1287 -1.5513  1.0276
 7737TIP3    H244703   1.254   1.865  12.008 -2.3464  0.8590  0.2472
 7738TIP3   OH244704   1.384   5.754  14.907 -0.4024 -0.4202  0.0004
 7738TIP3    H144705   1.357   5.669  14.941 -1.4857  0.1928  0.7162
 7738TIP3    H244706   1.478   5.759  14.927 -0.4579 -1.1876  0.4886
 7739TIP3   OH244707   2.976   3.854   4.318 -0.4858 -0.3663  1.1989
 7739TIP3    H144708   3.032   3.811   4.383 -1.1310 -0.5989  1.6065
 7739TIP3    H244709   2.895   3.872   4.365 -0.5487  0.4924  0.7781
 7740TIP3   OH244710   1.569   1.228  11.099 -0.3456 -0.2570  0.2262
 7740TIP3    H144711   1.620   1.271  11.031  1.2149 -0.1836  1.3695
 7740TIP3    H244712   1.509   1.296  11.131 -2.0642 -0.6733 -1.9188
 7741TIP3   OH244713   4.695   3.864  16.142  0.4338  0.0479 -0.0474
 7741TIP3    H144714   4.700   3.771  16.165 -3.5985 -0.5842 -1.0829
 7741TIP3    H244715   4.702   3.909  16.226  0.3262 -1.3075  0.7274
 7742TIP3   OH244716   0.764   0.188  13.894  0.7695 -0.3958  0.4357
 7742TIP3    H144717   0.712   0.108  13.905  0.4156 -0.0500  1.3501
 7742TIP3    H244718   0.778   0.194  13.800  0.8162 -1.5488  0.3544
 7743TIP3   OH244719   1.225   6.138  15.483 -0.3490  0.2803 -0.1508
 7743TIP3    H144720   1.293   6.106  15.424 -1.6598 -0.4529 -1.3254
 7743TIP3    H244721   1.232   6.083  15.561 -2.2851 -2.8139 -1.9508
 7744TIP3   OH244722   5.435   5.059   3.829  0.2835  0.3091 -0.1247
 7744TIP3    H144723   5.505   5.077   3.891 -1.0625  2.5646  0.8454
 7744TIP3    H244724   5.445   4.966   3.808  1.8588 -0.0886  2.0766
 7745TIP3   OH244725   1.139   2.230  10.907 -0.3528  0.6141  0.3279
 7745TIP3    H144726   1.105   2.187  10.828 -1.3742  1.4226  0.3150
 7745TIP3    H244727   1.062   2.241  10.963 -0.1027  2.3296  0.3744
 7746TIP3   OH244728   2.891   5.945  16.529  0.6227 -0.0032  0.0842
 7746TIP3    H144729   2.818   5.891  16.500  1.3467 -0.6150 -0.6502
 7746TIP3    H244730   2.905   5.920  16.620 -1.7416  2.0156  1.1180
 7747TIP3   OH244731   2.669   6.606  15.684  0.0341  0.5208 -0.7264
 7747TIP3    H144732   2.642   6.521  15.721 -1.3610  0.9605 -0.6681
 7747TIP3    H244733   2.726   6.644  15.751 -0.4112  0.2056 -0.1541
 7748TIP3   OH244734   3.533   2.552   2.406  0.4114  0.5316  0.2821
 7748TIP3    H144735   3.521   2.647   2.404 -1.0968  0.3794  0.8925
 7748TIP3    H244736   3.494   2.521   2.325 -1.8145  0.2019  1.4109
 7749TIP3   OH244737   6.052   3.745  16.368  0.0656  0.1097  0.2212
 7749TIP3    H144738   6.126   3.687  16.385 -0.7920 -1.0095  0.3241
 7749TIP3    H244739   6.031   3.783  16.454 -0.9401 -1.4210  0.6929
 7750TIP3   OH244740   3.037   6.287   6.872 -0.6810  0.2741  0.0021
 7750TIP3    H144741   3.128   6.275   6.900 -1.0915 -0.4030  1.1164
 7750TIP3    H244742   3.036   6.374   6.831  0.7174 -0.2274 -1.1709
 7751TIP3   OH244743   4.349   3.339   4.839 -0.1126 -0.1856  0.3515
 7751TIP3    H144744   4.295   3.415   4.861 -0.5417 -0.4831  0.3347
 7751TIP3    H244745   4.299   3.293   4.771  0.8517  0.3337 -0.7423
 7752TIP3   OH244746   1.165   3.423  17.022  0.7621  0.3029 -0.5305
 7752TIP3    H144747   1.200   3.462  16.942 -0.3730  0.3978 -0.9971
 7752TIP3    H244748   1.202   3.476  17.093 -1.2195  2.7158 -1.1507
 7753TIP3   OH244749   6.091   5.001  13.328  0.1348  0.1174  0.7386
 7753TIP3    H144750   6.022   5.061  13.355  1.2305  1.6967  0.1406
 7753TIP3    H244751   6.134   4.976  13.409 -0.8082 -0.5020  1.0671
 7754TIP3   OH244752   1.895   6.574  16.268 -0.3445  0.0935  0.2602
 7754TIP3    H144753   1.832   6.610  16.205  1.0773  0.5101 -0.9626
 7754TIP3    H244754   1.953   6.519  16.215  0.1563 -0.5240  1.4112
 7755TIP3   OH244755   0.765   0.076  14.822 -0.7169  0.2540  0.0569
 7755TIP3    H144756   0.719   0.117  14.895 -1.7976 -2.4159  0.9970
 7755TIP3    H244757   0.827   0.016  14.863  0.8557  0.9029 -1.2484
 7756TIP3   OH244758   3.833   6.201  12.838  0.1635 -0.5788  0.3566
 7756TIP3    H144759   3.884   6.129  12.801 -0.8207 -1.2130  0.1879
 7756TIP3    H244760   3.823   6.263  12.766  1.1508 -0.1716  0.5465
 7757TIP3   OH244761   3.210   1.961  16.835 -0.3821  0.0451 -0.5966
 7757TIP3    H144762   3.290   1.909  16.839 -0.2139  0.2971 -0.6690
 7757TIP3    H244763   3.241   2.052  16.835 -0.6565  0.1352 -0.9446
 7758TIP3   OH244764   6.846   1.209  16.823 -0.3295 -0.6894 -0.2844
 7758TIP3    H144765   6.837   1.127  16.871  0.0708 -0.6682 -0.1655
 7758TIP3    H244766   6.828   1.277  16.888  2.4418 -0.5635  0.4925
 7759TIP3   OH244767   6.186   3.476  11.651  0.4699 -0.3750  0.4408
 7759TIP3    H144768   6.102   3.439  11.681  0.0701  0.1488 -0.0213
 7759TIP3    H244769   6.221   3.520  11.729  0.4285 -0.7890  0.6986
 7760TIP3   OH244770   0.991   1.344  14.570 -0.0006  0.1387 -0.3842
 7760TIP3    H144771   1.009   1.437  14.578 -1.0777  0.3092  0.2651
 7760TIP3    H244772   0.930   1.337  14.496 -0.1757 -0.0180 -0.2257
 7761TIP3   OH244773   3.413   3.375   1.534 -0.0302 -0.5750 -0.0775
 7761TIP3    H144774   3.488   3.345   1.484 -0.3270 -2.0946  0.3486
 7761TIP3    H244775   3.337   3.346   1.484 -0.3273 -0.6457  0.4110
 7762TIP3   OH244776   1.795   0.278  15.864  0.3185 -0.4190 -0.1764
 7762TIP3    H144777   1.818   0.218  15.793  1.2429 -0.6837  0.3200
 7762TIP3    H244778   1.711   0.315  15.838  0.5160 -0.6995 -1.2763
 7763TIP3   OH244779   2.332   5.825   1.349  0.0661 -0.2400  0.6226
 7763TIP3    H144780   2.275   5.856   1.420 -1.1039 -0.7522 -0.0608
 7763TIP3    H244781   2.283   5.753   1.309  1.2318 -0.7325  0.0328
 7764TIP3   OH244782   6.630   2.299   4.304 -0.0171  0.1878 -0.4715
 7764TIP3    H144783   6.662   2.346   4.382  1.8845  0.0095 -1.1122
 7764TIP3    H244784   6.645   2.360   4.232 -1.5059  0.2325 -0.7876
 7765TIP3   OH244785   5.764   2.171  15.005 -0.2089  0.0309  0.4154
 7765TIP3    H144786   5.670   2.182  14.990 -0.6199 -1.4048  1.5995
 7765TIP3    H244787   5.780   2.079  14.982  0.5920 -0.1298  1.5472
 7766TIP3   OH244788   0.980   5.875  12.697 -0.2778 -0.1033 -0.0470
 7766TIP3    H144789   0.900   5.895  12.650 -0.2773 -1.3547 -0.6152
 7766TIP3    H244790   0.994   5.782  12.683  0.1472 -0.3670  1.7852
 7767TIP3   OH244791   6.011   0.261   4.128  0.1467  0.6028 -0.1371
 7767TIP3    H144792   5.957   0.305   4.062 -1.4171  0.0050  0.6911
 7767TIP3    H244793   5.966   0.177   4.143 -0.3479  1.2952  2.6791
 7768TIP3   OH244794   0.800   3.748  15.162 -0.4958 -0.1327  0.3375
 7768TIP3    H144795   0.886   3.707  15.156 -0.1735  0.6344 -0.5811
 7768TIP3    H244796   0.738   3.674  15.163 -0.0367 -0.7528 -2.9951
 7769TIP3   OH244797   3.831   5.623   6.060 -0.5024 -0.8215 -0.2115
 7769TIP3    H144798   3.812   5.530   6.044  1.3055 -1.1086 -0.8775
 7769TIP3    H244799   3.753   5.669   6.030 -0.4946 -1.9725 -2.1520
 7770TIP3   OH244800   2.787   0.633   3.217  0.1441 -0.2107 -0.1879
 7770TIP3    H144801   2.869   0.618   3.171  1.2489 -2.1357  2.2233
 7770TIP3    H244802   2.722   0.583   3.167  0.6373  0.2269 -1.3234
 7771TIP3   OH244803   4.265   0.039   3.847 -0.2313 -0.0202 -1.0103
 7771TIP3    H144804   4.244  -0.053   3.837 -0.8391 -0.0877  0.5466
 7771TIP3    H244805   4.187   0.085   3.815 -0.6253 -0.1175 -0.2241
 7772TIP3   OH244806   2.842   4.629  15.220 -0.2129 -0.2033  0.2422
 7772TIP3    H144807   2.849   4.543  15.261 -1.9793  0.1106  1.3212
 7772TIP3    H244808   2.839   4.691  15.293 -1.9456  0.5024 -0.3672
 7773TIP3   OH244809   6.137   1.215   2.483 -0.0951 -0.3389  1.1094
 7773TIP3    H144810   6.084   1.150   2.530 -0.1562 -0.0961  1.3788
 7773TIP3    H244811   6.172   1.271   2.552 -0.2456  0.0623  0.8592
 7774TIP3   OH244812   0.966   4.354   4.723 -0.3320  0.5204  0.0119
 7774TIP3    H144813   1.015   4.437   4.724 -1.4827  1.2459 -0.9885
 7774TIP3    H244814   0.938   4.344   4.633 -0.5320 -0.7978  0.1988
 7775TIP3   OH244815   2.255   4.365   1.251  0.1093  0.2989  0.3224
 7775TIP3    H144816   2.238   4.278   1.214  0.3486 -0.2572  1.4569
 7775TIP3    H244817   2.170   4.409   1.249  0.1667  0.3945 -1.1026
 7776TIP3   OH244818   3.672   3.768  14.072  0.2308  0.2928 -0.1574
 7776TIP3    H144819   3.740   3.819  14.029  0.7546 -0.6589 -0.4956
 7776TIP3    H244820   3.612   3.833  14.109  0.7445  1.1339 -0.7771
 7777TIP3   OH244821   5.452   2.461   0.272 -0.2457 -0.3017 -0.4428
 7777TIP3    H144822   5.507   2.484   0.198  0.8656 -1.2417  0.0409
 7777TIP3    H244823   5.469   2.368   0.286 -1.3441 -0.4210  0.2539
 7778TIP3   OH244824   1.988   2.235  11.788  0.0487 -0.2442  0.5022
 7778TIP3    H144825   1.900   2.212  11.757  1.1562 -0.6664 -2.7067
 7778TIP3    H244826   2.012   2.164  11.848 -0.5387 -1.9885 -1.2367
 7779TIP3   OH244827   5.897   5.643  14.147  0.1072 -0.0395  0.0386
 7779TIP3    H144828   5.852   5.725  14.169  1.2510  0.6683 -0.1849
 7779TIP3    H244829   5.845   5.575  14.190  1.1637  1.0734  3.3604
 7780TIP3   OH244830   2.415   1.579   3.251  0.7639  0.1180 -0.4838
 7780TIP3    H144831   2.366   1.650   3.293  0.2393  0.3350 -1.4385
 7780TIP3    H244832   2.348   1.521   3.215  1.2024  0.1654 -1.3909
 7781TIP3   OH244833   5.778   3.447  12.339 -0.9403  0.4575 -0.4806
 7781TIP3    H144834   5.682   3.445  12.345 -0.9125 -1.5505  0.0961
 7781TIP3    H244835   5.799   3.374  12.281  0.2787  0.2403  0.2139
 7782TIP3   OH244836   1.719   4.517   0.349  0.2346 -0.3267  0.7022
 7782TIP3    H144837   1.761   4.470   0.421  0.6486 -0.8327  0.1462
 7782TIP3    H244838   1.788   4.570   0.311  0.8564 -2.3715 -1.2263
 7783TIP3   OH244839   5.997   0.300  16.521 -0.1643 -0.4551  0.0589
 7783TIP3    H144840   5.933   0.292  16.592  0.8559 -0.7769  0.9635
 7783TIP3    H244841   5.972   0.381  16.475 -0.4427  0.1179  1.1854
 7784TIP3   OH244842   1.518   3.984   1.537 -0.2412  0.5827  0.0682
 7784TIP3    H144843   1.426   3.963   1.521  0.1323  0.7392 -2.8858
 7784TIP3    H244844   1.550   4.017   1.453  2.8644 -0.7083  0.6135
 7785TIP3   OH244845   3.567   3.307   1.039  0.6432  0.3023 -0.0274
 7785TIP3    H144846   3.646   3.265   1.005  1.5940  1.0555  1.1481
 7785TIP3    H244847   3.509   3.234   1.062 -0.2027 -0.2421 -3.4039
 7786TIP3   OH244848   2.877   3.449  12.216  0.3545 -0.0477  0.2636
 7786TIP3    H144849   2.930   3.443  12.137 -0.7429  0.0059 -0.4921
 7786TIP3    H244850   2.940   3.467  12.286  1.3691 -0.4067 -0.5428
 7787TIP3   OH244851   2.439   1.260  11.942 -0.0661  0.0717  0.8635
 7787TIP3    H144852   2.388   1.322  11.890  0.0433 -0.6871 -0.1631
 7787TIP3    H244853   2.431   1.292  12.032 -0.2750  1.3899  0.3931
 7788TIP3   OH244854   6.346   6.141   5.566  0.5484  0.2884 -0.0591
 7788TIP3    H144855   6.251   6.130   5.560  0.5221  0.8900 -0.9949
 7788TIP3    H244856   6.360   6.196   5.643  0.1934 -0.2783  0.4229
 7789TIP3   OH244857   1.005   5.520  14.549 -0.0048  0.2569 -0.1626
 7789TIP3    H144858   1.009   5.446  14.489  0.1942 -0.4326  0.6851
 7789TIP3    H244859   0.911   5.538  14.559 -0.0195  1.6653 -2.1935
 7790TIP3   OH244860   4.219   0.224  16.380 -0.2474  0.7146 -0.4098
 7790TIP3    H144861   4.203   0.285  16.452 -2.1550  0.5179 -0.6157
 7790TIP3    H244862   4.253   0.145  16.421  1.1588  1.4929 -0.0263
 7791TIP3   OH244863   0.858   3.171  10.864  0.7687 -0.3893 -0.3791
 7791TIP3    H144864   0.792   3.131  10.806  0.6050 -2.4906  1.1443
 7791TIP3    H244865   0.858   3.263  10.839 -1.8309 -0.5516 -1.3243
 7792TIP3   OH244866   2.717   0.010  14.199 -0.4684 -1.0473 -0.0983
 7792TIP3    H144867   2.791   0.044  14.149 -1.5266 -2.4842 -2.8766
 7792TIP3    H244868   2.730  -0.085  14.200 -1.9163 -1.2746 -0.1063
 7793TIP3   OH244869   3.283   1.317  12.849 -0.1804 -0.6018  0.2442
 7793TIP3    H144870   3.211   1.303  12.911 -1.1945  3.5559  0.3053
 7793TIP3    H244871   3.246   1.296  12.764 -0.7511 -0.6169  0.4907
 7794TIP3   OH244872   0.726   6.509  12.801 -0.1149 -0.1751 -0.9468
 7794TIP3    H144873   0.775   6.509  12.718 -0.1230  2.2792 -1.0267
 7794TIP3    H244874   0.792   6.488  12.867  0.4734  0.3715 -1.3405
 7795TIP3   OH244875   5.522   4.646  13.854  0.0105  0.1523 -0.0775
 7795TIP3    H144876   5.542   4.648  13.761 -0.7553  0.4668 -0.2406
 7795TIP3    H244877   5.539   4.735  13.885 -1.5107  0.5499 -0.3133
 7796TIP3   OH244878   3.141   0.533   6.459 -0.3568  0.2622  0.0943
 7796TIP3    H144879   3.235   0.528   6.442 -0.4215  0.6170 -0.3919
 7796TIP3    H244880   3.101   0.493   6.382 -0.6563  1.6698 -0.5031
 7797TIP3   OH244881   3.043   4.148   2.015  0.8110 -0.1622  0.2188
 7797TIP3    H144882   3.062   4.212   2.084  1.2196  0.1553 -0.1837
 7797TIP3    H244883   2.948   4.139   2.015  0.7290  0.6476  0.0974
 7798TIP3   OH244884   6.860   3.931   0.926  0.3618 -0.4542 -0.0603
 7798TIP3    H144885   6.812   3.850   0.907 -1.1644  0.6807 -1.3512
 7798TIP3    H244886   6.809   3.974   0.994  0.8961 -0.3322  0.2689
 7799TIP3   OH244887   3.359   6.423  16.242 -0.1498  0.4948 -0.3909
 7799TIP3    H144888   3.286   6.378  16.283 -0.6170  1.2855 -0.3406
 7799TIP3    H244889   3.368   6.381  16.156  0.3661 -0.6731  0.2104
 7800TIP3   OH244890   0.200   2.425   4.587  0.1190 -0.9047  0.5970
 7800TIP3    H144891   0.235   2.409   4.675 -0.2730  0.7684  1.0975
 7800TIP3    H244892   0.164   2.341   4.560  1.4339 -1.7992  1.4775
 7801TIP3   OH244893   4.033   4.074   0.650  1.0032  0.1852  0.2381
 7801TIP3    H144894   4.023   4.120   0.733  0.3581 -0.5809  0.5998
 7801TIP3    H244895   3.944   4.046   0.628  1.2305  0.0318 -0.5152
 7802TIP3   OH244896   3.887   4.879  13.521  1.0555  0.1057 -0.5135
 7802TIP3    H144897   3.972   4.869  13.479  1.2262  0.6476 -0.2977
 7802TIP3    H244898   3.827   4.902  13.450  1.1462  0.0152 -0.6191
 7803TIP3   OH244899   3.485   6.328  11.827  0.1384 -0.2868 -0.5532
 7803TIP3    H144900   3.462   6.236  11.842  1.5061 -0.8160 -1.4586
 7803TIP3    H244901   3.457   6.373  11.907 -0.9484 -1.4125 -0.2750
 7804TIP3   OH244902   1.453   1.473  13.868 -0.2877 -0.3651  0.6007
 7804TIP3    H144903   1.539   1.434  13.858  0.1091  0.5903  0.1653
 7804TIP3    H244904   1.441   1.527  13.790 -1.8321 -1.4827  0.0022
 7805TIP3   OH244905   3.856   2.733  13.115 -0.0152  0.2033 -0.0039
 7805TIP3    H144906   3.789   2.726  13.182  0.4052 -0.1762  0.3865
 7805TIP3    H244907   3.923   2.670  13.141  1.1353  1.5146  0.3654
 7806TIP3   OH244908   2.734   3.264  10.200  0.2156 -1.0409 -0.3832
 7806TIP3    H144909   2.797   3.324  10.238 -1.5950 -0.3239  1.7006
 7806TIP3    H244910   2.686   3.317  10.136  1.2602 -1.4205 -1.5150
 7807TIP3   OH244911   1.745   2.256   2.155  0.5034  0.6736 -0.0953
 7807TIP3    H144912   1.793   2.321   2.207 -0.7750  2.5715 -1.1443
 7807TIP3    H244913   1.728   2.184   2.216  1.2802  1.6678  1.3654
 7808TIP3   OH244914   1.503   5.053  12.159 -0.4035  0.0311 -0.0936
 7808TIP3    H144915   1.438   5.010  12.103  1.1074 -0.1670 -1.7564
 7808TIP3    H244916   1.450   5.104  12.221 -2.1908 -1.7756  0.0100
 7809TIP3   OH244917   1.017   3.218   0.370  0.3730  0.3237 -0.2656
 7809TIP3    H144918   1.101   3.235   0.328  0.2453  3.0892  0.3884
 7809TIP3    H244919   1.039   3.171   0.450  1.2465  0.5290 -0.3745
 7810TIP3   OH244920   1.258   3.495  15.570 -0.1059 -0.2289  0.2104
 7810TIP3    H144921   1.206   3.415  15.568  0.8821 -0.9147  0.9836
 7810TIP3    H244922   1.336   3.475  15.519  0.2857  0.1274  0.6585
 7811TIP3   OH244923   5.639   0.317  11.321  0.6031 -0.3871 -0.9538
 7811TIP3    H144924   5.676   0.404  11.309 -1.9705  1.0394  0.5310
 7811TIP3    H244925   5.583   0.324  11.399  0.1329 -3.3217 -0.8799
 7812TIP3   OH244926   3.248   0.127   2.225 -0.0768  0.3804 -0.4841
 7812TIP3    H144927   3.273   0.198   2.166 -1.2291  1.2399  0.0315
 7812TIP3    H244928   3.287   0.151   2.309 -1.1006  0.8131 -0.1205
 7813TIP3   OH244929   6.759   1.250  14.761 -0.0131  0.4559  0.4792
 7813TIP3    H144930   6.693   1.317  14.741  1.1986  1.0589 -1.9509
 7813TIP3    H244931   6.808   1.286  14.835 -0.1643  1.7061 -0.0033
 7814TIP3   OH244932   0.059   1.903  13.893 -0.5183  0.2185 -0.5162
 7814TIP3    H144933   0.118   1.842  13.850 -0.7088 -0.7234  0.5182
 7814TIP3    H244934   0.004   1.848  13.949  0.4671  1.4555  1.8115
 7815TIP3   OH244935   1.183   6.569   1.151 -0.1008  0.0956 -0.5819
 7815TIP3    H144936   1.221   6.528   1.074  1.5433 -0.1279  0.3025
 7815TIP3    H244937   1.210   6.513   1.224  1.7974  2.3695  0.6042
 7816TIP3   OH244938   6.627   4.910   4.894 -0.4021 -0.1446 -0.2389
 7816TIP3    H144939   6.581   4.827   4.877 -1.2336  0.0049  1.1329
 7816TIP3    H244940   6.657   4.903   4.984 -0.0864  0.8736 -0.2551
 7817TIP3   OH244941   3.208   3.502  15.618  0.3380  0.3577 -0.5019
 7817TIP3    H144942   3.282   3.470  15.670 -0.5627  1.1051  1.3498
 7817TIP3    H244943   3.246   3.569  15.561  1.1167  0.7664  0.4619
 7818TIP3   OH244944   6.691   4.935   3.029  0.0898  0.0932  0.1099
 7818TIP3    H144945   6.704   4.896   3.116 -0.1515  1.9258  1.0015
 7818TIP3    H244946   6.768   4.990   3.016 -0.2062  0.3617 -0.5417
 7819TIP3   OH244947   3.157   1.250  15.691  0.1989  0.1629 -0.3798
 7819TIP3    H144948   3.212   1.199  15.751  0.8167 -0.0049 -1.0708
 7819TIP3    H244949   3.220   1.293  15.633 -0.4354 -1.6110 -2.4842
 7820TIP3   OH244950   0.532   5.157   2.651 -0.0618  0.0154  0.5113
 7820TIP3    H144951   0.613   5.127   2.693  0.0812  1.8053  1.6207
 7820TIP3    H244952   0.557   5.174   2.560  0.3345 -1.2032  0.3717
 7821TIP3   OH244953   5.162   5.950   0.313  0.3451 -0.3256  0.1606
 7821TIP3    H144954   5.187   6.031   0.268 -0.2740  0.0529  0.4792
 7821TIP3    H244955   5.122   5.980   0.394  0.8036 -0.9826  0.6378
 7822TIP3   OH244956   6.626   4.305   1.451  0.1173 -0.7246  0.0885
 7822TIP3    H144957   6.539   4.265   1.457 -0.4111  0.3812  0.1494
 7822TIP3    H244958   6.614   4.394   1.486  1.1946 -0.4417 -0.2205
 7823TIP3   OH244959   1.538   4.514  12.023  0.5258 -1.0098  0.4883
 7823TIP3    H144960   1.517   4.435  12.073  2.0271 -0.4645  2.0647
 7823TIP3    H244961   1.523   4.586  12.083  0.0508 -0.1297 -0.6459
 7824TIP3   OH244962   1.043   2.656  15.274 -0.1045 -0.0974 -0.0890
 7824TIP3    H144963   1.037   2.563  15.250 -0.0238  0.3860 -2.2020
 7824TIP3    H244964   1.087   2.657  15.358  0.6733 -1.9382 -0.4344
 7825TIP3   OH244965   1.649   2.558  11.432  0.0559  0.0493 -0.0978
 7825TIP3    H144966   1.717   2.491  11.443  0.4827  0.0430 -2.3167
 7825TIP3    H244967   1.646   2.573  11.337 -1.9599  1.1840  0.1014
 7826TIP3   OH244968   3.915   6.022   5.136  0.0165 -0.4017 -0.2768
 7826TIP3    H144969   3.990   6.079   5.154  0.4119 -0.8378 -0.5185
 7826TIP3    H244970   3.838   6.078   5.148  0.3955  0.1452 -0.3927
 7827TIP3   OH244971   1.440   1.447   3.396 -0.6642  0.2414  0.5044
 7827TIP3    H144972   1.366   1.503   3.376  1.2260  1.6314 -3.7146
 7827TIP3    H244973   1.411   1.359   3.369 -0.0858  1.2291 -4.3223
 7828TIP3   OH244974   5.621   2.713  11.111 -0.0362 -0.3572 -0.0482
 7828TIP3    H144975   5.678   2.739  11.039  0.4736 -0.3107  0.3652
 7828TIP3    H244976   5.598   2.796  11.154  0.6129 -0.4689  0.5416
 7829TIP3   OH244977   5.370   0.985  15.150 -0.1673  0.0597 -0.3134
 7829TIP3    H144978   5.332   1.071  15.169  0.8340  0.3799  0.3834
 7829TIP3    H244979   5.465   1.001  15.150  0.1155 -1.3111  1.3558
 7830TIP3   OH244980   4.815   5.015  15.666  0.0966  0.4068  0.1237
 7830TIP3    H144981   4.742   4.964  15.704 -0.1917 -0.8705 -1.9967
 7830TIP3    H244982   4.774   5.097  15.639 -0.3659  0.0749 -0.2097
 7831TIP3   OH244983   5.509   0.233  11.632  0.3113 -0.2336  0.3016
 7831TIP3    H144984   5.491   0.162  11.570 -0.3537  0.4024 -0.2582
 7831TIP3    H244985   5.427   0.243  11.681  0.1003  0.6796 -0.1959
 7832TIP3   OH244986   1.036   3.289   4.305 -0.4841  0.2621 -0.4017
 7832TIP3    H144987   0.954   3.239   4.296  0.0785 -1.4324  2.4891
 7832TIP3    H244988   1.020   3.348   4.378  0.3464  1.1455 -0.9123
 7833TIP3   OH244989   1.656   2.502  13.477 -0.0020  0.4150  0.9957
 7833TIP3    H144990   1.590   2.435  13.497 -0.2161  0.2069 -0.3171
 7833TIP3    H244991   1.614   2.557  13.411  1.1642  0.2119  0.0523
 7834TIP3   OH244992   5.005   0.949   4.279 -0.0733 -0.9177 -0.5406
 7834TIP3    H144993   5.024   0.883   4.213 -0.5816 -1.6759  0.0602
 7834TIP3    H244994   5.057   0.923   4.355  0.7136  0.0933 -0.7059
 7835TIP3   OH244995   4.215   1.779   6.471  0.3508  0.7289 -0.1973
 7835TIP3    H144996   4.266   1.790   6.552 -1.8534 -0.5008  1.4913
 7835TIP3    H244997   4.188   1.868   6.448 -0.7220  0.9768  1.7277
 7836TIP3   OH244998   6.542   3.732  17.050  0.9524  0.1261  0.1936
 7836TIP3    H144999   6.551   3.822  17.019  2.1072 -0.4327 -1.2658
 7836TIP3    H245000   6.525   3.740  17.143  0.4957  1.8621 -0.0018
 7837TIP3   OH245001   6.080   1.837   1.189 -0.1992 -0.1604 -0.4292
 7837TIP3    H145002   6.077   1.755   1.141  0.9337  0.7381 -2.0971
 7837TIP3    H245003   6.170   1.844   1.220 -0.5765 -0.0735  0.6973
 7838TIP3   OH245004   2.712   2.212   2.177  0.0974 -0.2073  0.3923
 7838TIP3    H145005   2.762   2.138   2.143  0.6415 -0.1251  1.0064
 7838TIP3    H245006   2.775   2.283   2.185 -0.4091  0.3042 -0.1177
 7839TIP3   OH245007   2.953   5.722   3.602 -0.9546  0.0155  0.7835
 7839TIP3    H145008   2.964   5.656   3.533 -0.0425  1.5281 -0.5812
 7839TIP3    H245009   3.031   5.777   3.595 -2.5057  2.3091  0.6564
 7840TIP3   OH245010   2.476   2.772   4.258  0.5296  0.1535  0.2214
 7840TIP3    H145011   2.441   2.842   4.202 -0.3168 -1.7179 -1.7137
 7840TIP3    H245012   2.527   2.819   4.325 -1.4236  2.7283  0.0966
 7841TIP3   OH245013   2.638   6.007  12.578  0.3147 -0.1364 -0.1581
 7841TIP3    H145014   2.600   5.920  12.572  3.1617 -1.4024 -1.5061
 7841TIP3    H245015   2.623   6.047  12.493  0.1699  0.1785  0.0113
 7842TIP3   OH245016   6.436   0.149   1.544 -0.2273  0.1771  0.2349
 7842TIP3    H145017   6.483   0.155   1.628  1.2335  3.1391 -0.6861
 7842TIP3    H245018   6.491   0.092   1.491  0.5357  0.8478  0.2878
 7843TIP3   OH245019   6.680   4.316   2.062 -0.0278  0.3472 -0.2372
 7843TIP3    H145020   6.642   4.291   2.147  1.0946  2.1618  0.8520
 7843TIP3    H245021   6.628   4.391   2.034  0.1739  0.3052 -0.7250
 7844TIP3   OH245022   1.820   5.621   0.858 -0.0957  0.1915  0.0779
 7844TIP3    H145023   1.910   5.646   0.880  0.7444 -2.6257  0.1593
 7844TIP3    H245024   1.802   5.668   0.777  0.6347  2.4277  1.1231
 7845TIP3   OH245025   2.821   5.054  13.430 -0.3871 -0.2810 -0.2630
 7845TIP3    H145026   2.836   5.103  13.348  0.4630  1.2690  0.7613
 7845TIP3    H245027   2.779   5.118  13.488 -1.1684 -1.4240  0.4505
 7846TIP3   OH245028   4.858   4.958   2.399 -0.2691 -0.2615  0.0990
 7846TIP3    H145029   4.855   4.876   2.349 -0.0808  0.1709 -0.6399
 7846TIP3    H245030   4.797   5.016   2.353  0.5177  0.4083 -0.1113
 7847TIP3   OH245031   5.341   4.116   1.320  0.7212  0.5873 -0.0922
 7847TIP3    H145032   5.283   4.109   1.245 -0.2286 -0.1903  0.6796
 7847TIP3    H245033   5.298   4.178   1.379  0.3921 -0.3658  0.7035
 7848TIP3   OH245034   5.451   1.127   2.635  0.3650 -0.3710  0.3299
 7848TIP3    H145035   5.453   1.037   2.668 -2.4194 -0.1539  1.2881
 7848TIP3    H245036   5.388   1.125   2.563 -0.3185  0.9649  0.8675
 7849TIP3   OH245037   2.598   4.651   5.613 -0.0900  0.3501 -0.3389
 7849TIP3    H145038   2.559   4.572   5.648 -0.5302  0.2205 -1.0901
 7849TIP3    H245039   2.567   4.721   5.670 -1.5690  0.2741 -0.9882
 7850TIP3   OH245040   0.937   6.622   1.051  0.7119 -0.3852 -0.1792
 7850TIP3    H145041   1.031   6.606   1.059  0.5542 -0.7367  1.2663
 7850TIP3    H245042   0.897   6.555   1.107 -0.3085  0.7709  0.5079
 7851TIP3   OH245043   4.535   4.307  15.419 -0.9934  0.0042  0.5039
 7851TIP3    H145044   4.487   4.300  15.336 -0.1546 -2.1364  0.1235
 7851TIP3    H245045   4.522   4.222  15.461  1.2847 -0.1646  1.0043
 7852TIP3   OH245046   5.779   0.225   2.115  0.5241  0.3058  0.1280
 7852TIP3    H145047   5.831   0.174   2.177  2.4955 -2.3015 -3.3383
 7852TIP3    H245048   5.730   0.160   2.065 -2.3270  2.3926 -0.0577
 7853TIP3   OH245049   2.208   2.350   6.463 -0.7100  0.0485 -0.3732
 7853TIP3    H145050   2.234   2.320   6.376  0.4541 -0.0698  0.0034
 7853TIP3    H245051   2.151   2.281   6.497  0.6333 -0.9766 -0.1567
 7854TIP3   OH245052   0.095   6.463   4.091  0.1387 -0.0856 -0.1743
 7854TIP3    H145053   0.153   6.540   4.089 -1.7205  1.4351  0.6908
 7854TIP3    H245054   0.018   6.493   4.138 -0.3067 -2.8128  1.0146
 7855TIP3   OH245055   1.253   1.712   4.180 -0.1793 -0.2497 -0.1638
 7855TIP3    H145056   1.168   1.753   4.194 -0.5092 -0.5471 -1.2118
 7855TIP3    H245057   1.274   1.730   4.089  0.0351 -1.7350 -0.4307
 7856TIP3   OH245058   0.194   1.395   1.933  0.5521  0.5519  0.0092
 7856TIP3    H145059   0.162   1.484   1.925  1.5733  1.1785  2.1997
 7856TIP3    H245060   0.135   1.353   1.995  0.6040 -0.0292 -0.3217
 7857TIP3   OH245061   4.098   0.270   3.146  0.3288 -0.0325 -0.1647
 7857TIP3    H145062   4.177   0.258   3.198  0.7003 -2.5542 -1.1855
 7857TIP3    H245063   4.123   0.332   3.078  1.0504  0.1415  0.2482
 7858TIP3   OH245064   1.300   2.328   0.234 -0.4852  0.5769  0.1244
 7858TIP3    H145065   1.269   2.398   0.291 -0.5845  2.5073 -2.1607
 7858TIP3    H245066   1.229   2.315   0.171  0.7793  0.6553 -1.3819
 7859TIP3   OH245067   0.170   6.045   5.252  0.2735  0.2446 -0.5791
 7859TIP3    H145068   0.083   6.021   5.218  0.7112 -0.0497 -1.5084
 7859TIP3    H245069   0.194   5.973   5.310 -0.1446  0.3700 -0.2480
 7860TIP3   OH245070   1.488   2.764   3.374 -0.2348 -0.1774  0.7185
 7860TIP3    H145071   1.528   2.851   3.373 -1.8371  0.5812  0.5818
 7860TIP3    H245072   1.558   2.706   3.406  2.1291  0.4769 -2.6984
 7861TIP3   OH245073   5.550   6.558  15.590 -0.2877  0.5920 -0.2080
 7861TIP3    H145074   5.515   6.634  15.636 -0.3829 -0.3835  1.4117
 7861TIP3    H245075   5.475   6.499  15.582  0.0635  0.1615 -0.3524
 7862TIP3   OH245076   1.456   3.129  13.767 -0.0491  0.1416  0.4298
 7862TIP3    H145077   1.377   3.109  13.718 -0.9291 -1.3106  2.3257
 7862TIP3    H245078   1.453   3.223  13.781 -0.2024  0.4583 -1.4909
 7863TIP3   OH245079   3.170   6.167  14.776  0.1432  0.3504  0.0357
 7863TIP3    H145080   3.262   6.151  14.758  0.5236  0.3573  1.8008
 7863TIP3    H245081   3.132   6.188  14.690  1.0049 -3.0360 -1.3150
 7864TIP3   OH245082   0.530   6.592  11.622  0.4404 -0.6671 -0.0705
 7864TIP3    H145083   0.557   6.619  11.710  0.9701 -2.1825  0.2763
 7864TIP3    H245084   0.455   6.647  11.601  0.8757  0.3544  0.9452
 7865TIP3   OH245085   0.346   1.411   2.157 -0.4654  0.5800 -0.5286
 7865TIP3    H145086   0.319   1.407   2.065 -0.4509  0.5222 -0.5305
 7865TIP3    H245087   0.380   1.500   2.168  0.1597  0.3739 -0.7533
 7866TIP3   OH245088   1.650   4.066  11.591 -0.4126  0.0700 -0.2358
 7866TIP3    H145089   1.720   4.125  11.618 -0.8715  0.8794 -0.7914
 7866TIP3    H245090   1.653   4.066  11.496 -0.5877 -0.6112 -0.2492
 7867TIP3   OH245091   2.839   3.731  11.919 -0.9664 -0.6547 -0.3676
 7867TIP3    H145092   2.779   3.669  11.960 -2.4471  1.1289  0.3117
 7867TIP3    H245093   2.784   3.783  11.860 -0.3604  1.6009  0.8994
 7868TIP3   OH245094   6.628   0.959   3.934 -0.0485 -0.0810 -0.1788
 7868TIP3    H145095   6.626   1.036   3.877 -0.7309 -0.8653 -1.2534
 7868TIP3    H245096   6.564   0.899   3.896  1.8079 -1.9768 -0.5118
 7869TIP3   OH245097   5.277   6.303  13.746 -0.2296  0.2363 -0.8609
 7869TIP3    H145098   5.246   6.247  13.817 -2.0118 -0.4167 -2.0621
 7869TIP3    H245099   5.197   6.329  13.699  0.8115  1.2809 -2.1578
 7870TIP3   OH245100   0.431   3.796   3.126 -0.3602  0.2707 -0.3910
 7870TIP3    H145101   0.463   3.881   3.095 -0.7560 -0.1340 -1.9895
 7870TIP3    H245102   0.510   3.746   3.146 -0.1164  0.8513  0.1014
 7871TIP3   OH245103   0.160   4.589   5.190 -0.1927 -0.2803 -0.3043
 7871TIP3    H145104   0.075   4.612   5.152  0.0160  1.8124  0.3422
 7871TIP3    H245105   0.213   4.668   5.178  1.7726 -1.6430 -0.9417
 7872TIP3   OH245106   3.005   3.510   1.425 -0.5796 -0.0783 -0.4114
 7872TIP3    H145107   2.934   3.452   1.398 -0.7616 -0.2950  0.5215
 7872TIP3    H245108   3.085   3.460   1.407 -0.5774  0.6138 -2.5703
 7873TIP3   OH245109   0.044   6.817  12.718  0.4473 -0.3292 -0.5489
 7873TIP3    H145110  -0.009   6.739  12.703 -0.0721 -0.2082  0.5357
 7873TIP3    H245111  -0.017   6.890  12.708  1.0609 -0.0066 -2.1467
 7874TIP3   OH245112   3.779   1.274   7.027  0.1548  0.2113 -0.1728
 7874TIP3    H145113   3.821   1.337   6.968  1.4417 -0.4383  0.0186
 7874TIP3    H245114   3.748   1.205   6.969  0.3956  0.1295 -0.2060
 7875TIP3   OH245115   5.471   2.024   1.913 -0.3077 -0.3040 -0.1115
 7875TIP3    H145116   5.436   2.055   1.996 -1.3615  0.5995 -0.8517
 7875TIP3    H245117   5.444   2.091   1.850 -0.5679 -1.5514 -1.3746
 7876TIP3   OH245118   6.119   1.466   6.569  0.6898  0.1363  0.0889
 7876TIP3    H145119   6.209   1.489   6.544  0.7611 -0.1563  0.0628
 7876TIP3    H245120   6.084   1.545   6.610  1.4336 -0.1642  1.3666
 7877TIP3   OH245121   4.938   4.221   3.701  0.6028 -0.6474  0.1523
 7877TIP3    H145122   4.861   4.255   3.747  0.1187 -1.6347  0.0796
 7877TIP3    H245123   4.944   4.130   3.728  0.4146 -1.2026 -1.6110
 7878TIP3   OH245124   4.817   0.668  14.316  0.1492  0.0116  0.1833
 7878TIP3    H145125   4.754   0.739  14.301  0.5697  0.5140  0.7686
 7878TIP3    H245126   4.834   0.633  14.228  0.8186  1.3940 -0.2763
 7879TIP3   OH245127   3.340   3.051  12.827  0.2209 -0.4963  0.6651
 7879TIP3    H145128   3.306   3.059  12.916  0.4446 -0.0238  0.7129
 7879TIP3    H245129   3.295   2.975  12.790 -2.1565  1.0440  0.1476
 7880TIP3   OH245130   5.913   4.844  12.777 -0.3749 -0.1848  0.2325
 7880TIP3    H145131   5.921   4.921  12.832  1.6227 -0.3771  0.2876
 7880TIP3    H245132   5.861   4.782  12.829 -0.5367  0.5009  0.8941
 7881TIP3   OH245133   6.593   1.955  13.835  0.0104  0.0116 -0.0476
 7881TIP3    H145134   6.629   2.036  13.800  0.1905 -0.7265 -1.7160
 7881TIP3    H245135   6.639   1.886  13.787 -1.9932 -1.0113 -0.6164
 7882TIP3   OH245136   4.226   5.221   3.082 -0.1552  0.1195 -0.0840
 7882TIP3    H145137   4.208   5.264   2.999 -0.3642 -1.2736 -0.7841
 7882TIP3    H245138   4.212   5.289   3.148  2.0580  1.8691 -1.2673
 7883TIP3   OH245139   1.078   3.414  16.479 -0.3341  0.2708 -0.0923
 7883TIP3    H145140   1.078   3.366  16.562  1.0355  0.7190  0.2021
 7883TIP3    H245141   0.990   3.451  16.471 -1.0991 -1.4017  0.1776
 7884TIP3   OH245142   6.531   2.505  11.411  0.0861  0.7867 -0.1140
 7884TIP3    H145143   6.603   2.473  11.466  0.4963 -0.2579 -1.2215
 7884TIP3    H245144   6.574   2.546  11.336 -0.3109 -2.6479 -2.4406
 7885TIP3   OH245145   5.811   4.950   1.358 -0.0901  0.2133  0.3052
 7885TIP3    H145146   5.748   4.982   1.294  0.5327  2.3333  0.6894
 7885TIP3    H245147   5.855   4.878   1.314  0.7244  1.9615 -1.9160
 7886TIP3   OH245148   3.228   4.452   1.870 -0.4995 -0.6644  0.1436
 7886TIP3    H145149   3.228   4.361   1.900 -2.7285 -0.4205  1.0750
 7886TIP3    H245150   3.136   4.472   1.854  0.1025  0.8538 -1.9398
 7887TIP3   OH245151   1.171   5.901  10.232  0.2618  0.4507  0.1128
 7887TIP3    H145152   1.160   5.818  10.185 -0.1978  0.2837  0.5063
 7887TIP3    H245153   1.082   5.930  10.251  0.4127 -0.2119  2.1299
 7888TIP3   OH245154   0.898   4.678  13.324 -0.2685 -0.2776  0.0383
 7888TIP3    H145155   0.832   4.648  13.261 -0.1556  0.9131 -0.6657
 7888TIP3    H245156   0.876   4.631  13.405 -1.3651 -0.6528 -0.4556
 7889TIP3   OH245157   4.237   3.332   3.029  0.0496  0.5681 -0.0521
 7889TIP3    H145158   4.325   3.367   3.037 -0.4356  1.3712  2.7310
 7889TIP3    H245159   4.228   3.270   3.101 -1.7528  0.6931 -0.1130
 7890TIP3   OH245160   1.100   4.176  15.617  0.7057  0.3657 -0.1927
 7890TIP3    H145161   1.048   4.173  15.697 -0.3640 -0.2010 -0.8743
 7890TIP3    H245162   1.108   4.084  15.591 -0.0476  0.6095 -1.3889
 7891TIP3   OH245163   2.459   5.076   3.218 -0.1624 -0.0811 -0.1714
 7891TIP3    H145164   2.528   5.142   3.221 -1.1073  0.9187  0.9012
 7891TIP3    H245165   2.386   5.120   3.173 -0.7296 -0.4647  0.3553
 7892TIP3   OH245166   2.822   6.213   2.749  0.1635  0.6915  0.4102
 7892TIP3    H145167   2.864   6.292   2.784  0.2212  1.1247 -0.5856
 7892TIP3    H245168   2.826   6.150   2.820  1.3307  1.1549  0.7788
 7893TIP3   OH245169   1.012   6.132  11.791  0.1145  0.3554  0.4128
 7893TIP3    H145170   1.087   6.126  11.731 -1.0934  0.6241 -1.1849
 7893TIP3    H245171   1.013   6.222  11.821  0.6247  0.2686  0.6754
 7894TIP3   OH245172   2.151   5.175   1.998  0.2316  0.0898 -0.1649
 7894TIP3    H145173   2.121   5.263   1.975 -0.3952 -0.0017  0.2690
 7894TIP3    H245174   2.222   5.157   1.936  0.3014  0.8577 -0.3223
 7895TIP3   OH245175   2.462   3.862   2.529 -0.1725  0.5868 -0.6015
 7895TIP3    H145176   2.511   3.780   2.535  1.7447  1.6302 -1.1039
 7895TIP3    H245177   2.379   3.844   2.573  1.7193 -0.4814  2.9255
 7896TIP3   OH245178   6.583   3.439   0.907  0.4349 -0.3359 -0.3710
 7896TIP3    H145179   6.518   3.414   0.972  0.0462  2.0521  0.2612
 7896TIP3    H245180   6.664   3.453   0.957  1.2894 -2.4624 -1.0368
 7897TIP3   OH245181   1.675   2.770  12.546  0.0335 -0.2692  0.7558
 7897TIP3    H145182   1.717   2.841  12.498 -1.1026 -0.6045 -0.7920
 7897TIP3    H245183   1.663   2.805  12.635 -1.2133  1.8090 -0.1547
 7898TIP3   OH245184   3.182   4.553   4.785  0.4505 -0.2904 -0.4459
 7898TIP3    H145185   3.170   4.570   4.691  0.9807 -4.3806 -1.4718
 7898TIP3    H245186   3.253   4.488   4.788  0.2861 -0.4563  2.7782
 7899TIP3   OH245187   5.592   5.786  16.281 -0.1520  0.2892  0.2997
 7899TIP3    H145188   5.587   5.851  16.211  1.0736 -0.5939 -0.6527
 7899TIP3    H245189   5.554   5.707  16.243 -0.2744  0.0365  0.9404
 7900TIP3   OH245190   3.213   1.551  11.463  0.0763  0.1244  0.4063
 7900TIP3    H145191   3.229   1.537  11.556 -1.3603  0.1145  0.6741
 7900TIP3    H245192   3.119   1.539  11.452  0.1514  0.5333 -0.9816
 7901TIP3   OH245193   4.795   0.165  15.658 -0.0533 -0.1003 -0.8164
 7901TIP3    H145194   4.752   0.214  15.588  0.3777 -0.6099 -1.4408
 7901TIP3    H245195   4.882   0.145  15.624  0.8086  1.1203  0.5209
 7902TIP3   OH245196   3.479   5.147  12.648  0.6546 -0.2275 -0.2524
 7902TIP3    H145197   3.399   5.194  12.622  0.8306  0.1620 -0.0977
 7902TIP3    H245198   3.476   5.066  12.598 -0.1770 -0.5211  0.2398
 7903TIP3   OH245199   6.561   6.382   5.515 -0.0659  0.5972 -0.7464
 7903TIP3    H145200   6.499   6.424   5.575 -0.0785  0.0230 -0.3527
 7903TIP3    H245201   6.557   6.289   5.537  0.9482  0.5511 -0.7108
 7904TIP3   OH245202   0.744   1.392   5.687  0.2502 -0.2931 -0.1755
 7904TIP3    H145203   0.665   1.353   5.725  0.3661 -1.6048 -1.2176
 7904TIP3    H245204   0.719   1.481   5.665 -0.6390 -0.3876  0.4198
 7905TIP3   OH245205   5.010   6.518  12.707  0.5266  0.0438  0.0556
 7905TIP3    H145206   5.104   6.510  12.693  0.4686  0.1483 -0.4288
 7905TIP3    H245207   4.982   6.432  12.738  1.1234  0.6079  2.3181
 7906TIP3   OH245208   2.480   2.449  11.572  0.2634 -0.3605 -0.0505
 7906TIP3    H145209   2.576   2.446  11.565  0.3743 -1.9448  1.5885
 7906TIP3    H245210   2.451   2.362  11.546 -0.6922 -0.0929  0.0869
 7907TIP3   OH245211   3.887   0.723   4.925  0.2920  1.1265  0.0240
 7907TIP3    H145212   3.926   0.746   4.840  1.1463 -1.3870 -0.3326
 7907TIP3    H245213   3.940   0.771   4.988  0.5974  1.8736 -0.7701
 7908TIP3   OH245214   5.202   2.115  11.503  0.8958 -0.2138  0.6810
 7908TIP3    H145215   5.230   2.023  11.499  2.6210  0.3165 -0.3741
 7908TIP3    H245216   5.140   2.118  11.576  1.6104 -2.0072  1.4241
 7909TIP3   OH245217   1.040   2.129   0.656  0.1960  0.3830 -0.1725
 7909TIP3    H145218   0.962   2.183   0.661  0.0694  0.1099  1.1260
 7909TIP3    H245219   1.050   2.093   0.744  1.6670  0.2541 -0.3708
 7910TIP3   OH245220   4.650   0.899  14.319  0.1122  0.5292  0.2792
 7910TIP3    H145221   4.587   0.904  14.391 -0.0135 -0.1899  0.2252
 7910TIP3    H245222   4.675   0.990  14.304  0.7111  0.6428  1.7355
 7911TIP3   OH245223   5.229   1.323  13.423  0.5339  0.0687 -0.1440
 7911TIP3    H145224   5.242   1.240  13.467  0.7062  1.2654  2.1854
 7911TIP3    H245225   5.302   1.329  13.361  1.3263 -0.8937  0.6710
 7912TIP3   OH245226   1.709   4.178  16.372  0.4140  0.5084  0.2703
 7912TIP3    H145227   1.734   4.107  16.313 -1.9669  0.2938 -0.6094
 7912TIP3    H245228   1.677   4.247  16.314  1.5334  1.8331  1.1758
 7913TIP3   OH245229   5.407   6.359   1.033 -0.3765 -0.0205 -1.0518
 7913TIP3    H145230   5.497   6.329   1.044 -0.1160  0.4520 -1.8393
 7913TIP3    H245231   5.377   6.378   1.122  0.6573  0.8328 -0.8675
 7914TIP3   OH245232   2.417   0.248  12.884 -0.3325  0.2219 -0.1606
 7914TIP3    H145233   2.469   0.191  12.828  1.3028  0.1010  1.3862
 7914TIP3    H245234   2.352   0.190  12.924 -0.3090 -0.0503 -0.5156
 7915TIP3   OH245235   4.406   3.656   0.822  0.2091 -0.7276 -0.2782
 7915TIP3    H145236   4.345   3.636   0.893  0.0667  1.8172  0.4216
 7915TIP3    H245237   4.492   3.634   0.858  0.2395  1.4149  1.1393
 7916TIP3   OH245238   4.767   3.959  17.074  0.0072 -0.2053  0.1706
 7916TIP3    H145239   4.695   4.022  17.085  0.2723  0.6510 -2.3851
 7916TIP3    H245240   4.726   3.882  17.034  0.0256 -0.9295  1.5011
 7917TIP3   OH245241   4.868   0.614   6.425 -0.0213  0.0415 -0.6137
 7917TIP3    H145242   4.911   0.651   6.503  0.3426 -0.2068 -0.6938
 7917TIP3    H245243   4.939   0.602   6.362 -0.0970 -0.9884 -0.5127
 7918TIP3   OH245244   0.394   5.731  11.173 -0.1325  0.4544 -0.3419
 7918TIP3    H145245   0.429   5.658  11.122 -0.0983  0.0483  0.2549
 7918TIP3    H245246   0.299   5.721  11.168 -0.1275  0.3249 -0.2112
 7919TIP3   OH245247   1.182   6.859  12.345 -0.3501 -0.9658 -0.2158
 7919TIP3    H145248   1.134   6.928  12.299  0.7721  0.6339  0.8657
 7919TIP3    H245249   1.270   6.862  12.308 -0.1002 -1.3188  0.3336
 7920TIP3   OH245250   2.609   4.269  12.667 -0.1695  0.3509 -0.0962
 7920TIP3    H145251   2.571   4.295  12.751 -0.7740  1.4533 -0.6843
 7920TIP3    H245252   2.557   4.194  12.640  0.1126 -0.0932  0.5700
 7921TIP3   OH245253   6.208   5.671  16.325 -0.8968  0.2038  0.0575
 7921TIP3    H145254   6.204   5.754  16.372 -1.3950  0.2405 -0.0375
 7921TIP3    H245255   6.124   5.628  16.345 -1.4851  0.5839 -1.4411
 7922TIP3   OH245256   0.286   1.870   1.312  0.0880  0.0575 -0.0594
 7922TIP3    H145257   0.239   1.799   1.356  0.5677 -0.1796  0.0855
 7922TIP3    H245258   0.232   1.947   1.326  0.0553 -0.0831  0.6609
 7923TIP3   OH245259   0.766   2.789   1.086  0.8191 -0.4754  0.2102
 7923TIP3    H145260   0.783   2.696   1.101  0.4837 -0.6598 -0.5249
 7923TIP3    H245261   0.763   2.798   0.991 -1.9619 -0.2657  0.2227
 7924TIP3   OH245262   2.072   0.056  15.777  0.1457  0.1528  0.3032
 7924TIP3    H145263   2.120   0.139  15.782  0.8710  0.1566 -3.7535
 7924TIP3    H245264   2.139  -0.011  15.780 -0.0617 -0.0893 -0.3846
 7925TIP3   OH245265   3.697   0.502   3.177 -0.5001  0.2581  0.1520
 7925TIP3    H145266   3.681   0.450   3.099 -1.8058  2.4008 -1.0957
 7925TIP3    H245267   3.792   0.516   3.178 -0.2982 -0.9521 -0.2153
 7926TIP3   OH245268   4.902   4.217  11.258 -0.2236 -0.2281 -0.3964
 7926TIP3    H145269   4.919   4.143  11.201 -0.4444 -0.7751  0.2311
 7926TIP3    H245270   4.879   4.289  11.199 -0.5561 -0.8113 -0.9883
 7927TIP3   OH245271   5.078   0.431  15.052  0.1723  0.1078 -0.5923
 7927TIP3    H145272   5.165   0.391  15.046 -0.1982 -1.2738  1.6900
 7927TIP3    H245273   5.094   0.518  15.088  0.5711 -1.0179  2.2500
 7928TIP3   OH245274   5.696   3.379  16.415 -0.3089  0.1770 -0.1927
 7928TIP3    H145275   5.716   3.286  16.413 -0.1805  0.2143 -1.1528
 7928TIP3    H245276   5.691   3.401  16.508  1.6112 -0.3593  0.0762
 7929TIP3   OH245277   2.245   0.499   0.449  0.7302  0.8438 -0.2180
 7929TIP3    H145278   2.261   0.454   0.367  0.9068 -0.3244  0.4406
 7929TIP3    H245279   2.170   0.453   0.488  0.1354  1.8873 -0.0864
 7930TIP3   OH245280   2.540   3.388   5.215  0.6293  0.0566  0.1266
 7930TIP3    H145281   2.636   3.394   5.220  0.8111 -0.2547 -1.9917
 7930TIP3    H245282   2.524   3.296   5.193 -0.1214  0.2658 -0.2025
 7931TIP3   OH245283   5.932   6.303  16.785  0.1661  0.5791  0.4482
 7931TIP3    H145284   5.836   6.295  16.786  0.2068  0.0430  1.2144
 7931TIP3    H245285   5.953   6.340  16.871  0.7026 -0.1667  0.6519
 7932TIP3   OH245286   5.062   0.804   2.214 -0.3252  0.5498 -0.2346
 7932TIP3    H145287   5.069   0.720   2.169 -0.3231  0.1513  0.5020
 7932TIP3    H245288   5.103   0.866   2.154  1.2979 -0.2602 -0.0252
 7933TIP3   OH245289   6.699   3.326   0.676  0.6302  0.8717  0.2053
 7933TIP3    H145290   6.667   3.381   0.748  0.6534  1.0378  0.0892
 7933TIP3    H245291   6.678   3.376   0.597 -2.2730 -0.6641 -0.1387
 7934TIP3   OH245292   1.962   4.889   4.348  0.1962 -0.9083 -0.2957
 7934TIP3    H145293   2.042   4.887   4.401  0.2233  1.3227 -0.1455
 7934TIP3    H245294   1.895   4.850   4.404  0.6753 -0.5315  0.5567
 7935TIP3   OH245295   5.493   2.772   5.719 -0.0422 -0.3411  0.2578
 7935TIP3    H145296   5.510   2.846   5.660  2.2917  1.3310  2.7914
 7935TIP3    H245297   5.548   2.701   5.684  0.2599  0.1800 -0.3613
 7936TIP3   OH245298   2.272   3.567  12.618  0.1699  0.2464 -0.2373
 7936TIP3    H145299   2.364   3.592  12.629  0.0684  0.1420  1.0958
 7936TIP3    H245300   2.238   3.626  12.552  1.6614 -0.9433 -2.1660
 7937TIP3   OH245301   4.843   1.713  13.584 -0.1691 -0.6391  0.1169
 7937TIP3    H145302   4.762   1.661  13.582  0.5554 -1.7932 -0.3982
 7937TIP3    H245303   4.877   1.708  13.495  0.2014  0.2862  0.2000
 7938TIP3   OH245304   1.883   3.722  17.043 -0.5876  0.3024  0.0543
 7938TIP3    H145305   1.946   3.774  17.093  0.4288 -2.0787  1.3708
 7938TIP3    H245306   1.800   3.768  17.056  0.3846  2.0843  0.3980
 7939TIP3   OH245307   3.218   2.328   6.755  0.2488 -0.0106  0.2593
 7939TIP3    H145308   3.149   2.355   6.815  1.2706  1.7994  0.6920
 7939TIP3    H245309   3.231   2.235   6.774 -2.0434 -0.4228  0.1298
 7940TIP3   OH245310   1.207   3.790   2.691 -0.8288  0.3275 -0.3800
 7940TIP3    H145311   1.170   3.877   2.706 -1.0355 -0.0416  1.5632
 7940TIP3    H245312   1.163   3.758   2.612 -2.7595  0.9377  0.3774
 7941TIP3   OH245313   4.425   3.124  12.741  0.2136 -0.1780  0.4098
 7941TIP3    H145314   4.356   3.186  12.719 -0.9900 -1.3786  0.6814
 7941TIP3    H245315   4.387   3.068  12.809  1.5004 -0.7933  0.6653
 7942TIP3   OH245316   2.905   2.999   1.569 -0.1800  0.7367  0.5296
 7942TIP3    H145317   2.987   2.958   1.543  0.3794  1.1422  1.5746
 7942TIP3    H245318   2.837   2.940   1.538  0.5827 -1.0677  2.0758
 7943TIP3   OH245319   1.147   1.263  10.979  0.4927 -0.1597  0.0948
 7943TIP3    H145320   1.128   1.346  10.934  0.3173 -1.7088 -2.9939
 7943TIP3    H245321   1.070   1.208  10.961 -0.6743 -0.3005  4.3881
 7944TIP3   OH245322   2.079   2.782   6.204  0.7603 -0.3420  0.0702
 7944TIP3    H145323   2.125   2.727   6.268  0.9361 -1.1583 -0.7349
 7944TIP3    H245324   2.149   2.824   6.153  0.6304  0.7278  0.7344
 7945TIP3   OH245325   5.097   1.399  12.030 -0.3132  0.2160  0.0192
 7945TIP3    H145326   5.072   1.311  12.002  0.4772  0.3213 -1.0925
 7945TIP3    H245327   5.019   1.452  12.014 -0.4619 -0.0882 -0.2822
 7946TIP3   OH245328   3.335   5.757  15.465 -0.3360  0.3316 -0.1375
 7946TIP3    H145329   3.330   5.720  15.553 -0.0084 -0.1418 -0.3131
 7946TIP3    H245330   3.426   5.743  15.437 -0.4210  0.5273 -0.5291
 7947TIP3   OH245331   1.052   2.778   0.443 -0.2995  0.4902 -0.6474
 7947TIP3    H145332   1.076   2.824   0.363 -0.7713  1.1854 -0.3968
 7947TIP3    H245333   0.958   2.792   0.452 -0.2805  0.2831 -0.0515
 7948TIP3   OH245334   1.877   5.122   2.093  0.6515  0.4147  0.6828
 7948TIP3    H145335   1.968   5.146   2.074  0.5697 -0.6409 -1.3169
 7948TIP3    H245336   1.850   5.068   2.019 -0.4732 -2.3817  2.9131
 7949TIP3   OH245337   1.664   6.172   2.704  0.1587  0.3771  1.1078
 7949TIP3    H145338   1.574   6.143   2.719 -0.0006  1.4513  2.3248
 7949TIP3    H245339   1.706   6.168   2.790  1.7046 -1.4139  0.3466
 7950TIP3   OH245340   1.939   2.316   1.174  0.2362 -0.7826  0.0304
 7950TIP3    H145341   1.927   2.330   1.080 -1.7648 -2.1113  0.0163
 7950TIP3    H245342   1.891   2.235   1.192  2.4146 -1.8035  1.8259
 7951TIP3   OH245343   0.263   5.460  14.503 -0.0543  0.5407  0.3011
 7951TIP3    H145344   0.326   5.503  14.446  0.2051  0.8984  0.8443
 7951TIP3    H245345   0.245   5.376  14.460  0.9903  0.3205  0.2581
 7952TIP3   OH245346   3.075   4.236   3.721 -0.0929  0.1727  0.3855
 7952TIP3    H145347   3.165   4.246   3.751  0.2815  0.2142 -0.7290
 7952TIP3    H245348   3.022   4.254   3.799  0.8896 -1.9902  1.6205
 7953TIP3   OH245349   1.721   4.928  15.984  0.4577  0.0543 -0.1129
 7953TIP3    H145350   1.695   4.888  16.067 -0.6216 -0.0657 -0.4924
 7953TIP3    H245351   1.787   4.993  16.008  0.4937 -0.2993  0.7806
 7954TIP3   OH245352   5.888   0.150   1.373  0.1807  0.7521  0.2136
 7954TIP3    H145353   5.852   0.066   1.344 -1.3234  1.4380 -0.0110
 7954TIP3    H245354   5.972   0.128   1.413 -0.4883 -0.9399  0.7498
 7955TIP3   OH245355   2.359   4.305   4.347 -0.1644 -0.0989 -0.3141
 7955TIP3    H145356   2.292   4.279   4.285 -0.9140  1.5988 -0.2792
 7955TIP3    H245357   2.434   4.332   4.293  0.7700 -2.5336 -0.3433
 7956TIP3   OH245358   3.224   1.791   5.564  0.3022  0.0321 -0.4559
 7956TIP3    H145359   3.164   1.732   5.518  1.1224 -0.1720 -1.2987
 7956TIP3    H245360   3.311   1.763   5.536  0.8419 -0.0828  1.2358
 7957TIP3   OH245361   1.728   4.529   1.171  0.0543  0.1198  0.1358
 7957TIP3    H145362   1.646   4.487   1.196  0.0835  0.0888  0.1793
 7957TIP3    H245363   1.707   4.577   1.090  0.0062  0.0722  0.1200
 7958TIP3   OH245364   6.793   6.697   3.877 -0.2704  0.1593 -0.4345
 7958TIP3    H145365   6.822   6.786   3.897  0.5294 -0.0676 -0.5627
 7958TIP3    H245366   6.841   6.642   3.939 -0.7404 -0.1915 -0.3771
 7959TIP3   OH245367   4.206   1.156  16.153  0.0924  0.2494  0.1452
 7959TIP3    H145368   4.174   1.095  16.086  1.1205  0.3179 -0.4354
 7959TIP3    H245369   4.127   1.197  16.188 -0.4907 -0.0855 -0.7382
 7960TIP3   OH245370   4.310   6.826   6.473  0.3558 -0.0384 -0.9827
 7960TIP3    H145371   4.330   6.737   6.444 -2.3414 -0.4486 -1.8629
 7960TIP3    H245372   4.395   6.865   6.493  2.0481 -1.3966 -4.6958
 7961TIP3   OH245373   0.209   4.616  14.788  0.2747 -0.4110  0.1299
 7961TIP3    H145374   0.297   4.629  14.823 -0.1482 -0.1408  1.1446
 7961TIP3    H245375   0.171   4.547  14.842 -0.8958  1.0117  1.2308
 7962TIP3   OH245376   1.267   4.768  11.895 -0.1388 -0.0487 -0.2150
 7962TIP3    H145377   1.213   4.847  11.893  0.7007  0.5172 -1.7669
 7962TIP3    H245378   1.352   4.797  11.927 -0.6149 -0.8992  2.0071
 7963TIP3   OH245379   5.513   2.009   4.429 -0.2547 -0.0841 -0.6224
 7963TIP3    H145380   5.605   2.017   4.405  0.3051 -1.0574  1.0338
 7963TIP3    H245381   5.476   2.097   4.415  0.5504 -0.0155 -2.6175
 7964TIP3   OH245382   6.213   5.457  15.893 -0.4809  0.2034  0.0948
 7964TIP3    H145383   6.232   5.373  15.934 -1.1690  0.6338  1.3449
 7964TIP3    H245384   6.296   5.483  15.852  0.6588  0.3381  2.3316
 7965TIP3   OH245385   1.008   0.590   2.521  0.3724  0.2694  0.3374
 7965TIP3    H145386   0.951   0.630   2.455 -0.4043  0.7899  1.2940
 7965TIP3    H245387   1.088   0.644   2.520 -0.0650  0.9362  0.5584
 7966TIP3   OH245388   3.029   3.980  13.087 -0.1972  0.0561  0.7099
 7966TIP3    H145389   3.025   4.066  13.046  0.3363 -0.7889 -1.2279
 7966TIP3    H245390   2.944   3.940  13.067  0.3581 -0.6587 -0.3283
 7967TIP3   OH245391   0.700   1.153  13.691 -1.0168 -0.2535  0.0949
 7967TIP3    H145392   0.656   1.184  13.770 -0.1140 -0.9351  0.8824
 7967TIP3    H245393   0.689   1.058  13.693  2.2331 -0.7119  1.4532
 7968TIP3   OH245394   6.402   4.120   1.334  0.4005 -0.8188 -0.0185
 7968TIP3    H145395   6.322   4.145   1.381  0.7147  0.0458  0.0564
 7968TIP3    H245396   6.393   4.163   1.249  1.6663  0.8800  0.6597
 7969TIP3   OH245397   3.375   4.155   0.241  0.6457  0.1740 -0.2133
 7969TIP3    H145398   3.373   4.148   0.146  0.5438  1.3466 -0.3146
 7969TIP3    H245399   3.304   4.099   0.271  0.9206 -0.5084 -0.7959
 7970TIP3   OH245400   1.480   0.250  12.011 -0.6088 -0.0420  0.1707
 7970TIP3    H145401   1.552   0.208  11.963 -0.0682 -0.6494  1.4617
 7970TIP3    H245402   1.523   0.294  12.084 -1.5830 -0.7607  1.2020
 7971TIP3   OH245403   5.531   3.467   4.646 -0.2044 -0.7745 -0.5582
 7971TIP3    H145404   5.560   3.397   4.588 -2.1495 -0.6317 -1.7974
 7971TIP3    H245405   5.482   3.527   4.590 -0.0987  0.6701  0.8062
 7972TIP3   OH245406   1.818   0.328  12.423  0.1786 -0.7142 -1.0338
 7972TIP3    H145407   1.836   0.414  12.462 -0.8175 -0.0160 -2.0585
 7972TIP3    H245408   1.871   0.327  12.343 -1.4753 -0.1069 -2.1871
 7973TIP3   OH245409   2.845   4.920  16.268  0.0622  0.1714  0.4575
 7973TIP3    H145410   2.881   4.959  16.348  1.3434 -0.6888  0.3114
 7973TIP3    H245411   2.871   4.980  16.198  0.5800 -0.0674  0.4452
 7974TIP3   OH245412   6.556   0.540  15.021 -0.6790  0.3361 -0.1214
 7974TIP3    H145413   6.462   0.521  15.027 -0.9870  1.6402 -0.4612
 7974TIP3    H245414   6.560   0.629  14.985  0.6945  0.2342 -0.2680
 7975TIP3   OH245415   1.397   2.703  11.865  0.0657 -0.0150 -0.0476
 7975TIP3    H145416   1.465   2.649  11.906  0.1215  1.0435  1.3001
 7975TIP3    H245417   1.415   2.697  11.771  0.6018 -1.6095  0.1311
 7976TIP3   OH245418   4.789   3.317  16.383  0.5503 -0.0744  0.3689
 7976TIP3    H145419   4.812   3.402  16.345 -1.2213  0.5812  0.6630
 7976TIP3    H245420   4.804   3.328  16.477  3.4086 -1.1841  0.1327
 7977TIP3   OH245421   5.427   4.304  11.399 -0.0123  0.5491 -0.4622
 7977TIP3    H145422   5.346   4.345  11.370  0.0320  0.3015 -0.9422
 7977TIP3    H245423   5.413   4.210  11.386 -0.7140  0.2192  2.0788
 7978TIP3   OH245424   1.890   3.529   0.775  0.2994  0.7454 -0.4190
 7978TIP3    H145425   1.833   3.602   0.798 -0.6689 -0.4144  1.0208
 7978TIP3    H245426   1.971   3.571   0.746 -0.6564  2.3953 -0.8397
 7979TIP3   OH245427   0.201   3.886  16.324 -0.4778  0.2284  0.3252
 7979TIP3    H145428   0.268   3.824  16.295  0.7047  1.5383  0.1575
 7979TIP3    H245429   0.139   3.833  16.374  0.4712 -1.0894  0.1450
 7980TIP3   OH245430   4.805   4.615  15.732 -0.4889  0.1828 -0.1105
 7980TIP3    H145431   4.780   4.543  15.673 -0.6989 -1.5256  1.9192
 7980TIP3    H245432   4.900   4.618  15.728 -0.4194 -0.8114  0.3889
 7981TIP3   OH245433   1.202   5.547   4.591 -0.0895  0.4530  0.0679
 7981TIP3    H145434   1.155   5.565   4.509  1.6122  0.8684 -0.8652
 7981TIP3    H245435   1.133   5.531   4.655 -1.6268  3.4570 -0.6244
 7982TIP3   OH245436   0.363   5.560  15.451 -0.2024 -0.1156  0.4413
 7982TIP3    H145437   0.298   5.564  15.522  0.2936 -2.3623  1.1015
 7982TIP3    H245438   0.324   5.501  15.386 -0.2213  1.1529 -0.7396
 7983TIP3   OH245439   3.962   6.737   0.890 -0.1680  0.2071  0.3237
 7983TIP3    H145440   3.931   6.773   0.974 -1.5376 -0.1751  0.0039
 7983TIP3    H245441   4.045   6.694   0.912 -0.6415 -0.1228  1.5379
 7984TIP3   OH245442   6.812   2.151   2.882  0.3417 -0.7678 -0.7237
 7984TIP3    H145443   6.790   2.132   2.973  2.0838  0.1258 -0.0584
 7984TIP3    H245444   6.744   2.108   2.831 -0.9020 -0.9461  1.0098
 7985TIP3   OH245445   2.976   2.297   1.642 -0.3112  0.7564 -0.0889
 7985TIP3    H145446   3.048   2.361   1.636 -0.0217  0.4499  0.0972
 7985TIP3    H245447   2.968   2.261   1.554  0.0493  0.4832 -0.0109
 7986TIP3   OH245448   6.000   1.605   5.277 -0.1600 -0.4085  0.2430
 7986TIP3    H145449   5.917   1.651   5.269  1.0402  1.6457 -1.4193
 7986TIP3    H245450   6.044   1.648   5.351  0.2557 -0.0279 -0.2153
 7987TIP3   OH245451   3.475   4.055   6.548  0.0092 -0.6257 -0.2998
 7987TIP3    H145452   3.484   3.979   6.490  0.0172 -1.3058  0.5682
 7987TIP3    H245453   3.563   4.069   6.583 -0.2803 -1.1908  0.7114
 7988TIP3   OH245454   5.872   5.393  14.866 -0.2492  0.4167  0.0088
 7988TIP3    H145455   5.913   5.388  14.780  0.0929  0.7262  0.1512
 7988TIP3    H245456   5.919   5.328  14.918 -0.2535  0.4423  0.0449
 7989TIP3   OH245457   1.731   1.753  12.329 -0.4349 -0.2766  0.1558
 7989TIP3    H145458   1.646   1.763  12.286 -0.1314  1.3211 -0.1543
 7989TIP3    H245459   1.731   1.664  12.363 -2.0075 -0.4849 -0.3190
 7990TIP3   OH245460   2.950   4.091   0.477 -0.1998  0.0853 -0.6632
 7990TIP3    H145461   2.936   4.003   0.513  0.2939  1.1196  2.3248
 7990TIP3    H245462   2.864   4.133   0.481 -0.4774 -0.2590 -2.2692
 7991TIP3   OH245463   5.352   4.914  11.631  0.3104 -0.2545  0.1371
 7991TIP3    H145464   5.325   5.006  11.627 -1.0917 -0.6839 -2.2408
 7991TIP3    H245465   5.442   4.917  11.664  0.2154  1.9331  0.3565
 7992TIP3   OH245466   0.818   2.304  11.400 -0.6500  0.1271  0.9679
 7992TIP3    H145467   0.816   2.386  11.449  1.8979  1.0318 -0.2393
 7992TIP3    H245468   0.827   2.236  11.467 -1.0328  0.9775  1.9110
 7993TIP3   OH245469   5.042   3.722   5.438 -0.4360 -0.8726 -0.3831
 7993TIP3    H145470   5.040   3.794   5.502 -1.2093  0.2147 -1.5866
 7993TIP3    H245471   5.133   3.694   5.438  0.5378  1.9024 -1.7751
 7994TIP3   OH245472   6.215   0.148  10.800  0.1082 -0.1538 -0.4179
 7994TIP3    H145473   6.212   0.172  10.893  1.3357 -1.8990  0.1243
 7994TIP3    H245474   6.294   0.190  10.767 -1.0399  1.6056 -1.0777
 7995TIP3   OH245475   4.831   6.071  15.923 -0.1647  0.0025  0.1418
 7995TIP3    H145476   4.804   6.046  16.012 -1.1807 -1.9071 -0.6306
 7995TIP3    H245477   4.913   6.119  15.935 -1.2370  1.4859  2.2309
 7996TIP3   OH245478   5.830   1.502  13.027 -0.2674  0.2097  0.1406
 7996TIP3    H145479   5.792   1.567  13.085  1.4783  0.0054  1.6055
 7996TIP3    H245480   5.920   1.493  13.057  0.0734 -1.5177 -1.2358
 7997TIP3   OH245481   3.914   2.703   0.176  0.6676  0.6767 -0.1445
 7997TIP3    H145482   3.958   2.619   0.192  0.1382  0.1126 -1.4854
 7997TIP3    H245483   3.853   2.712   0.250  1.9387  0.7417  0.9190
 7998TIP3   OH245484   3.507   0.982   2.144 -0.5934  0.7947 -0.4949
 7998TIP3    H145485   3.534   0.941   2.062 -0.9283  0.7993 -0.6069
 7998TIP3    H245486   3.450   0.918   2.186  1.5477 -0.3081  0.9413
 7999TIP3   OH245487   4.245   3.026   4.735 -0.4027 -0.2812 -0.1284
 7999TIP3    H145488   4.163   3.018   4.686 -0.1831  0.8519 -0.7206
 7999TIP3    H245489   4.310   3.049   4.669  0.4794 -1.4985  0.2837
 8000TIP3   OH245490   2.041   2.781   1.978  0.3138 -0.5045 -1.0118
 8000TIP3    H145491   1.968   2.723   1.999 -1.1525  0.9942 -1.7937
 8000TIP3    H245492   2.074   2.810   2.063 -0.2681 -0.8580 -0.6638
 8001TIP3   OH245493   6.587   3.978  11.896  0.1797 -0.1711  0.2721
 8001TIP3    H145494   6.655   3.990  11.962  0.9171  2.4228 -0.8521
 8001TIP3    H245495   6.560   3.886  11.906  1.7717 -0.4599  2.6737
 8002TIP3   OH245496   4.245   6.631   0.374 -0.4111 -0.3276  0.4290
 8002TIP3    H145497   4.266   6.705   0.429 -2.9182 -0.6662  2.0197
 8002TIP3    H245498   4.156   6.650   0.342 -0.6636 -2.0935 -0.0286
 8003TIP3   OH245499   0.132   2.108  13.248  0.0551 -0.4563  0.1108
 8003TIP3    H145500   0.141   2.193  13.291  0.5902 -1.3190  1.7959
 8003TIP3    H245501   0.124   2.129  13.155 -2.1913  1.5595  0.6666
 8004TIP3   OH245502   3.077   2.686   2.296 -0.1242  0.6315 -0.2784
 8004TIP3    H145503   3.056   2.651   2.382  1.6736 -0.2321 -0.1543
 8004TIP3    H245504   3.041   2.775   2.297  0.8602  1.0599  1.7862
 8005TIP3   OH245505   5.095   4.394  10.731  0.1949  0.0227 -0.0994
 8005TIP3    H145506   5.036   4.331  10.690 -0.5874 -1.4978  2.9873
 8005TIP3    H245507   5.058   4.479  10.710 -0.9583 -0.7262 -1.2695
 8006TIP3   OH245508   1.228   3.918   0.764 -1.0412  0.5759  0.7357
 8006TIP3    H145509   1.155   3.975   0.737 -1.3487  0.7712  1.9285
 8006TIP3    H245510   1.186   3.847   0.812 -0.6859 -0.8623 -0.9979
 8007TIP3   OH245511   6.397   0.799  15.608 -0.3712  0.2931  0.0053
 8007TIP3    H145512   6.397   0.842  15.693 -0.1854  1.5873 -0.6215
 8007TIP3    H245513   6.335   0.850  15.555  0.0484 -0.0505 -0.8343
 8008TIP3   OH245514   4.066   5.098  11.708 -0.3641 -0.1319 -0.1015
 8008TIP3    H145515   4.116   5.016  11.708  2.0754  1.2661  0.8264
 8008TIP3    H245516   4.032   5.104  11.618  2.5381 -0.4016 -1.3418
 8009TIP3   OH245517   3.798   6.055   4.082  0.6770 -0.2040  0.1439
 8009TIP3    H145518   3.748   6.023   4.008  1.1253 -2.5093  0.7671
 8009TIP3    H245519   3.861   6.116   4.044 -0.0459 -0.2159 -1.1369
 8010TIP3   OH245520   6.339   0.574   0.683  0.1188  0.3576 -0.0196
 8010TIP3    H145521   6.388   0.633   0.626 -0.5253  1.5345  0.6240
 8010TIP3    H245522   6.253   0.567   0.642  0.5152 -1.0682 -0.7059
 8011TIP3   OH245523   4.457   2.755  12.532  0.1987 -0.1637 -0.0901
 8011TIP3    H145524   4.409   2.673  12.522 -1.7641  1.0088 -0.7648
 8011TIP3    H245525   4.453   2.774  12.626  0.1503 -0.5103 -0.0189
 8012TIP3   OH245526   3.504   3.400  11.919  0.7066  0.0510  0.1697
 8012TIP3    H145527   3.526   3.475  11.974  0.4192  0.5182 -0.3394
 8012TIP3    H245528   3.455   3.438  11.846 -2.0648 -0.9307  1.3819
 8013TIP3   OH245529   2.872   2.788  10.914 -0.0555  0.0078  0.3676
 8013TIP3    H145530   2.811   2.731  10.867  1.6823 -3.1448  1.6109
 8013TIP3    H245531   2.956   2.775  10.871  0.0662  3.7431 -0.8797
 8014TIP3   OH245532   4.737   4.875  16.160 -0.2931 -0.3017 -0.3916
 8014TIP3    H145533   4.777   4.793  16.189  2.0658  1.1916  0.9131
 8014TIP3    H245534   4.692   4.909  16.237 -0.9500 -0.1757 -0.8208
 8015TIP3   OH245535   2.850   4.566   5.699  0.5544  0.4280  0.5313
 8015TIP3    H145536   2.769   4.592   5.655  2.7237  1.1453 -3.5678
 8015TIP3    H245537   2.888   4.648   5.730  0.3404  0.2275  1.3652
 8016TIP3   OH245538   0.899   4.994   2.615  0.6114  0.5541  0.2958
 8016TIP3    H145539   0.825   5.008   2.675 -0.8752 -0.6873 -1.1577
 8016TIP3    H245540   0.895   5.069   2.555 -0.3835 -0.1862 -0.6176
 8017TIP3   OH245541   3.714   5.223  14.278  0.5101 -0.5321 -0.1370
 8017TIP3    H145542   3.676   5.277  14.347 -0.7941 -1.2523 -0.2505
 8017TIP3    H245543   3.681   5.135  14.296  0.2792 -0.7669 -1.5612
 8018TIP3   OH245544   1.960   1.111   2.566  0.0601  0.5600 -0.6554
 8018TIP3    H145545   2.036   1.068   2.606  0.6156 -0.0874 -2.2880
 8018TIP3    H245546   1.892   1.044   2.566 -1.0209  1.5414  2.0003
 8019TIP3   OH245547   3.724   6.332  12.420 -0.3326  0.3398 -0.1108
 8019TIP3    H145548   3.640   6.287  12.409 -0.1454  0.0855 -0.5139
 8019TIP3    H245549   3.722   6.404  12.357  0.5510 -0.8441 -1.5634
 8020TIP3   OH245550   0.829   4.064  11.916  0.7130 -0.7478 -0.4694
 8020TIP3    H145551   0.883   4.012  11.974  1.5814  0.4801 -0.1284
 8020TIP3    H245552   0.891   4.121  11.870 -0.3308  1.5591  0.8055
 8021TIP3   OH245553   6.222   3.044   4.572  0.1143  0.2510  0.4509
 8021TIP3    H145554   6.234   3.047   4.478 -0.0053  0.4916  0.4433
 8021TIP3    H245555   6.161   3.115   4.591  2.3106  2.1012  1.0570
 8022TIP3   OH245556   5.116   3.938  13.483  0.1601  0.7893 -0.3886
 8022TIP3    H145557   5.088   3.849  13.501  2.6052  0.0145  0.0432
 8022TIP3    H245558   5.146   3.937  13.392  0.4230  1.0949 -0.3113
 8023TIP3   OH245559   6.081   0.751   2.664 -0.1843  0.1744 -0.2221
 8023TIP3    H145560   6.019   0.687   2.629 -1.2093  1.7935 -1.5227
 8023TIP3    H245561   6.130   0.782   2.588  3.7280 -2.3807  0.9402
 8024TIP3   OH245562   5.117   6.536   4.660  0.2182  0.0769  0.1704
 8024TIP3    H145563   5.148   6.562   4.747  0.0660  1.5448 -0.2020
 8024TIP3    H245564   5.151   6.603   4.601 -1.3876  0.2228 -0.6324
 8025TIP3   OH245565   0.411   4.894   2.775 -0.3065  0.1303 -0.1094
 8025TIP3    H145566   0.336   4.907   2.834 -0.5960  0.5542 -0.5587
 8025TIP3    H245567   0.422   4.979   2.732  0.6016  0.1523  0.1399
 8026TIP3   OH245568   3.228   1.950   4.795  0.3376 -0.2189 -0.1893
 8026TIP3    H145569   3.182   1.897   4.860 -1.0721  1.2821  0.0840
 8026TIP3    H245570   3.239   1.891   4.720  0.6151 -1.4977  0.8153
 8027TIP3   OH245571   2.688   0.462   3.817 -0.1676  0.3818 -0.2060
 8027TIP3    H145572   2.730   0.544   3.790 -0.0314 -0.4086 -2.5883
 8027TIP3    H245573   2.708   0.455   3.910  1.1672  2.2658 -0.2932
 8028TIP3   OH245574   2.391   6.410  16.258 -0.7694  0.5687 -0.5200
 8028TIP3    H145575   2.344   6.341  16.211  0.5465 -0.5515 -0.2714
 8028TIP3    H245576   2.393   6.380  16.349 -1.6227  1.7744 -0.0819
 8029TIP3   OH245577   4.305   4.668   2.174 -0.2706  0.0502 -0.1595
 8029TIP3    H145578   4.218   4.691   2.207 -0.0743  0.6723 -0.0694
 8029TIP3    H245579   4.290   4.590   2.120 -0.5789 -1.1300  1.5352
 8030TIP3   OH245580   3.296   5.221  17.110 -0.0102  0.2932  0.2207
 8030TIP3    H145581   3.369   5.197  17.054 -0.0727 -0.2881  0.3781
 8030TIP3    H245582   3.306   5.315  17.125  0.7854  0.1887  0.3647
 8031TIP3   OH245583   2.939   0.620   5.652  0.2048 -0.1465  0.3611
 8031TIP3    H145584   3.025   0.583   5.632  0.3569  0.7731 -0.7689
 8031TIP3    H245585   2.930   0.694   5.592 -2.9868 -2.4678 -2.4181
 8032TIP3   OH245586   3.916   6.252  13.337 -0.3544 -0.4669  0.0516
 8032TIP3    H145587   3.885   6.197  13.265  0.4292 -0.4632 -0.2995
 8032TIP3    H245588   3.953   6.190  13.400 -0.2713 -0.4081  0.0606
 8033TIP3   OH245589   5.629   4.010  11.442  0.1592  0.1130  0.0804
 8033TIP3    H145590   5.556   4.044  11.390 -0.7197 -0.7476  0.7218
 8033TIP3    H245591   5.675   3.952  11.382 -0.1269  0.0742 -0.1042
 8034TIP3   OH245592   2.980   1.004  11.426 -0.1571  0.6079 -0.1306
 8034TIP3    H145593   3.042   1.000  11.499 -0.9928  0.6792  0.5999
 8034TIP3    H245594   2.944   1.092  11.430 -1.6022  0.0084  0.5610
 8035TIP3   OH245595   3.789   2.907   2.330  0.2074 -0.2736  0.1591
 8035TIP3    H145596   3.758   2.973   2.269  0.0830  0.4638  0.9904
 8035TIP3    H245597   3.864   2.948   2.374 -1.2423  0.2652  2.3063
 8036TIP3   OH245598   5.513   5.784  15.645  0.1995 -0.2977  0.2736
 8036TIP3    H145599   5.525   5.728  15.722 -0.6722 -1.8122 -0.6292
 8036TIP3    H245600   5.533   5.727  15.571  0.2345  0.8942 -0.6555
 8037TIP3   OH245601   2.077   4.168  15.332  0.0515 -0.3036 -0.1161
 8037TIP3    H145602   2.131   4.199  15.258 -0.9734 -1.6353 -1.4827
 8037TIP3    H245603   2.013   4.238  15.346  0.2798 -0.0194 -0.4631
 8038TIP3   OH245604   0.699   4.167  12.564 -0.1490 -0.0805 -0.2664
 8038TIP3    H145605   0.644   4.239  12.593 -0.2743 -0.8289  1.5180
 8038TIP3    H245606   0.658   4.136  12.483 -0.7841  1.0661 -0.3993
 8039TIP3   OH245607   6.021   4.314   0.790  0.4822  0.5134 -0.7322
 8039TIP3    H145608   5.951   4.258   0.823  1.4922  1.2243  3.0986
 8039TIP3    H245609   6.096   4.256   0.781  1.0362  0.8076  1.4663
 8040TIP3   OH245610   1.458   6.322   0.779  0.2274 -0.4955 -0.0323
 8040TIP3    H145611   1.524   6.281   0.723  0.9284 -1.6178  1.5326
 8040TIP3    H245612   1.454   6.266   0.857 -2.1547 -0.1225  0.1992
 8041TIP3   OH245613   4.031   6.495  12.885 -0.2681  0.5181  0.8300
 8041TIP3    H145614   4.010   6.499  12.978 -2.1986  0.8478  0.4238
 8041TIP3    H245615   3.959   6.446  12.846 -0.7440  2.3772 -0.8008
 8042TIP3   OH245616   0.490   5.100   3.147 -0.1026  0.0188 -0.1488
 8042TIP3    H145617   0.520   5.155   3.075  0.6576  0.1758  0.2707
 8042TIP3    H245618   0.398   5.123   3.159  0.0869  0.8717 -0.2759
 8043TIP3   OH245619   0.478   4.114  14.101 -0.1729 -0.0998  0.0532
 8043TIP3    H145620   0.547   4.159  14.053  0.2030 -0.5148  0.1932
 8043TIP3    H245621   0.510   4.111  14.192 -0.3029 -0.4242  0.0921
 8044TIP3   OH245622   0.624   3.439   1.773  0.2660  0.4948 -0.5198
 8044TIP3    H145623   0.564   3.384   1.823  0.8620  1.6782  1.6194
 8044TIP3    H245624   0.568   3.507   1.734 -0.0166  0.4185 -0.2478
 8045TIP3   OH245625   1.395   1.314   0.487 -0.2829  0.4228 -0.3866
 8045TIP3    H145626   1.472   1.370   0.494 -0.1190  0.4031 -1.7328
 8045TIP3    H245627   1.322   1.374   0.475 -0.4147  0.4152  0.3064
 8046TIP3   OH245628   2.861   2.589   3.058 -0.2713 -0.3553  0.2220
 8046TIP3    H145629   2.952   2.573   3.034 -0.4179  0.4371 -0.9410
 8046TIP3    H245630   2.840   2.517   3.118  1.1437 -0.4735  0.6161
 8047TIP3   OH245631   4.645   6.399  16.196 -0.9910  0.2130  0.0163
 8047TIP3    H145632   4.645   6.488  16.160 -0.1337 -0.0100 -0.5620
 8047TIP3    H245633   4.678   6.344  16.125 -0.8020 -0.4625  0.6112
 8048TIP3   OH245634   1.044   1.400   1.717 -0.3175 -0.1665 -0.2141
 8048TIP3    H145635   1.007   1.485   1.740  1.2821  0.6456 -0.5463
 8048TIP3    H245636   0.981   1.337   1.753 -1.7158  1.1314 -0.2660
 8049TIP3   OH245637   1.579   4.374   0.735 -0.6206 -0.6690 -0.4816
 8049TIP3    H145638   1.661   4.331   0.711  0.4476  1.4060 -0.7704
 8049TIP3    H245639   1.535   4.392   0.651 -1.1399 -1.2803 -0.3542
 8050TIP3   OH245640   1.211   0.047  15.680 -0.2467 -0.3148 -0.5843
 8050TIP3    H145641   1.303   0.074  15.681  0.0717 -1.3528 -0.4817
 8050TIP3    H245642   1.214  -0.046  15.656 -1.3850  0.0553 -2.2934
 8051TIP3   OH245643   3.515   4.899   3.708 -0.2471 -0.4834  0.3449
 8051TIP3    H145644   3.445   4.936   3.761 -0.4821 -1.2101  0.5593
 8051TIP3    H245645   3.557   4.974   3.666 -0.9229 -0.0170  0.5010
 8052TIP3   OH245646   1.334   2.752  15.780 -0.3472  0.3251  0.4387
 8052TIP3    H145647   1.268   2.781  15.842 -1.8240  0.4827 -1.1483
 8052TIP3    H245648   1.299   2.672  15.742  0.3088  0.4922 -0.5500
 8053TIP3   OH245649   4.999   4.622   2.873  0.4612  0.1318  0.3509
 8053TIP3    H145650   4.932   4.556   2.890  0.0704 -0.0044 -1.5443
 8053TIP3    H245651   5.062   4.611   2.944 -1.0031 -0.3972  1.6336
 8054TIP3   OH245652   4.915   0.729   3.252  0.1730 -0.0664  0.9906
 8054TIP3    H145653   4.956   0.653   3.292  0.9760 -0.6372 -0.8168
 8054TIP3    H245654   4.945   0.803   3.305  0.7882 -0.8203  1.7222
 8055TIP3   OH245655   1.794   6.437   0.233 -0.0407 -0.3616 -0.2777
 8055TIP3    H145656   1.818   6.510   0.176  1.6238 -1.0395 -0.5047
 8055TIP3    H245657   1.877   6.397   0.257 -0.8577 -1.5598  0.6961
 8056TIP3   OH245658   4.745   6.762  14.753  0.3302 -0.2857 -0.3570
 8056TIP3    H145659   4.717   6.713  14.831 -3.1463  3.6619  1.2424
 8056TIP3    H245660   4.830   6.799  14.776  0.3859 -0.9968  0.6210
 8057TIP3   OH245661   4.843   1.572  13.884 -0.1360  0.2920 -0.2656
 8057TIP3    H145662   4.771   1.508  13.880  0.1921 -0.2420  1.4860
 8057TIP3    H245663   4.816   1.634  13.952  2.0534 -1.3139  2.2774
 8058TIP3   OH245664   0.139   2.862  15.891  0.7853 -0.5209  0.0502
 8058TIP3    H145665   0.080   2.805  15.843  0.9645 -0.3134 -0.4180
 8058TIP3    H245666   0.217   2.870  15.836  1.0215 -0.3349  0.4016
 8059TIP3   OH245667   6.376   1.659   3.206 -0.0063 -0.3782 -0.5258
 8059TIP3    H145668   6.290   1.656   3.165  0.1246 -1.2620 -0.7523
 8059TIP3    H245669   6.360   1.634   3.297 -0.3239  1.7591  0.0407
 8060TIP3   OH245670   5.265   2.302   5.744  0.2732  0.5239  0.0464
 8060TIP3    H145671   5.174   2.328   5.758  0.5071  1.5953 -0.3356
 8060TIP3    H245672   5.301   2.292   5.832 -0.2085  0.0699  0.1995
 8061TIP3   OH245673   2.364   2.813  13.707 -0.4301  0.5419  0.2877
 8061TIP3    H145674   2.409   2.818  13.791  0.0930  2.4231 -0.0604
 8061TIP3    H245675   2.390   2.729  13.671  0.3818  0.2798  1.4238
 8062TIP3   OH245676   6.355   2.327   4.820 -0.1047  0.1664  0.2199
 8062TIP3    H145677   6.435   2.286   4.851 -0.4071 -0.8854 -0.3115
 8062TIP3    H245678   6.377   2.363   4.734 -0.6143 -1.7160 -0.7581
 8063TIP3   OH245679   0.202   6.818   1.182  0.2428  0.0928  0.1544
 8063TIP3    H145680   0.139   6.822   1.109 -0.9905  1.3964  1.2150
 8063TIP3    H245681   0.286   6.799   1.140 -0.6462 -0.5400 -1.4499
 8064TIP3   OH245682   5.993   5.559   3.003  0.5787  0.6174 -0.4451
 8064TIP3    H145683   5.902   5.590   3.006  0.9297  1.6554  0.0265
 8064TIP3    H245684   6.010   5.545   2.910 -0.7758 -1.8526 -0.3842
 8065TIP3   OH245685   1.820   6.854  15.726 -0.0950  0.1427 -0.0499
 8065TIP3    H145686   1.837   6.765  15.695 -0.6650  0.1675 -0.4406
 8065TIP3    H245687   1.892   6.872  15.786 -0.9261 -1.2390  1.4410
 8066TIP3   OH245688   1.677   4.960  10.491  0.5579 -0.7295  0.2822
 8066TIP3    H145689   1.720   5.017  10.555  1.4302 -1.8421  0.7212
 8066TIP3    H245690   1.745   4.900  10.463 -0.1682 -1.1122 -0.7052
 8067TIP3   OH245691   0.974   4.485  14.130 -0.4790 -0.7965  0.3169
 8067TIP3    H145692   1.065   4.488  14.160 -0.9364 -2.2231  2.0585
 8067TIP3    H245693   0.979   4.505  14.037  1.1459  3.1053  1.0387
 8068TIP3   OH245694   1.547   1.368   5.543  0.0634  0.2494  0.2338
 8068TIP3    H145695   1.473   1.414   5.504 -0.9410 -1.4605  0.0484
 8068TIP3    H245696   1.508   1.307   5.605  1.1218 -1.9781 -1.1735
 8069TIP3   OH245697   6.423   3.591  15.904 -0.3200 -0.6100  0.0960
 8069TIP3    H145698   6.452   3.626  15.988  1.7647  1.3584 -1.3308
 8069TIP3    H245699   6.394   3.502  15.924  1.3690 -0.6833  2.6805
 8070TIP3   OH245700   3.436   4.763   3.167 -0.1580  0.2083 -0.0432
 8070TIP3    H145701   3.531   4.759   3.166 -0.1970 -0.7219 -1.5617
 8070TIP3    H245702   3.410   4.694   3.228  0.1410  2.2691  2.6294
 8071TIP3   OH245703   6.796   1.833   4.476 -0.1712  0.2700 -0.0816
 8071TIP3    H145704   6.721   1.890   4.459 -1.9169 -1.6657  0.6612
 8071TIP3    H245705   6.814   1.791   4.392 -1.4144 -0.8888  0.1951
 8072TIP3   OH245706   0.855   0.188   0.649 -0.7337 -0.0862 -0.0167
 8072TIP3    H145707   0.877   0.171   0.558 -0.5500  0.5490 -0.0961
 8072TIP3    H245708   0.799   0.266   0.646 -0.0024  0.4713  0.4790
 8073TIP3   OH245709   2.173   2.651  15.588  0.3974 -0.4438 -0.1501
 8073TIP3    H145710   2.095   2.651  15.643  0.6971 -1.5653  0.2913
 8073TIP3    H245711   2.235   2.707  15.636  0.1177 -0.1191 -0.1578
 8074TIP3   OH245712   6.310   5.800   2.486  0.4386 -0.4917 -0.0157
 8074TIP3    H145713   6.302   5.801   2.581 -3.2521  0.1814 -0.1731
 8074TIP3    H245714   6.272   5.716   2.460  1.4553 -0.6906 -0.9125
 8075TIP3   OH245715   6.585   2.747   5.153 -0.4635 -0.2553 -0.5532
 8075TIP3    H145716   6.503   2.792   5.130  0.3780  1.1516 -0.9195
 8075TIP3    H245717   6.648   2.818   5.167  0.9378 -1.3203 -1.2286
 8076TIP3   OH245718   1.867   0.360   5.471  0.0642  0.4671  0.0883
 8076TIP3    H145719   1.776   0.381   5.493 -0.2932 -0.1935 -0.6868
 8076TIP3    H245720   1.913   0.361   5.555 -0.6978  0.6301  0.5137
 8077TIP3   OH245721   0.857   2.773   6.233  0.2759  0.2521 -0.2252
 8077TIP3    H145722   0.889   2.759   6.323  1.8190 -1.2540 -0.9591
 8077TIP3    H245723   0.934   2.800   6.184 -0.5181  0.8854 -1.1630
 8078TIP3   OH245724   1.456   0.298  15.120  0.0118 -0.5623  0.3266
 8078TIP3    H145725   1.473   0.306  15.026  2.0757 -1.1714  0.5983
 8078TIP3    H245726   1.461   0.204  15.137 -0.2332 -0.4476  1.0775
 8079TIP3   OH245727   0.201   1.613  14.936 -0.3905 -0.2167  0.1100
 8079TIP3    H145728   0.252   1.692  14.914  0.5554 -0.8585 -0.0890
 8079TIP3    H245729   0.149   1.638  15.012 -0.0999  0.6018  0.0494
 8080TIP3   OH245730   2.420   0.174  16.027 -0.0699 -0.0609 -0.1350
 8080TIP3    H145731   2.402   0.244  16.090 -0.4591 -0.6821  0.4588
 8080TIP3    H245732   2.487   0.121  16.069  0.8338  0.4191 -0.9473
 8081TIP3   OH245733   2.391   6.223  13.579 -0.5165  0.0601  0.6718
 8081TIP3    H145734   2.351   6.188  13.659  0.3486  0.3587  1.2565
 8081TIP3    H245735   2.448   6.294  13.610  0.2951 -0.2114 -0.1361
 8082TIP3   OH245736   1.855   4.349   0.548  0.5490  0.1438 -0.0867
 8082TIP3    H145737   1.900   4.401   0.614  0.9048  1.1444 -1.0738
 8082TIP3    H245738   1.869   4.258   0.574 -0.0634  0.5175  1.6819
 8083TIP3   OH245739   5.985   5.083   2.887 -0.6170  0.0498 -0.2012
 8083TIP3    H145740   5.945   5.019   2.945 -1.5923  0.4918 -0.3714
 8083TIP3    H245741   6.032   5.142   2.946  0.6121 -1.0050 -0.0667
 8084TIP3   OH245742   5.806   0.388  14.890  0.3945 -0.0013  0.0905
 8084TIP3    H145743   5.743   0.340  14.944 -1.3789  0.5397 -1.4004
 8084TIP3    H245744   5.793   0.480  14.914  0.6003  0.1171 -0.2468
 8085TIP3   OH245745   5.836   5.140  11.409  0.7983  0.1681  0.3305
 8085TIP3    H145746   5.760   5.087  11.434  1.1825 -1.5586 -1.7674
 8085TIP3    H245747   5.801   5.203  11.346  0.9454 -0.0402  0.0385
 8086TIP3   OH245748   0.091   3.272  11.609  0.6045 -0.2826 -0.1750
 8086TIP3    H145749   0.095   3.367  11.598  2.2423 -0.2774  0.1653
 8086TIP3    H245750   0.183   3.245  11.611  0.2069 -2.2040 -2.8646
 8087TIP3   OH245751   4.872   1.004   1.267  0.1253 -0.1103 -0.0965
 8087TIP3    H145752   4.798   0.951   1.236  0.5501 -0.8979  0.2278
 8087TIP3    H245753   4.845   1.036   1.353  0.9070 -2.0052  0.9104
 8088TIP3   OH245754   5.589   3.383   3.482  0.2039 -0.8052 -0.1027
 8088TIP3    H145755   5.624   3.437   3.553  0.5931  1.2252 -1.7272
 8088TIP3    H245756   5.498   3.410   3.474  0.2873 -0.6710 -0.6559
 8089TIP3   OH245757   1.033   1.774  11.115  0.1443  0.3937  0.3564
 8089TIP3    H145758   0.978   1.818  11.180  0.0767  1.6209 -0.5033
 8089TIP3    H245759   1.009   1.815  11.032  0.4067 -0.9719 -0.4222
 8090TIP3   OH245760   5.256   5.981   2.435  0.0989  0.1359 -0.0764
 8090TIP3    H145761   5.181   5.972   2.493 -0.1508  2.7487  0.1019
 8090TIP3    H245762   5.308   5.902   2.450 -1.6308 -0.8061  1.2081
 8091TIP3   OH245763   2.702   5.130   5.182  0.1561  0.0199  0.0263
 8091TIP3    H145764   2.753   5.051   5.165  0.4707  0.5525 -1.7450
 8091TIP3    H245765   2.734   5.163   5.266  1.0048 -0.9735  0.1009
 8092TIP3   OH245766   0.974   2.057   5.997 -0.6569 -0.4250  0.6745
 8092TIP3    H145767   0.988   2.141   6.042 -0.5496 -0.8994  1.5560
 8092TIP3    H245768   0.915   2.009   6.055  1.9916 -2.3226  1.9938
 8093TIP3   OH245769   3.409   0.610  14.477  0.0303  0.1368 -0.1201
 8093TIP3    H145770   3.345   0.651  14.535  0.4325  0.2752  0.2320
 8093TIP3    H245771   3.454   0.546  14.532 -0.3615 -0.5521 -0.5792
 8094TIP3   OH245772   0.996   4.665   5.266 -0.1256  0.0550 -0.0698
 8094TIP3    H145773   1.039   4.594   5.314 -1.7208 -0.5333  0.5969
 8094TIP3    H245774   1.055   4.685   5.194  0.2311 -2.2300 -0.5120
 8095TIP3   OH245775   2.473   6.768  16.574  0.7628  0.4002 -0.3094
 8095TIP3    H145776   2.450   6.675  16.565  2.4372 -0.0341 -0.4338
 8095TIP3    H245777   2.402   6.805  16.628  0.3519 -1.0691  0.2107
 8096TIP3   OH245778   3.175   1.980   1.522  0.2538  1.1685  0.2302
 8096TIP3    H145779   3.173   1.992   1.617 -1.9033 -0.5081  0.4830
 8096TIP3    H245780   3.130   1.896   1.507 -0.1562  1.7446 -2.3050
 8097TIP3   OH245781   5.391   4.234   0.316  0.5590  0.5100  0.4213
 8097TIP3    H145782   5.416   4.202   0.403 -0.3393 -0.8505  0.2066
 8097TIP3    H245783   5.360   4.156   0.270  1.4532  1.1201 -1.2951
 8098TIP3   OH245784   6.239   2.379   4.254 -0.1417  0.6806  0.1353
 8098TIP3    H145785   6.309   2.422   4.205  0.2637 -0.3280 -0.1957
 8098TIP3    H245786   6.237   2.290   4.219 -0.4732  0.2173  1.3094
 8099TIP3   OH245787   6.533   6.187   4.291  0.3622  0.3374  0.0044
 8099TIP3    H145788   6.610   6.224   4.334  0.3044 -0.4337  0.7887
 8099TIP3    H245789   6.465   6.254   4.301  0.9499  1.0678 -0.7912
 8100TIP3   OH245790   3.384   5.974   0.724  0.2599 -0.2529 -0.5620
 8100TIP3    H145791   3.288   5.976   0.730  0.3378 -0.1295  3.0387
 8100TIP3    H245792   3.408   6.062   0.695 -0.6665 -0.5084 -2.2569
 8101TIP3   OH245793   6.341   4.807   1.046  0.1855  0.3862 -0.4168
 8101TIP3    H145794   6.339   4.894   1.006  2.4554  0.4431 -0.5157
 8101TIP3    H245795   6.290   4.753   0.986 -0.4015  1.4241 -0.8923
 8102TIP3   OH245796   4.191   4.113  12.900  0.7872  0.1145  0.2500
 8102TIP3    H145797   4.124   4.164  12.854 -1.0220  0.4396  3.0033
 8102TIP3    H245798   4.237   4.178  12.954 -0.5858 -0.8214  2.7054
 8103TIP3   OH245799   6.274   4.375   2.224 -0.2939  0.1390  0.2807
 8103TIP3    H145800   6.183   4.366   2.254 -0.0280  0.0850  1.0959
 8103TIP3    H245801   6.273   4.340   2.135 -1.1726  0.5857  0.1017
 8104TIP3   OH245802   1.430   4.042   2.066  0.2843  0.1678  0.4318
 8104TIP3    H145803   1.410   4.115   2.124 -0.0742 -0.1420  0.7041
 8104TIP3    H245804   1.509   4.002   2.103  1.9791  1.8908 -1.1067
 8105TIP3   OH245805   1.012   2.307  11.725  0.2897 -0.2759 -0.0456
 8105TIP3    H145806   0.988   2.394  11.759 -0.0125 -0.7680  1.0357
 8105TIP3    H245807   0.929   2.260  11.721  0.5820 -0.8124  0.2340
 8106TIP3   OH245808   4.434   2.862   2.627 -0.5325 -0.5309 -0.2944
 8106TIP3    H145809   4.508   2.855   2.688  0.7427  1.2504 -1.5164
 8106TIP3    H245810   4.466   2.821   2.547 -0.6052  0.7594 -1.0132
 8107TIP3   OH245811   0.681   1.789   1.724  0.8350 -0.1760 -0.0020
 8107TIP3    H145812   0.614   1.725   1.749  0.7053  0.4487  1.3425
 8107TIP3    H245813   0.764   1.748   1.748  0.7510  0.1398  0.8780
 8108TIP3   OH245814   2.717   2.258  12.864  0.3024 -0.1837  0.0036
 8108TIP3    H145815   2.629   2.292  12.880  0.1102 -0.0330 -1.3108
 8108TIP3    H245816   2.703   2.173  12.823  0.7842 -0.5774  0.6364
 8109TIP3   OH245817   0.528   3.626   2.699 -0.5424  0.0621  0.2630
 8109TIP3    H145818   0.592   3.695   2.714  1.2393 -0.7377 -2.7861
 8109TIP3    H245819   0.445   3.671   2.685 -0.2459  1.2642  2.1216
 8110TIP3   OH245820   2.835   1.422  11.624 -0.3562 -0.1407  0.1999
 8110TIP3    H145821   2.825   1.491  11.559  0.0551  0.8387  1.1382
 8110TIP3    H245822   2.842   1.341  11.573  4.8927  0.9393 -1.4314
 8111TIP3   OH245823   6.695   4.318   5.872 -0.3158  0.3953  0.2447
 8111TIP3    H145824   6.622   4.301   5.931 -0.2584 -0.1596  0.1604
 8111TIP3    H245825   6.727   4.404   5.898 -0.5827  0.3560  0.7153
 8112TIP3   OH245826   5.653   3.054  11.590  0.2424 -0.0833 -0.0746
 8112TIP3    H145827   5.575   3.012  11.555 -0.6022  0.9239  0.5351
 8112TIP3    H245828   5.714   3.057  11.516  0.7540 -3.1999  0.0829
 8113TIP3   OH245829   1.648   1.325   2.761  0.0222 -0.3443  0.4900
 8113TIP3    H145830   1.626   1.235   2.738  0.5153 -0.1770 -0.6705
 8113TIP3    H245831   1.728   1.344   2.712  0.9757  0.1308  2.1333
 8114TIP3   OH245832   1.154   6.552   4.826 -0.2325 -0.4199 -0.0744
 8114TIP3    H145833   1.152   6.530   4.920 -0.8636  1.0488  0.2865
 8114TIP3    H245834   1.097   6.488   4.785 -1.1099 -0.1986  0.7732
 8115TIP3   OH245835   6.273   5.615   5.928  0.3128  0.0945  0.5154
 8115TIP3    H145836   6.198   5.631   5.985 -0.5198  0.7226 -0.7202
 8115TIP3    H245837   6.296   5.523   5.944 -1.3180 -0.3934  0.2660
 8116TIP3   OH245838   1.377   3.660  12.455 -0.0138 -0.5542 -0.0088
 8116TIP3    H145839   1.398   3.569  12.435  0.9224 -0.6595  1.3304
 8116TIP3    H245840   1.432   3.682  12.530 -0.4292  1.0379 -0.1251
 8117TIP3   OH245841   2.038   5.091   3.868 -0.4413 -0.0163 -0.7688
 8117TIP3    H145842   1.950   5.089   3.905 -0.2116  0.2737 -0.1943
 8117TIP3    H245843   2.036   5.026   3.797 -1.0082 -0.2665 -0.5276
 8118TIP3   OH245844   1.942   0.615   2.166 -0.2043 -0.6444  0.3300
 8118TIP3    H145845   1.984   0.588   2.084  1.9648 -0.1697  1.2319
 8118TIP3    H245846   1.897   0.697   2.143 -0.1348 -0.8332 -0.5275
 8119TIP3   OH245847   4.443   5.913   4.804  0.4254 -0.1418  0.0726
 8119TIP3    H145848   4.534   5.932   4.783  0.3264 -1.7330 -2.1343
 8119TIP3    H245849   4.444   5.826   4.842 -0.2465 -0.7378 -1.1974
 8120TIP3   OH245850   2.261   0.597  13.385  0.3684 -0.2335  0.3855
 8120TIP3    H145851   2.196   0.585  13.454  0.2174 -3.3108 -0.1685
 8120TIP3    H245852   2.215   0.649  13.318 -0.5341  0.0698  1.2181
 8121TIP3   OH245853   5.324   2.298  15.220  0.1277  0.5225 -0.3503
 8121TIP3    H145854   5.283   2.340  15.145 -0.8297  0.3949  0.0727
 8121TIP3    H245855   5.413   2.331  15.221  0.3053  0.1451 -1.8185
 8122TIP3   OH245856   3.178   2.481   1.629  1.0077  0.1343 -0.0090
 8122TIP3    H145857   3.194   2.535   1.551  3.0038  2.3929  1.8329
 8122TIP3    H245858   3.263   2.444   1.650  0.1833 -1.6993  0.3001
 8123TIP3   OH245859   4.873   1.207   3.354 -0.6572 -0.0801 -0.4424
 8123TIP3    H145860   4.801   1.152   3.383 -0.4174 -0.3067 -0.2720
 8123TIP3    H245861   4.833   1.272   3.295 -1.1165  0.2888  0.2710
 8124TIP3   OH245862   1.301   1.074   4.532  0.0942 -0.0823 -0.5219
 8124TIP3    H145863   1.313   0.980   4.545 -1.7901 -0.5257 -1.6918
 8124TIP3    H245864   1.350   1.093   4.452 -0.9604 -0.4552 -1.2790
 8125TIP3   OH245865   0.901   5.313   3.132  0.4539 -0.2165  0.0004
 8125TIP3    H145866   0.810   5.343   3.132  0.2509 -0.7881  0.9052
 8125TIP3    H245867   0.952   5.393   3.143 -0.0554 -0.0712  1.6860
 8126TIP3   OH245868   5.373   1.442   4.565 -0.4294  0.1707 -0.3400
 8126TIP3    H145869   5.382   1.347   4.560 -0.3199  0.1707 -0.1416
 8126TIP3    H245870   5.460   1.476   4.545 -0.4903  0.2324 -0.5051
 8127TIP3   OH245871   1.503   5.467  13.858  0.1690 -0.5198  0.3693
 8127TIP3    H145872   1.478   5.390  13.910 -1.3747  0.4866  1.1862
 8127TIP3    H245873   1.453   5.539  13.896 -0.6815  0.3671 -2.2215
 8128TIP3   OH245874   1.905   5.140  16.035  0.0535 -0.0392 -0.4507
 8128TIP3    H145875   2.001   5.134  16.040  0.0439  0.4560  0.7315
 8128TIP3    H245876   1.884   5.221  16.083 -1.0752 -1.1467  1.0160
 8129TIP3   OH245877   2.592   5.558  11.778  0.3519 -0.7218 -0.4682
 8129TIP3    H145878   2.564   5.469  11.800 -1.3589 -0.5136 -1.6203
 8129TIP3    H245879   2.602   5.557  11.683  0.4165  0.2988 -0.4796
 8130TIP3   OH245880   5.912   4.417   6.325 -0.3117 -0.4529  0.0710
 8130TIP3    H145881   5.991   4.389   6.372 -0.0930 -0.1875 -0.1352
 8130TIP3    H245882   5.853   4.343   6.331 -0.2335 -0.4713  0.6535
 8131TIP3   OH245883   0.689   3.178   6.328 -0.0530 -0.0351  0.4621
 8131TIP3    H145884   0.630   3.150   6.398 -0.9834 -1.6086 -0.8752
 8131TIP3    H245885   0.774   3.139   6.352 -0.7307 -1.9373 -0.0380
 8132TIP3   OH245886   3.643   2.333  13.685 -0.2675  0.2361  0.0516
 8132TIP3    H145887   3.621   2.425  13.704  2.8201  1.5066 -1.7808
 8132TIP3    H245888   3.711   2.312  13.749  0.6245  0.0074 -0.9562
 8133TIP3   OH245889   4.256   3.406  11.908 -0.3606 -0.4303 -0.1474
 8133TIP3    H145890   4.226   3.416  11.999  1.9980  1.2330  0.5550
 8133TIP3    H245891   4.291   3.317  11.904  2.1959  0.3972  1.5400
 8134TIP3   OH245892   0.449   3.808  16.990  0.0344  0.2828  0.0595
 8134TIP3    H145893   0.447   3.814  17.086 -0.4221 -0.7020  0.1270
 8134TIP3    H245894   0.538   3.780  16.970 -0.5568 -1.9724  0.3878
 8135TIP3   OH245895   0.443   2.976  12.020  0.1443  0.5388 -0.0095
 8135TIP3    H145896   0.369   3.031  11.996 -0.5275 -0.5612 -0.5512
 8135TIP3    H245897   0.436   2.900  11.962  2.5007  1.0372 -1.0698
 8136TIP3   OH245898   4.430   6.393   0.901 -0.6523  0.1907  0.4057
 8136TIP3    H145899   4.501   6.412   0.840 -0.7212  0.0434  0.2791
 8136TIP3    H245900   4.471   6.336   0.967 -1.0745 -1.4356 -0.6594
 8137TIP3   OH245901   6.764   0.386  14.937  1.6738  0.0803  0.5830
 8137TIP3    H145902   6.778   0.427  14.851 -2.0506 -1.1403 -0.8112
 8137TIP3    H245903   6.703   0.445  14.982  2.6053  0.0728  1.8941
 8138TIP3   OH245904   5.795   2.350   2.869 -0.4931 -0.5856 -0.1739
 8138TIP3    H145905   5.766   2.360   2.959 -3.0845 -0.0345 -0.9664
 8138TIP3    H245906   5.841   2.432   2.849  0.6814 -0.9814  0.7935
 8139TIP3   OH245907   3.494   5.615   4.284 -0.1229 -0.3910 -0.0887
 8139TIP3    H145908   3.579   5.588   4.320 -0.1261  0.3413  0.4825
 8139TIP3    H245909   3.475   5.549   4.218  0.5588 -0.9667  0.2670
 8140TIP3   OH245910   6.680   2.438   4.555 -0.1272  0.6191 -0.2483
 8140TIP3    H145911   6.697   2.525   4.592 -0.9234  0.3231  0.8537
 8140TIP3    H245912   6.585   2.435   4.545 -0.0542  0.0727 -0.8102
 8141TIP3   OH245913   5.646   0.280   6.064 -0.0933 -0.0559  0.4540
 8141TIP3    H145914   5.596   0.353   6.027  0.5451 -0.8277 -2.1399
 8141TIP3    H245915   5.691   0.318   6.140  2.9932  3.3621 -2.6624
 8142TIP3   OH245916   6.045   5.852   2.976 -0.4005 -0.5941 -0.0692
 8142TIP3    H145917   6.052   5.757   2.984 -1.4616 -0.5465  2.1504
 8142TIP3    H245918   6.104   5.887   3.043  0.6134  0.3643 -1.4056
 8143TIP3   OH245919   2.020   5.016   4.824 -0.3890 -0.0674 -0.4301
 8143TIP3    H145920   2.092   5.040   4.882 -1.4030 -1.3527  1.4678
 8143TIP3    H245921   1.943   5.060   4.861 -0.7180  0.9441 -2.1728
 8144TIP3   OH245922   6.792   4.367  12.389 -0.1454 -0.2746 -0.8876
 8144TIP3    H145923   6.837   4.427  12.449 -0.5728 -0.2422 -0.5985
 8144TIP3    H245924   6.858   4.300  12.368  1.2136  1.6456 -3.2553
 8145TIP3   OH245925   1.915   2.863   6.421  0.7606 -0.1452  0.0530
 8145TIP3    H145926   1.847   2.808   6.382  0.7883 -0.1667  0.0352
 8145TIP3    H245927   1.982   2.870   6.354  0.9638 -0.4652  0.2212
 8146TIP3   OH245928   5.357   4.912  14.864  0.4596 -0.6569  0.1418
 8146TIP3    H145929   5.418   4.844  14.837 -1.2704 -1.5544 -1.8112
 8146TIP3    H245930   5.274   4.886  14.824 -1.3037  0.3218  2.9301
 8147TIP3   OH245931   3.375   0.947   0.566  0.1158  0.4121 -0.0870
 8147TIP3    H145932   3.464   0.981   0.553 -0.1096  1.0387 -0.0094
 8147TIP3    H245933   3.329   1.017   0.612 -0.4984  0.2013 -0.3691
 8148TIP3   OH245934   5.101   5.731  13.188 -0.1850 -0.4574  0.4479
 8148TIP3    H145935   5.132   5.818  13.162  1.6647 -1.8772 -2.6832
 8148TIP3    H245936   5.154   5.708  13.264 -0.6689  1.0943  1.2907
 8149TIP3   OH245937   6.675   0.750   4.738 -0.1858  0.0292 -0.2108
 8149TIP3    H145938   6.599   0.694   4.749 -0.4714  0.2217 -1.1278
 8149TIP3    H245939   6.699   0.776   4.827 -1.6997  0.6405  0.0492
 8150TIP3   OH245940   6.657   5.530  14.884  0.1471  0.3863 -0.1382
 8150TIP3    H145941   6.731   5.589  14.904  0.3151  0.1854 -0.1651
 8150TIP3    H245942   6.672   5.453  14.939  0.2915  0.0824 -0.5978
 8151TIP3   OH245943   5.516   2.224   2.452 -0.5667 -0.0310  0.2605
 8151TIP3    H145944   5.461   2.272   2.391 -0.0228 -1.2537 -1.2481
 8151TIP3    H245945   5.501   2.267   2.537 -0.3177  2.5998 -0.9244
 8152TIP3   OH245946   4.158   5.697   5.081  0.3027  0.2737 -0.0583
 8152TIP3    H145947   4.070   5.662   5.099  0.9864 -1.6737 -0.3256
 8152TIP3    H245948   4.144   5.791   5.071 -1.5918  0.1487  0.9260
 8153TIP3   OH245949   2.345   5.387   4.061 -0.1314 -0.0128 -0.0674
 8153TIP3    H145950   2.337   5.319   4.128 -0.8907  0.3232  0.1867
 8153TIP3    H245951   2.379   5.340   3.984  0.3016 -0.4861  0.4057
 8154TIP3   OH245952   3.945   6.204   4.766 -0.2363  0.1190 -0.6318
 8154TIP3    H145953   3.926   6.250   4.848  0.1103 -0.3449 -0.2872
 8154TIP3    H245954   4.029   6.240   4.737 -0.6965  0.7959 -1.1628
 8155TIP3   OH245955   1.938   3.102   4.958 -0.5864  0.0799  0.0020
 8155TIP3    H145956   2.015   3.113   4.902 -0.7755  0.6801 -0.1463
 8155TIP3    H245957   1.948   3.169   5.026 -0.4624 -0.5097  0.5848
 8156TIP3   OH245958   3.544   0.381  16.027  0.0314  0.3956  0.0209
 8156TIP3    H145959   3.471   0.385  15.965  0.7570  0.1329 -0.8725
 8156TIP3    H245960   3.512   0.326  16.098 -1.1427  1.4438  0.3543
 8157TIP3   OH245961   0.663   5.813   0.343  0.0328 -0.5481 -0.3154
 8157TIP3    H145962   0.741   5.765   0.315  1.3667  0.9809  0.6117
 8157TIP3    H245963   0.629   5.852   0.263  0.6843 -0.5911 -0.6225
 8158TIP3   OH245964   2.117   1.882   2.772  0.4326  0.0750  0.5355
 8158TIP3    H145965   2.095   1.963   2.819 -1.4017 -0.7741  1.2100
 8158TIP3    H245966   2.052   1.877   2.702  0.2586 -1.0156  0.7610
 8159TIP3   OH245967   0.423   4.711  12.155 -0.5582 -0.3352  0.2634
 8159TIP3    H145968   0.432   4.701  12.250  1.8548  0.0819  0.1431
 8159TIP3    H245969   0.412   4.622  12.122  0.9704 -0.7246  0.7548
 8160TIP3   OH245970   0.845   5.571   0.349 -0.3623 -0.0260  0.6205
 8160TIP3    H145971   0.815   5.595   0.436  0.9634 -1.9920  1.6903
 8160TIP3    H245972   0.835   5.476   0.345  2.5152 -0.3884 -0.1501
 8161TIP3   OH245973   2.476   3.386  13.333  0.2240 -0.5675 -0.3756
 8161TIP3    H145974   2.488   3.307  13.385 -0.7826  0.2350  1.1417
 8161TIP3    H245975   2.545   3.445  13.364  0.6621 -0.6462 -1.1580
 8162TIP3   OH245976   6.117   3.995  11.221 -0.1695  0.8608  0.4788
 8162TIP3    H145977   6.176   4.070  11.230 -1.7901  2.1509  1.0741
 8162TIP3    H245978   6.032   4.035  11.201 -1.0899 -0.8386  0.8124
 8163TIP3   OH245979   1.428   2.220  14.968  0.1185  0.6440 -0.1957
 8163TIP3    H145980   1.345   2.194  14.928  1.2578 -0.3891 -2.0689
 8163TIP3    H245981   1.453   2.145  15.023  0.4879  0.3150 -0.7974
 8164TIP3   OH245982   6.273   3.928  13.888 -0.3161 -0.6919  0.3679
 8164TIP3    H145983   6.334   3.899  13.956 -0.4785  0.2751  0.9391
 8164TIP3    H245984   6.309   3.892  13.807  0.9829 -0.1732  0.6943
 8165TIP3   OH245985   5.541   2.665   2.209 -0.1705  0.0480  0.3729
 8165TIP3    H145986   5.467   2.703   2.257  1.6892  3.2828  1.0321
 8165TIP3    H245987   5.574   2.596   2.266 -0.6434  0.8981  1.7302
 8166TIP3   OH245988   4.465   3.569   3.380  0.1802 -0.4470 -0.3486
 8166TIP3    H145989   4.546   3.619   3.374 -1.3934  2.3044 -0.8449
 8166TIP3    H245990   4.403   3.630   3.421 -1.7322 -2.3055 -0.2860
 8167TIP3   OH245991   4.390   6.169  15.373  0.4980 -0.3381  0.5997
 8167TIP3    H145992   4.361   6.135  15.288 -2.8923  0.8250  1.1448
 8167TIP3    H245993   4.365   6.102  15.436  0.2219  0.1083  0.9708
 8168TIP3   OH245994   1.761   0.654  12.109  0.5367 -0.2407  0.0418
 8168TIP3    H145995   1.746   0.584  12.172 -1.7396 -1.3685 -1.5608
 8168TIP3    H245996   1.797   0.726  12.160 -1.6956 -0.8642  2.7586
 8169TIP3   OH245997   4.902   3.487  14.174  0.2931  0.7518  0.0392
 8169TIP3    H145998   4.859   3.545  14.237 -1.3660 -0.4867  0.1138
 8169TIP3    H245999   4.848   3.492  14.096  1.5770  1.2231 -0.8577
 8170TIP3   OH246000   4.585   1.282  10.541  0.4515 -1.1206  0.3766
 8170TIP3    H146001   4.604   1.188  10.535 -0.1930 -1.3020  1.0473
 8170TIP3    H246002   4.542   1.293  10.626  1.2095 -0.0913  0.6559
 8171TIP3   OH246003   5.111   1.782   3.852  0.2648  0.0018 -0.1729
 8171TIP3    H146004   5.175   1.789   3.922 -1.0167 -2.7386  1.4490
 8171TIP3    H246005   5.159   1.744   3.779  1.4033  2.0392 -0.5594
 8172TIP3   OH246006   3.186   2.200   2.231  0.3204 -0.4794  0.2483
 8172TIP3    H146007   3.181   2.249   2.149  0.0926 -0.8049  0.0631
 8172TIP3    H246008   3.140   2.255   2.295 -0.6799 -0.8269 -0.1461
 8173TIP3   OH246009   6.523   2.278   3.580  0.2408  0.0288  0.7677
 8173TIP3    H146010   6.617   2.299   3.572  0.9584 -2.3514  1.9810
 8173TIP3    H246011   6.494   2.265   3.490  1.3665 -0.2659  0.4253
 8174TIP3   OH246012   0.737   0.622   0.749  0.5149 -0.3508 -0.7518
 8174TIP3    H146013   0.645   0.631   0.772  0.4571  1.3872 -1.5104
 8174TIP3    H246014   0.745   0.534   0.713 -0.9633 -0.3260 -1.1764
 8175TIP3   OH246015   0.914   3.052  12.632  0.0588  0.0135 -0.5267
 8175TIP3    H146016   0.823   3.070  12.606 -0.2418  1.2190  1.1429
 8175TIP3    H246017   0.907   2.981  12.696  0.2086  0.4555 -0.0059
 8176TIP3   OH246018   0.540   6.598  15.313  0.0800 -0.0272  0.0421
 8176TIP3    H146019   0.619   6.549  15.338  0.4756  1.2177  1.4055
 8176TIP3    H246020   0.551   6.683  15.354 -1.4659  0.5722 -0.7044
 8177TIP3   OH246021   5.953   2.128   3.171  0.0952  0.0160  0.5313
 8177TIP3    H146022   5.940   2.195   3.239 -0.3088  0.9262 -0.4084
 8177TIP3    H246023   6.015   2.169   3.110 -0.8877 -0.0662 -0.5585
 8178TIP3   OH246024   6.338   6.776   4.422 -0.2052  0.3195 -0.6219
 8178TIP3    H146025   6.344   6.869   4.443 -0.5119  0.2478 -0.1884
 8178TIP3    H246026   6.383   6.767   4.339 -0.4329  0.9054 -0.8137
 8179TIP3   OH246027   4.036   5.142  14.616  0.2403  0.0498  0.3276
 8179TIP3    H146028   4.098   5.113  14.683  0.6872  0.6136  0.1688
 8179TIP3    H246029   4.059   5.234  14.601 -0.7701  0.3268  0.4096
 8180TIP3   OH246030   1.154   2.739  11.958  0.1218 -0.3831  0.3855
 8180TIP3    H146031   1.232   2.736  11.903 -1.7101 -0.1535 -2.4323
 8180TIP3    H246032   1.103   2.812  11.923 -1.5076 -0.7095  1.9419
 8181TIP3   OH246033   2.272   3.514  12.090 -0.0825  0.4886  0.3006
 8181TIP3    H146034   2.180   3.488  12.097  0.3894 -0.7987  3.7375
 8181TIP3    H246035   2.293   3.503  11.998 -3.1961  0.1832 -0.4736
 8182TIP3   OH246036   1.185   4.753   5.080 -0.0088 -0.3868  0.0788
 8182TIP3    H146037   1.272   4.716   5.099 -0.2060 -0.3163  1.2306
 8182TIP3    H246038   1.203   4.834   5.034  0.6753  0.7685  2.2228
 8183TIP3   OH246039   3.147   2.894   1.026 -0.2047  0.4072  0.9152
 8183TIP3    H146040   3.231   2.885   0.982 -0.5879  1.0035  0.0280
 8183TIP3    H246041   3.131   2.808   1.065  1.7252  0.8224  2.8128
 8184TIP3   OH246042   6.218   1.621  10.774 -0.5263 -0.0178  0.3950
 8184TIP3    H146043   6.264   1.537  10.768 -1.0956 -0.2650 -1.0933
 8184TIP3    H246044   6.278   1.678  10.821  0.1883 -1.0577  0.7760
 8185TIP3   OH246045   2.758   0.302  11.700  0.3014 -0.2344  0.1560
 8185TIP3    H146046   2.678   0.320  11.748 -0.7319 -0.5429 -1.3912
 8185TIP3    H246047   2.781   0.211  11.722  0.3085 -0.1007  0.6999
 8186TIP3   OH246048   0.868   6.144   1.476 -0.0015  0.2762 -0.1509
 8186TIP3    H146049   0.820   6.222   1.503 -1.4840 -0.4737 -0.5109
 8186TIP3    H246050   0.956   6.176   1.455 -0.7967  2.0077 -1.0922
 8187TIP3   OH246051   6.424   1.036  13.947 -0.1331  0.8755 -0.8629
 8187TIP3    H146052   6.354   0.975  13.924 -0.1555 -0.8271  3.0137
 8187TIP3    H246053   6.380   1.109  13.991  0.3415 -0.2949  1.7725
 8188TIP3   OH246054   5.770   5.769  11.586  0.2302  0.3896  0.4289
 8188TIP3    H146055   5.764   5.864  11.579  2.0639  0.4757 -0.4242
 8188TIP3    H246056   5.749   5.737  11.499  1.1171  0.1147  0.3069
 8189TIP3   OH246057   3.068   2.528   5.409 -0.3453 -0.4366  0.4164
 8189TIP3    H146058   3.137   2.500   5.470 -0.9625  0.0443  1.3701
 8189TIP3    H246059   3.098   2.498   5.324  0.5799 -1.0882  0.9464
 8190TIP3   OH246060   2.829   4.593   0.168  0.5042  0.5774  0.1339
 8190TIP3    H146061   2.835   4.509   0.123  1.5480  0.1819  0.9586
 8190TIP3    H246062   2.920   4.615   0.190  0.3775  2.4383 -0.9749
 8191TIP3   OH246063   5.727   1.252   4.278 -0.0110  0.0917  1.2742
 8191TIP3    H146064   5.784   1.314   4.231 -0.4127 -0.5803 -0.1583
 8191TIP3    H246065   5.786   1.209   4.340  0.7876  0.2692  0.6664
 8192TIP3   OH246066   1.912   2.088  13.457 -0.2287 -0.1900  0.1263
 8192TIP3    H146067   1.943   2.101  13.547  0.1358 -0.6152  0.0658
 8192TIP3    H246068   1.929   1.996  13.439  0.6897  0.1440 -0.7617
 8193TIP3   OH246069   1.841   4.578   3.751  0.3226 -0.7291  0.7115
 8193TIP3    H146070   1.768   4.626   3.713 -0.1378 -1.4879  0.6166
 8193TIP3    H246071   1.909   4.644   3.763 -0.2928 -0.0556  0.5908
 8194TIP3   OH246072   2.715   6.090  13.453 -0.0228 -0.6054 -0.2242
 8194TIP3    H146073   2.625   6.069  13.429  0.1386 -0.4411 -1.0159
 8194TIP3    H246074   2.752   6.008  13.485 -1.1544 -0.1466  2.4680
 8195TIP3   OH246075   3.228   3.792  16.893  0.4769  0.3548 -0.8973
 8195TIP3    H146076   3.240   3.711  16.844 -1.0031 -1.1285  1.0544
 8195TIP3    H246077   3.307   3.798  16.948 -0.3693 -0.9891  0.5380
 8196TIP3   OH246078   3.317   4.839   0.415  0.1027  0.0050  0.1023
 8196TIP3    H146079   3.326   4.768   0.478 -1.8267 -0.1609  0.2356
 8196TIP3    H246080   3.346   4.800   0.332  1.7364 -0.0558  0.6620
 8197TIP3   OH246081   0.450   0.983  13.451 -0.0505 -0.4033 -0.1691
 8197TIP3    H146082   0.375   0.949  13.401  0.4889  0.1730 -1.4073
 8197TIP3    H246083   0.506   0.907  13.463 -0.3520 -0.6235 -0.1319
 8198TIP3   OH246084   2.948   2.819  12.645 -0.4324  0.4908  1.0613
 8198TIP3    H146085   2.874   2.846  12.591  1.0383  1.9997 -0.3154
 8198TIP3    H246086   2.908   2.792  12.728 -2.5120  1.1459  0.3458
 8199TIP3   OH246087   1.923   1.589   0.835  0.1802  0.4997 -0.4378
 8199TIP3    H146088   1.876   1.524   0.888  1.0784  1.1046  1.1758
 8199TIP3    H246089   1.938   1.545   0.751  0.3345 -1.2160  0.4315
 8200TIP3   OH246090   4.050   6.103   2.103  0.2818  0.0961  0.1051
 8200TIP3    H146091   4.028   6.053   2.182 -0.6460  0.6727  0.2265
 8200TIP3    H246092   3.968   6.107   2.054  0.2770  1.6642  0.2024
 8201TIP3   OH246093   6.222   2.494   1.028  0.0745 -0.0362  0.2320
 8201TIP3    H146094   6.305   2.537   1.051  0.0242  2.4868 -3.4960
 8201TIP3    H246095   6.156   2.562   1.037 -1.3889 -1.5120  1.3315
 8202TIP3   OH246096   0.038   3.828  12.631  0.0780 -0.4490  0.1267
 8202TIP3    H146097   0.006   3.891  12.566 -0.3166  0.7613  1.4294
 8202TIP3    H246098   0.008   3.864  12.714  4.0517  0.3471  1.4413
 8203TIP3   OH246099   5.144   2.036  12.091  0.2536  0.5185 -0.0361
 8203TIP3    H146100   5.221   2.078  12.054  0.2143  0.3459 -0.3192
 8203TIP3    H246101   5.176   1.993  12.171  0.6139 -0.1764 -0.5432
 8204TIP3   OH246102   2.738   4.522  12.528 -0.0386 -0.2431  0.0846
 8204TIP3    H146103   2.731   4.538  12.434 -2.5693 -2.5256 -0.2384
 8204TIP3    H246104   2.666   4.462  12.548  0.3364  0.2291  3.5250
 8205TIP3   OH246105   3.612   3.225  17.040  0.2609  0.6437  0.5405
 8205TIP3    H146106   3.545   3.178  17.090 -0.9000 -1.4106 -2.5901
 8205TIP3    H246107   3.599   3.317  17.062 -2.3264  0.1389  1.4873
 8206TIP3   OH246108   6.386   0.897   1.667 -0.3946  0.0283 -0.2312
 8206TIP3    H146109   6.350   0.934   1.587 -0.6786  0.5766  0.1436
 8206TIP3    H246110   6.406   0.973   1.722  0.0167 -0.3281  0.1273
 8207TIP3   OH246111   1.167   2.086  13.752  0.0905  0.2619  0.1758
 8207TIP3    H146112   1.191   2.097  13.660 -0.5405 -0.4198 -0.0807
 8207TIP3    H246113   1.071   2.084  13.751  0.0542  0.9969  0.9421
 8208TIP3   OH246114   5.199   0.754   0.366  0.2155 -0.5577  0.0302
 8208TIP3    H146115   5.217   0.794   0.281 -1.7676 -1.0859 -0.6931
 8208TIP3    H246116   5.213   0.661   0.353 -2.0170 -0.8955 -0.3509
 8209TIP3   OH246117   6.569   0.081   1.772  0.6361  0.3660 -0.1289
 8209TIP3    H146118   6.545   0.084   1.864  1.6888  2.1928  0.1320
 8209TIP3    H246119   6.619  -0.001   1.763 -1.1564 -0.8402  0.4277
 8210TIP3   OH246120   6.609   4.042  15.299 -0.2254 -0.0701  0.1647
 8210TIP3    H146121   6.540   4.091  15.345  0.7253 -0.8072  2.5415
 8210TIP3    H246122   6.622   3.964  15.352  1.3202 -0.7541 -1.1420
 8211TIP3   OH246123   3.167   5.289  14.498  0.2531  0.6007 -0.0713
 8211TIP3    H146124   3.103   5.221  14.473  1.3348 -0.9809  1.2626
 8211TIP3    H246125   3.133   5.326  14.579  0.3328  0.7482 -0.1037
 8212TIP3   OH246126   4.874   4.150  10.369  0.3226  0.0511  0.0459
 8212TIP3    H146127   4.835   4.098  10.440 -0.5830 -1.0043 -1.1717
 8212TIP3    H246128   4.930   4.088  10.323 -0.2628  0.3102 -1.0464
 8213TIP3   OH246129   5.698   3.494   4.886  0.2095  0.1751  0.2738
 8213TIP3    H146130   5.680   3.587   4.897 -0.6301  0.2686 -1.4958
 8213TIP3    H246131   5.654   3.470   4.804  3.1146 -1.0112 -1.1231
 8214TIP3   OH246132   1.348   5.305   1.916 -0.4682 -0.0372  0.1840
 8214TIP3    H146133   1.265   5.349   1.933  0.3879  0.8631  2.2893
 8214TIP3    H246134   1.376   5.270   2.001 -0.4299 -3.5845 -1.0890
 8215TIP3   OH246135   6.248   3.727  14.478  0.0298 -0.1262  0.3003
 8215TIP3    H146136   6.278   3.639  14.500  1.8035  0.9511  2.6430
 8215TIP3    H246137   6.292   3.749  14.396  1.7662 -0.4732  1.0932
 8216TIP3   OH246138   1.203   2.686  14.942  0.3758 -0.1558 -0.5731
 8216TIP3    H146139   1.166   2.659  15.025 -0.1129  0.9033 -0.4391
 8216TIP3    H246140   1.255   2.610  14.913  0.1856 -0.6918  0.4622
 8217TIP3   OH246141   5.731   6.502   2.187  0.0742 -0.0891 -0.0888
 8217TIP3    H146142   5.774   6.418   2.169  0.8223 -0.0348  1.3066
 8217TIP3    H246143   5.777   6.564   2.130  2.0726  0.0004  1.4915
 8218TIP3   OH246144   0.954   1.731  15.955  0.6178 -0.3559  0.1200
 8218TIP3    H146145   0.985   1.738  15.865 -1.2206  1.4474 -0.4483
 8218TIP3    H246146   0.908   1.647  15.958  1.6038 -0.9265 -0.2926
 8219TIP3   OH246147   4.333   3.953   1.776  0.0247  0.3629 -0.4109
 8219TIP3    H146148   4.404   3.890   1.788  0.6442  0.8518 -1.4015
 8219TIP3    H246149   4.360   4.005   1.701 -1.4872  0.4253 -0.9355
 8220TIP3   OH246150   6.764   3.896  12.882  0.3979 -0.5012 -0.4705
 8220TIP3    H146151   6.679   3.860  12.858 -0.3957  0.6586  0.5008
 8220TIP3    H246152   6.753   3.991  12.875  0.5160 -0.1184  2.8654
 8221TIP3   OH246153   2.449   3.789   4.448  0.1195  0.4673 -0.5992
 8221TIP3    H146154   2.438   3.816   4.539  1.7733  1.8755 -0.7691
 8221TIP3    H246155   2.428   3.868   4.397 -0.3740 -0.1854 -1.4415
 8222TIP3   OH246156   0.725   6.354   2.735  0.2707 -0.1755 -0.5734
 8222TIP3    H146157   0.810   6.323   2.703  0.4459  0.4622 -0.7512
 8222TIP3    H246158   0.698   6.289   2.800  1.4605  0.2307  0.3582
 8223TIP3   OH246159   5.944   4.928  12.135  0.5537  0.7524  0.1815
 8223TIP3    H146160   5.922   5.012  12.095  0.9762  1.1096  0.6784
 8223TIP3    H246161   6.028   4.904  12.096 -0.7759 -0.7690 -1.9673
 8224TIP3   OH246162   3.148   2.544  13.799 -0.2096 -0.2370 -0.3972
 8224TIP3    H146163   3.093   2.469  13.775 -1.2003  0.8099 -1.5411
 8224TIP3    H246164   3.176   2.581  13.715  0.3829  0.5864  0.1461
 8225TIP3   OH246165   3.519   1.307  16.168  0.5072  0.0981  0.9609
 8225TIP3    H146166   3.483   1.336  16.084 -0.3041  1.2156  1.6519
 8225TIP3    H246167   3.441   1.288  16.222  1.0161 -1.6411  1.1376
 8226TIP3   OH246168   5.898   2.878  14.382  0.1924 -0.5637  0.1106
 8226TIP3    H146169   5.976   2.825  14.371 -0.3575 -1.3331 -0.2002
 8226TIP3    H246170   5.888   2.887  14.477 -0.4776 -2.2261  0.2356
 8227TIP3   OH246171   0.622   2.312   1.822 -0.0636  0.6242 -0.3687
 8227TIP3    H146172   0.588   2.234   1.778 -1.0231  0.5051  0.5311
 8227TIP3    H246173   0.632   2.285   1.914  1.6731  0.9325 -0.4379
 8228TIP3   OH246174   0.417   2.855  12.628 -0.2580  0.4648  0.1160
 8228TIP3    H146175   0.475   2.804  12.572 -1.8186 -0.1988 -0.9709
 8228TIP3    H246176   0.465   2.865  12.710  1.0681 -0.6663 -0.4831
 8229TIP3   OH246177   6.565   3.011  13.779  0.3782 -0.1211 -0.0989
 8229TIP3    H146178   6.619   3.018  13.858 -0.5649 -1.7387  0.7524
 8229TIP3    H246179   6.533   3.100  13.764  1.0520  0.3327  0.9917
 8230TIP3   OH246180   1.972   2.129  11.180 -0.6263 -0.5069  0.6112
 8230TIP3    H146181   1.933   2.108  11.095  0.9820  0.6584 -0.4551
 8230TIP3    H246182   2.015   2.213  11.167  1.2191 -1.1636  2.0614
 8231TIP3   OH246183   6.769   2.345  16.544 -0.3018  0.2848 -0.1432
 8231TIP3    H146184   6.786   2.438  16.558 -1.7508  0.4549  0.6379
 8231TIP3    H246185   6.682   2.342  16.504 -0.0835 -0.7221 -0.5747
 8232TIP3   OH246186   2.392   5.987  16.456 -0.8060 -0.5376 -0.3857
 8232TIP3    H146187   2.316   6.046  16.455  0.8634  1.7391 -1.7846
 8232TIP3    H246188   2.380   5.932  16.379 -0.5562  0.5467 -1.2272
 8233TIP3   OH246189   6.146   2.926   2.388  0.1368 -0.1144  0.9703
 8233TIP3    H146190   6.180   3.001   2.339 -2.4890  1.7090  1.6994
 8233TIP3    H246191   6.224   2.885   2.426  1.7315  2.1284  0.3691
 8234TIP3   OH246192   6.573   4.499   1.227  0.2652  0.6354 -0.3390
 8234TIP3    H146193   6.619   4.455   1.155 -2.2390 -1.6975 -0.6552
 8234TIP3    H246194   6.488   4.456   1.232  0.0248  1.1575  3.5953
 8235TIP3   OH246195   2.128   6.339   1.333 -0.0666 -0.5099  0.7269
 8235TIP3    H146196   2.081   6.274   1.280  0.2922 -1.0073  1.0088
 8235TIP3    H246197   2.065   6.367   1.399 -0.6069  0.3177 -0.1234
 8236TIP3   OH246198   5.555   2.541  14.892  0.2070 -0.5288  0.8316
 8236TIP3    H146199   5.621   2.586  14.839 -0.9424  0.8906  0.5335
 8236TIP3    H246200   5.549   2.454  14.854  1.7690 -0.6361  0.7631
 8237TIP3   OH246201   6.134   0.272   5.856 -0.2114 -0.1772 -0.0560
 8237TIP3    H146202   6.142   0.218   5.777 -1.1077  0.2262 -0.4344
 8237TIP3    H246203   6.047   0.252   5.890 -0.6270  1.1382 -0.2964
 8238TIP3   OH246204   3.122   0.020   4.194  0.7050 -0.4857 -0.0687
 8238TIP3    H146205   3.129  -0.075   4.189 -2.2787 -0.7591 -2.3248
 8238TIP3    H246206   3.080   0.037   4.279 -1.5618 -1.5737 -0.8833
 8239TIP3   OH246207   2.173   1.110   2.258  0.3256 -0.5571 -0.0747
 8239TIP3    H146208   2.177   1.115   2.162 -1.7349 -0.4913 -0.1976
 8239TIP3    H246209   2.264   1.096   2.284  0.9816 -0.3524 -2.0160
 8240TIP3   OH246210   0.244   4.829  16.028 -0.0160 -0.0127  0.4325
 8240TIP3    H146211   0.186   4.757  16.051  1.4207 -1.1732  0.5844
 8240TIP3    H246212   0.225   4.847  15.936 -1.7146  0.7311  0.8964
 8241TIP3   OH246213   6.484   2.579  11.921 -0.4681  0.2494  0.4035
 8241TIP3    H146214   6.529   2.660  11.945 -0.5101  0.2499  0.4797
 8241TIP3    H246215   6.451   2.595  11.833 -0.3218  0.2513  0.3478
 8242TIP3   OH246216   6.731   0.542   0.912 -0.1343  0.5873  0.5766
 8242TIP3    H146217   6.824   0.527   0.891 -0.6309 -0.7410 -0.8953
 8242TIP3    H246218   6.707   0.469   0.968 -0.3099  0.9126  0.9288
 8243TIP3   OH246219   3.371   4.648  11.843  0.4726 -0.4501  0.0789
 8243TIP3    H146220   3.379   4.741  11.825 -0.3944 -0.5122 -0.6929
 8243TIP3    H246221   3.361   4.607  11.757 -1.0805 -1.0412  0.5029
 8244TIP3   OH246222   4.533   4.038  10.358  0.1334 -0.3506 -0.0849
 8244TIP3    H146223   4.475   3.963  10.374 -1.1611  0.6700  0.1887
 8244TIP3    H246224   4.474   4.113  10.351  1.2994  0.5021 -1.4902
 8245TIP3   OH246225   4.238   1.954  14.133 -0.5985  0.4251 -0.2517
 8245TIP3    H146226   4.198   1.873  14.162  0.7023 -0.2807 -0.3156
 8245TIP3    H246227   4.193   2.023  14.181 -0.0645 -0.5246  1.6868
 8246TIP3   OH246228   4.401   5.526   0.268 -0.5240 -0.1327 -0.0865
 8246TIP3    H146229   4.440   5.608   0.299 -0.2059 -0.5988  0.7596
 8246TIP3    H246230   4.476   5.468   0.252 -0.7887 -0.5277  0.0968
 8247TIP3   OH246231   1.322   5.507   6.204 -0.2347 -0.1398  0.2537
 8247TIP3    H146232   1.273   5.581   6.168  0.6648  0.9830  1.2145
 8247TIP3    H246233   1.370   5.545   6.278  1.1066 -1.4490  0.0961
 8248TIP3   OH246234   2.540   6.014  14.334  0.3619  0.3362 -0.2881
 8248TIP3    H146235   2.448   6.029  14.357  0.8287  0.1414  1.8837
 8248TIP3    H246236   2.546   5.921  14.315 -0.0962  0.5602 -1.6925
 8249TIP3   OH246237   6.310   2.845   0.337  0.2913 -0.1151 -0.1068
 8249TIP3    H146238   6.258   2.917   0.372  1.9679 -0.2356  2.9291
 8249TIP3    H246239   6.306   2.857   0.242 -1.6515  2.3660  0.1745
 8250TIP3   OH246240   1.673   5.134   5.265  0.2462  0.1126  0.7192
 8250TIP3    H146241   1.755   5.123   5.314  0.4478  0.0094  0.3639
 8250TIP3    H246242   1.605   5.135   5.332  0.5007 -0.2521  0.9894
 8251TIP3   OH246243   0.792   1.134  14.153  0.5373  0.4550 -0.1420
 8251TIP3    H146244   0.751   1.068  14.099  0.4472  1.4344 -1.3044
 8251TIP3    H246245   0.819   1.203  14.092  0.0388  1.8007  1.0812
 8252TIP3   OH246246   3.500   5.579   3.994  0.1490  0.3577  0.3220
 8252TIP3    H146247   3.569   5.515   3.975  0.1468  0.6873 -0.8884
 8252TIP3    H246248   3.547   5.653   4.033  0.5657  0.7510 -0.8750
 8253TIP3   OH246249   1.008   5.718  11.769  0.6868 -0.2401 -0.5924
 8253TIP3    H146250   0.967   5.749  11.688  0.6044  3.3480  0.6695
 8253TIP3    H246251   0.972   5.631  11.782 -1.2700  0.0954 -3.0735
 8254TIP3   OH246252   0.180   1.031   3.583 -0.7057 -0.5248 -0.1014
 8254TIP3    H146253   0.171   0.945   3.624  1.1448 -0.0120  1.5286
 8254TIP3    H246254   0.141   1.092   3.646  0.8035  0.1200  0.2424
 8255TIP3   OH246255   4.647   6.501  14.619  0.7663 -0.2281 -0.1880
 8255TIP3    H146256   4.626   6.528  14.709  2.0699  1.2237 -0.2763
 8255TIP3    H246257   4.707   6.426  14.630  1.1049  0.0903  0.1635
 8256TIP3   OH246258   2.208   2.524   2.998  0.4108  0.2378  0.2853
 8256TIP3    H146259   2.120   2.489   2.987  1.5111 -1.9860 -2.6592
 8256TIP3    H246260   2.243   2.476   3.074 -0.6007  0.6182  1.0224
 8257TIP3   OH246261   0.925   6.624   2.973 -0.6207  0.4771 -0.0545
 8257TIP3    H146262   0.954   6.662   2.890 -0.9819 -0.0854 -0.4476
 8257TIP3    H246263   0.831   6.608   2.960 -0.6724  0.3632  0.4542
 8258TIP3   OH246264   2.950   0.623  13.122 -0.1267 -0.0906 -0.3033
 8258TIP3    H146265   3.035   0.640  13.164 -1.1507 -0.2983  2.0453
 8258TIP3    H246266   2.947   0.528  13.111 -1.0201 -0.4385  2.1223
 8259TIP3   OH246267   2.021   1.289   5.159 -0.2461 -0.5965 -0.3401
 8259TIP3    H146268   2.059   1.218   5.106  0.7175 -0.9835  0.8368
 8259TIP3    H246269   1.985   1.245   5.236  1.7860  0.2887  1.2069
 8260TIP3   OH246270   2.166   1.918  10.569  0.6997 -0.3624 -0.0869
 8260TIP3    H146271   2.095   1.969  10.529  1.9672  0.7850 -0.9418
 8260TIP3    H246272   2.154   1.830  10.535 -0.1822 -0.1361 -0.3935
 8261TIP3   OH246273   0.296   1.823  12.621 -0.3241 -0.1463  0.6436
 8261TIP3    H146274   0.375   1.810  12.673 -0.5036 -0.9887  0.7189
 8261TIP3    H246275   0.274   1.915  12.634  1.4571  0.4982 -0.5465
 8262TIP3   OH246276   2.672   4.634  11.646  0.3175  0.2587  0.1863
 8262TIP3    H146277   2.576   4.639  11.643  0.2650 -1.0208 -1.0489
 8262TIP3    H246278   2.692   4.541  11.641  1.6490  0.5777 -1.4111
 8263TIP3   OH246279   1.062   4.960  11.848  0.5407  0.2451 -0.1346
 8263TIP3    H146280   1.034   4.907  11.773 -1.4080  0.2292  0.5602
 8263TIP3    H246281   1.059   5.050  11.816  1.0329  0.1570 -0.4511
 8264TIP3   OH246282   5.474   1.712   5.721  0.2697  0.1466  0.3865
 8264TIP3    H146283   5.403   1.675   5.773  1.9270  0.7763  3.2813
 8264TIP3    H246284   5.481   1.803   5.750  0.3171  1.0283 -2.1027
 8265TIP3   OH246285   2.399   3.777   1.444 -0.4721  0.0376 -0.1404
 8265TIP3    H146286   2.346   3.745   1.517 -1.0809 -1.0084 -1.0073
 8265TIP3    H246287   2.336   3.786   1.372  0.3460 -0.2529 -0.9039
 8266TIP3   OH246288   5.003   1.393  14.371  0.2808  0.5621 -0.4584
 8266TIP3    H146289   5.015   1.448  14.449  1.5788 -1.5035  0.9210
 8266TIP3    H246290   5.020   1.304  14.402  0.8383 -0.3597 -3.1252
 8267TIP3   OH246291   1.980   5.000  16.635 -0.0700  0.0622 -0.2927
 8267TIP3    H146292   1.999   4.921  16.686 -1.8110  0.2705  0.7792
 8267TIP3    H246293   2.066   5.033  16.609  0.7240 -1.8185 -0.2099
 8268TIP3   OH246294   3.259   4.586  11.100  0.3651  0.1111 -0.5115
 8268TIP3    H146295   3.200   4.562  11.029  0.0476  1.6848 -0.8153
 8268TIP3    H246296   3.216   4.660  11.144  2.8612  2.5973 -1.9023
 8269TIP3   OH246297   0.560   0.086   4.352  0.4016 -0.1627  0.3087
 8269TIP3    H146298   0.613   0.160   4.380 -0.7617  2.3165 -3.3180
 8269TIP3    H246299   0.470   0.112   4.371  0.0660 -1.4554  0.5721
 8270TIP3   OH246300   4.748   4.273   2.966  0.1273  0.2743 -0.0963
 8270TIP3    H146301   4.800   4.344   3.003  0.4856 -0.5513  1.0653
 8270TIP3    H246302   4.667   4.315   2.938  0.8670  1.3531 -0.7019
 8271TIP3   OH246303   3.553   6.006  15.854 -0.7106 -0.2812  0.1375
 8271TIP3    H146304   3.550   6.021  15.760 -2.3167 -1.8051 -0.1123
 8271TIP3    H246305   3.478   5.949  15.872  0.6456 -1.6098  2.0524
 8272TIP3   OH246306   1.727   3.706   3.519  0.4474 -0.1039  0.2559
 8272TIP3    H146307   1.659   3.771   3.539  0.7768 -0.1105  1.4951
 8272TIP3    H246308   1.684   3.622   3.532 -0.0419 -0.1695 -1.5641
 8273TIP3   OH246309   0.422   5.146  14.116 -0.1558 -0.1798  0.2458
 8273TIP3    H146310   0.499   5.195  14.087 -2.2718  2.8261 -0.8065
 8273TIP3    H246311   0.394   5.098  14.038 -0.5890  0.5010 -0.0222
 8274TIP3   OH246312   4.998   2.513  11.924 -0.1669 -1.0149 -0.3659
 8274TIP3    H146313   4.957   2.528  12.010 -0.2993  0.0457 -0.6106
 8274TIP3    H246314   5.091   2.501  11.944  0.3586  2.2935 -0.2933
 8275TIP3   OH246315   0.972   3.268  15.066 -0.1403  0.0517  0.4042
 8275TIP3    H146316   0.980   3.335  14.999 -2.0457  1.2306  1.2627
 8275TIP3    H246317   1.059   3.264  15.107  0.5456  0.5533 -0.9420
 8276TIP3   OH246318   2.107   2.274   2.109 -0.1759 -0.2788 -0.1407
 8276TIP3    H146319   2.024   2.286   2.155 -0.8495 -2.4097 -0.6977
 8276TIP3    H246320   2.172   2.316   2.166 -1.6329  1.7089  0.1478
 8277TIP3   OH246321   3.941   4.343   0.379 -0.0379  0.1976  0.1245
 8277TIP3    H146322   3.990   4.407   0.430  0.9852  0.3179 -0.9913
 8277TIP3    H246323   3.851   4.377   0.377  0.3796  1.3108  0.0057
 8278TIP3   OH246324   6.693   3.443  15.662  0.6879  0.6261 -0.2417
 8278TIP3    H146325   6.775   3.448  15.614  0.5162  0.7641 -0.5195
 8278TIP3    H246326   6.640   3.380  15.613  0.6324  0.5255 -0.0546
 8279TIP3   OH246327   6.166   2.490   1.521  0.5683  0.0092 -0.1339
 8279TIP3    H146328   6.223   2.562   1.495 -0.0974 -0.1315 -2.1001
 8279TIP3    H246329   6.078   2.528   1.524 -0.0246 -0.9827 -2.6938
 8280TIP3   OH246330   6.706   1.143  12.730 -0.0625 -0.3265 -0.5437
 8280TIP3    H146331   6.758   1.219  12.753  0.1690 -0.7258  0.3041
 8280TIP3    H246332   6.638   1.177  12.672  0.2944  0.4432 -0.5213
 8281TIP3   OH246333   5.329   1.670  13.605  0.3731 -0.3680  0.1977
 8281TIP3    H146334   5.319   1.765  13.608 -0.9338 -0.5212  1.2017
 8281TIP3    H246335   5.423   1.655  13.618  0.7851  0.8127 -1.2035
 8282TIP3   OH246336   0.865   1.002  12.659  0.1961 -0.3515  0.1541
 8282TIP3    H146337   0.789   1.059  12.656  1.1419  1.0188 -3.5234
 8282TIP3    H246338   0.844   0.937  12.727 -2.5159  2.1279  1.9285
 8283TIP3   OH246339   4.087   6.418  16.340 -0.0374  0.2190  0.7362
 8283TIP3    H146340   4.054   6.493  16.391  2.1044  1.3857  0.5427
 8283TIP3    H246341   4.173   6.400  16.379  1.8803  1.3929 -2.5777
 8284TIP3   OH246342   1.387   0.850   0.901 -0.1356 -0.5335  0.6778
 8284TIP3    H146343   1.316   0.913   0.901 -1.3283 -1.8117  0.5438
 8284TIP3    H246344   1.346   0.768   0.870  1.6207 -1.0523 -0.4545
 8285TIP3   OH246345   1.512   2.779  12.918  0.2192  0.0295  0.0640
 8285TIP3    H146346   1.532   2.843  12.850 -0.0034  1.9683  1.7468
 8285TIP3    H246347   1.468   2.829  12.986  0.3745 -1.8531  1.6327
 8286TIP3   OH246348   2.790   1.609  14.710  0.4487  0.4668 -0.4498
 8286TIP3    H146349   2.794   1.514  14.722 -1.1847  0.5258  0.9977
 8286TIP3    H246350   2.699   1.626  14.685  0.5448  1.7010 -0.0250
 8287TIP3   OH246351   3.459   0.694  16.865 -0.6186  0.1318 -0.1029
 8287TIP3    H146352   3.542   0.737  16.843 -0.3760 -0.2469  0.0703
 8287TIP3    H246353   3.455   0.619  16.807 -0.5535 -0.1865  0.3036
 8288TIP3   OH246354   5.190   1.724   2.074 -0.0075  0.7834  0.1816
 8288TIP3    H146355   5.097   1.717   2.093  0.0400 -0.2829  0.0621
 8288TIP3    H246356   5.205   1.667   1.999  0.8747  0.3359  0.6760
 8289TIP3   OH246357   3.372   6.187   1.360  0.2920 -0.0472  0.4051
 8289TIP3    H146358   3.420   6.269   1.364  0.6218 -0.1772 -0.5556
 8289TIP3    H246359   3.384   6.157   1.270  0.3165 -1.2334  0.7920
 8290TIP3   OH246360   3.016   6.542   6.764  0.2971 -0.7523  0.4313
 8290TIP3    H146361   2.937   6.590   6.738  0.4075 -0.5135  0.5298
 8290TIP3    H246362   3.081   6.611   6.777  0.3131 -0.8953  1.0992
 8291TIP3   OH246363   3.186   5.226   1.543 -0.7453 -0.0763  0.1662
 8291TIP3    H146364   3.180   5.253   1.451 -0.6133  1.4988  0.5915
 8291TIP3    H246365   3.238   5.145   1.540  0.3193  0.6013 -1.0496
 8292TIP3   OH246366   1.043   5.797   1.933  0.7653  0.2334 -0.1333
 8292TIP3    H146367   1.017   5.786   2.025  0.4345  1.2112 -0.0946
 8292TIP3    H246368   0.966   5.770   1.883 -0.0904  2.3132 -0.0375
 8293TIP3   OH246369   5.725   2.244  12.796 -0.5104 -0.2915  0.2091
 8293TIP3    H146370   5.748   2.173  12.736 -0.9769 -0.5996  0.3911
 8293TIP3    H246371   5.706   2.200  12.878  2.0071  0.2545  1.1810
 8294TIP3   OH246372   2.493   4.337   2.308  0.0170 -0.0131  0.5189
 8294TIP3    H146373   2.509   4.275   2.379  1.4609  1.6445  1.7294
 8294TIP3    H246374   2.553   4.312   2.239  1.0766  0.4004  1.2676
 8295TIP3   OH246375   2.430   4.852   4.580  0.2275 -0.2627  0.4632
 8295TIP3    H146376   2.460   4.767   4.612  0.6832 -0.0732  0.5572
 8295TIP3    H246377   2.508   4.907   4.583  0.1554 -0.0829 -0.4493
 8296TIP3   OH246378   5.569   5.169  11.958  0.2082 -0.7201 -0.2306
 8296TIP3    H146379   5.538   5.090  11.915 -2.3946 -0.4817  1.0176
 8296TIP3    H246380   5.590   5.229  11.886 -0.2581 -1.6606 -1.1754
 8297TIP3   OH246381   5.531   5.185  17.039  0.3813 -0.0377  0.2702
 8297TIP3    H146382   5.609   5.226  17.002  1.6811 -1.0391  1.7928
 8297TIP3    H246383   5.561   5.100  17.071 -1.4132 -0.5843  0.6388
 8298TIP3   OH246384   3.795   2.267  13.918 -0.2934  0.6775 -0.5124
 8298TIP3    H146385   3.887   2.288  13.938 -0.0736  0.2096 -0.9903
 8298TIP3    H246386   3.744   2.318  13.980  0.3512 -0.3699  0.9352
 8299TIP3   OH246387   6.689   2.542   2.771 -0.6332  0.6338  0.4434
 8299TIP3    H146388   6.625   2.590   2.718  0.1994  0.1212 -1.0789
 8299TIP3    H246389   6.774   2.575   2.741 -0.1404  0.8686  2.0132
 8300TIP3   OH246390   6.467   5.625   5.589  0.2568 -0.1614  0.6510
 8300TIP3    H146391   6.455   5.552   5.650 -2.8287 -1.0934 -0.8487
 8300TIP3    H246392   6.463   5.584   5.502  1.8050  1.4542 -0.2584
 8301TIP3   OH246393   4.305   4.302   4.107  0.1706 -0.2387 -0.9160
 8301TIP3    H146394   4.388   4.257   4.119 -1.1812 -3.3367 -2.0532
 8301TIP3    H246395   4.269   4.309   4.195  1.5269  1.0666 -0.4248
 8302TIP3   OH246396   4.615   5.374  11.176  0.4248  0.1193 -0.1044
 8302TIP3    H146397   4.586   5.310  11.241  0.8973  0.1120  0.1043
 8302TIP3    H246398   4.652   5.322  11.105  1.0195  0.1635  0.1687
 8303TIP3   OH246399   0.341   5.685  12.607 -0.7646 -0.2679 -0.8149
 8303TIP3    H146400   0.291   5.608  12.633 -1.1644 -0.3060 -1.6632
 8303TIP3    H246401   0.402   5.699  12.680 -0.4217 -1.6035 -0.8092
 8304TIP3   OH246402   4.486   0.001   3.640  0.5531  0.0082 -0.4720
 8304TIP3    H146403   4.423   0.001   3.568 -1.2854 -1.9651  1.0004
 8304TIP3    H246404   4.434   0.024   3.717  2.0559  0.1572  0.5460
 8305TIP3   OH246405   1.510   2.429  15.125 -0.5554 -0.2776  0.1122
 8305TIP3    H146406   1.605   2.432  15.118 -0.5511  0.7277  0.4681
 8305TIP3    H246407   1.484   2.358  15.067  0.4473 -0.9113  0.4194
 8306TIP3   OH246408   3.861   5.974   6.227  0.1306  0.5890  0.4966
 8306TIP3    H146409   3.872   5.967   6.133  2.3451 -1.5583  0.8160
 8306TIP3    H246410   3.930   6.035   6.255 -0.7292  1.4805  0.7300
 8307TIP3   OH246411   2.770   4.837   3.425  0.1012 -0.0117 -0.2003
 8307TIP3    H146412   2.860   4.816   3.400 -0.0562 -0.5374 -0.3220
 8307TIP3    H246413   2.718   4.814   3.348 -0.0666  0.9374 -0.3902
 8308TIP3   OH246414   3.395   4.758  11.300 -0.0119 -0.0278 -0.6948
 8308TIP3    H146415   3.383   4.678  11.249 -1.6125  0.5088 -1.2164
 8308TIP3    H246416   3.488   4.779  11.291 -0.1343 -0.2535 -2.9276
 8309TIP3   OH246417   4.737   4.733  13.205  0.0336  0.2706 -0.0268
 8309TIP3    H146418   4.788   4.698  13.132 -0.5221  0.8990 -0.7292
 8309TIP3    H246419   4.668   4.667  13.219  0.3789 -0.0456  0.2000
 8310TIP3   OH246420   6.056   4.581   4.198  0.7138 -0.0381 -0.1295
 8310TIP3    H146421   6.118   4.517   4.232  1.3185  1.6145  2.0393
 8310TIP3    H246422   5.988   4.528   4.156  1.4853 -2.0653  1.0601
 8311TIP3   OH246423   5.826   4.112   0.629 -0.2945  0.8025 -0.0012
 8311TIP3    H146424   5.893   4.045   0.615 -0.7523  0.2695  0.3575
 8311TIP3    H246425   5.790   4.092   0.715 -2.0061  0.1262 -0.8409
 8312TIP3   OH246426   6.826   6.082   1.701  0.2736  0.2194  0.3422
 8312TIP3    H146427   6.868   6.008   1.657 -0.5835 -1.1771  1.7739
 8312TIP3    H246428   6.841   6.157   1.642  0.6544 -1.1907 -1.4435
 8313TIP3   OH246429   3.814   2.289  11.289  0.0575 -0.3916 -0.3627
 8313TIP3    H146430   3.773   2.260  11.207  0.3182  0.3810 -0.7724
 8313TIP3    H246431   3.743   2.287  11.353 -0.2341 -0.6576 -0.6872
 8314TIP3   OH246432   3.432   6.749   3.131  0.0087  0.4216 -0.1860
 8314TIP3    H146433   3.513   6.749   3.183  1.4715  0.9501 -2.3105
 8314TIP3    H246434   3.412   6.842   3.118 -0.0018  0.3085 -1.0122
 8315TIP3   OH246435   3.622   5.654   4.910 -0.3540 -0.4228 -0.1290
 8315TIP3    H146436   3.602   5.595   4.983  0.9210 -2.6681 -1.4433
 8315TIP3    H246437   3.549   5.643   4.849  0.3309 -1.4583 -0.8005
 8316TIP3   OH246438   4.152   0.603   2.512 -0.0614  0.4284  0.4985
 8316TIP3    H146439   4.172   0.697   2.515  0.7797  0.2259  1.6828
 8316TIP3    H246440   4.165   0.580   2.420  0.1464  1.3835  0.2694
 8317TIP3   OH246441   1.935   6.100   3.819  0.1586 -0.4439 -0.0959
 8317TIP3    H146442   1.918   6.194   3.814  2.3943 -0.0485 -1.8617
 8317TIP3    H246443   1.892   6.072   3.900 -2.3252  1.6618 -0.5752
 8318TIP3   OH246444   0.675   0.127   2.327  0.1585 -0.1032 -0.1736
 8318TIP3    H146445   0.709   0.059   2.384 -2.4574  0.3803  2.1662
 8318TIP3    H246446   0.638   0.079   2.252 -0.4793 -1.1816  0.7971
 8319TIP3   OH246447   1.012   0.905   4.843 -0.1466 -0.3817  0.1389
 8319TIP3    H146448   1.015   0.849   4.765  0.0813  1.0703 -0.9305
 8319TIP3    H246449   1.015   0.994   4.808 -1.9333  0.3585  1.7153
 8320TIP3   OH246450   5.005   3.119   3.061 -0.4326 -0.1481  0.3443
 8320TIP3    H146451   4.936   3.122   2.995  0.1570 -3.4738 -0.6071
 8320TIP3    H246452   5.086   3.112   3.011  0.1221 -1.5490  1.3623
 8321TIP3   OH246453   1.527   0.435  16.002 -0.0317  0.2205  0.6273
 8321TIP3    H146454   1.565   0.480  15.927  0.6243 -3.1088 -1.2291
 8321TIP3    H246455   1.593   0.444  16.071  1.0356  0.3072 -0.3776
 8322TIP3   OH246456   6.048   1.849   3.958 -0.4025 -0.2693 -0.4849
 8322TIP3    H146457   6.128   1.897   3.937  0.1616 -1.0270 -0.1075
 8322TIP3    H246458   6.023   1.807   3.876 -1.5193  1.4994 -1.1175
 8323TIP3   OH246459   3.120   4.160   2.844  0.0124 -0.1683 -0.1578
 8323TIP3    H146460   3.169   4.147   2.763  1.2174 -0.8227  0.6529
 8323TIP3    H246461   3.182   4.140   2.914 -1.3115 -0.6846  0.9184
 8324TIP3   OH246462   1.711   5.323   4.266  0.5298  0.2572  0.8336
 8324TIP3    H146463   1.784   5.375   4.300  0.3347  1.1701 -0.0803
 8324TIP3    H246464   1.632   5.367   4.299  0.3658  0.4749  0.1797
 8325TIP3   OH246465   2.462   1.847  14.016  0.2491 -0.2012 -0.3610
 8325TIP3    H146466   2.485   1.865  13.925  0.8806  1.2037  0.0431
 8325TIP3    H246467   2.535   1.797  14.050  0.6684  0.4455 -0.2805
 8326TIP3   OH246468   2.147   3.566   0.979  0.1303  0.2480 -0.3782
 8326TIP3    H146469   2.210   3.576   0.908  1.0195  1.9830  0.5864
 8326TIP3    H246470   2.197   3.524   1.049 -1.0220 -2.4875 -1.0465
 8327TIP3   OH246471   6.201   4.416   5.095  0.2849 -0.5147 -0.1687
 8327TIP3    H146472   6.281   4.410   5.042  0.8887  0.5507  0.5841
 8327TIP3    H246473   6.172   4.325   5.105  1.5066 -0.9341 -0.2996
 8328TIP3   OH246474   5.174   5.843  10.501  0.1755 -1.0924 -0.4733
 8328TIP3    H146475   5.252   5.887  10.537  0.5961 -0.9941 -1.4661
 8328TIP3    H246476   5.148   5.898  10.427 -2.8176  0.7367  1.7153
 8329TIP3   OH246477   4.017   1.850  14.497  0.1756  0.0287  0.1824
 8329TIP3    H146478   4.021   1.844  14.401 -1.9709 -0.1109  0.0725
 8329TIP3    H246479   4.093   1.904  14.520  2.4339 -2.2529 -1.3143
 8330TIP3   OH246480   2.804   3.115   5.276  0.3328  0.0472  1.1214
 8330TIP3    H146481   2.748   3.083   5.347  0.3088 -1.1178  0.5997
 8330TIP3    H246482   2.758   3.091   5.196  1.0001  0.1590  0.6950
 8331TIP3   OH246483   2.511   4.548  11.962  0.0131  0.1827  0.2828
 8331TIP3    H146484   2.424   4.557  12.001  0.0934 -0.5423  0.6346
 8331TIP3    H246485   2.502   4.588  11.875 -0.6198  0.2692  0.3806
 8332TIP3   OH246486   3.846   2.069   2.971 -0.1398 -0.5881  0.6489
 8332TIP3    H146487   3.810   2.140   2.918  1.9272  0.3883  0.4169
 8332TIP3    H246488   3.828   2.096   3.061 -0.9486 -0.6889  0.5238
 8333TIP3   OH246489   1.397   6.737  15.396  0.8526  0.9132 -0.2679
 8333TIP3    H146490   1.464   6.801  15.419  1.5260 -0.2714  1.1945
 8333TIP3    H246491   1.417   6.661  15.450 -0.1444 -0.4113 -1.6857
 8334TIP3   OH246492   5.535   6.284  15.013  0.3895 -0.3952 -0.3660
 8334TIP3    H146493   5.445   6.279  15.045 -0.1650  0.0662 -1.7867
 8334TIP3    H246494   5.532   6.241  14.927  1.7204 -1.1561 -0.0681
 8335TIP3   OH246495   2.372   2.085  15.356  1.0812  0.5356 -0.2651
 8335TIP3    H146496   2.283   2.052  15.372  1.6356 -1.0684 -0.3497
 8335TIP3    H246497   2.401   2.118  15.441  1.6745 -2.1784  0.6836
 8336TIP3   OH246498   2.479   3.920   3.725 -0.1738 -0.2831  0.2102
 8336TIP3    H146499   2.386   3.927   3.704  0.0223  0.3508 -0.5225
 8336TIP3    H246500   2.514   3.860   3.658 -0.0557 -0.5123  0.4768
 8337TIP3   OH246501   4.186   5.336  13.227  0.2157 -0.0055  0.4860
 8337TIP3    H146502   4.112   5.330  13.167  0.7028 -3.7062  0.0771
 8337TIP3    H246503   4.147   5.345  13.314 -0.7300 -1.6029  0.2402
 8338TIP3   OH246504   2.941   2.186   5.537  0.1695  0.5797  0.2242
 8338TIP3    H146505   3.014   2.248   5.538  0.5868  0.0988  0.3094
 8338TIP3    H246506   2.971   2.114   5.594 -0.1742  0.1610 -0.1200
 8339TIP3   OH246507   3.600   4.981  12.990 -0.4770  0.1988  0.1425
 8339TIP3    H146508   3.635   4.917  12.928 -0.6010 -0.2243  0.5006
 8339TIP3    H246509   3.550   4.928  13.053  0.8269  0.4285  1.4375
 8340TIP3   OH246510   0.513   1.061   6.189  0.3605 -0.5459  0.4391
 8340TIP3    H146511   0.554   1.033   6.271 -0.6581  0.2121  1.2423
 8340TIP3    H246512   0.452   1.130   6.215 -0.1744 -0.4623 -0.9336
 8341TIP3   OH246513   0.761   3.450   1.432 -0.1907 -0.6951  0.4149
 8341TIP3    H146514   0.797   3.531   1.469  0.3328  0.4905 -2.4079
 8341TIP3    H246515   0.829   3.384   1.447  0.7942  0.1908 -0.0171
 8342TIP3   OH246516   0.423   1.354   5.638 -0.0089  0.2517  0.4258
 8342TIP3    H146517   0.390   1.432   5.681 -0.6651  1.1489 -1.5712
 8342TIP3    H246518   0.464   1.387   5.558  1.8034 -1.2587  0.6624
 8343TIP3   OH246519   3.355   0.660   0.551  0.4277 -0.9530 -0.3889
 8343TIP3    H146520   3.375   0.753   0.552  0.1647 -0.8949  0.7481
 8343TIP3    H246521   3.261   0.655   0.535  0.2664 -0.9714  0.5055
 8344TIP3   OH246522   0.620   1.834  14.859 -0.1832  0.4723  0.5372
 8344TIP3    H146523   0.674   1.882  14.796 -0.1762 -0.2813 -0.0436
 8344TIP3    H246524   0.669   1.837  14.941  1.8441 -1.9923 -0.4395
 8345TIP3   OH246525   4.982   3.055   2.193  0.1521  0.0024  0.3710
 8345TIP3    H146526   4.976   2.972   2.146 -1.6563 -0.7317  1.7613
 8345TIP3    H246527   5.008   3.031   2.282  0.2816  0.9894  0.6181
 8346TIP3   OH246528   4.901   5.832   0.851 -0.3990 -0.3425  0.2692
 8346TIP3    H146529   4.990   5.819   0.818  1.0474  1.8075  2.8796
 8346TIP3    H246530   4.858   5.748   0.838  2.8557 -2.3237  1.1886
 8347TIP3   OH246531   1.183   2.597  14.644  0.6312 -0.2924 -0.3116
 8347TIP3    H146532   1.183   2.598  14.548 -0.5135 -1.8913 -0.3807
 8347TIP3    H246533   1.093   2.573  14.667  0.8219  0.3597  1.1755
 8348TIP3   OH246534   3.996   6.028  15.818  0.1917 -0.0571  0.4285
 8348TIP3    H146535   3.959   6.100  15.867  1.3518  1.0543 -0.2582
 8348TIP3    H246536   3.928   6.004  15.754  0.4404  1.6339 -0.5172
 8349TIP3   OH246537   4.750   1.431  15.029  0.3056  0.0875  0.2564
 8349TIP3    H146538   4.770   1.352  15.080  0.8234  0.0616  0.0221
 8349TIP3    H246539   4.717   1.398  14.946 -1.9624  0.1276  1.0795
 8350TIP3   OH246540   6.521   2.835  14.973 -0.3043 -0.1413  0.3299
 8350TIP3    H146541   6.486   2.747  14.961 -0.9384  0.2474 -0.8867
 8350TIP3    H246542   6.583   2.846  14.901  1.3635 -0.3240  1.6773
 8351TIP3   OH246543   1.674   3.381   2.359 -0.2397  0.2449  0.9875
 8351TIP3    H146544   1.619   3.458   2.343  1.0804  1.4357  1.8333
 8351TIP3    H246545   1.620   3.323   2.412 -1.2920  0.5543  0.2816
 8352TIP3   OH246546   5.880   5.465  12.328  0.7019  0.4110  0.8602
 8352TIP3    H146547   5.924   5.534  12.378  1.0981  0.1163  0.9180
 8352TIP3    H246548   5.829   5.512  12.262  1.7863  0.7247  0.2169
 8353TIP3   OH246549   2.406   6.425   5.461  0.0800  0.2130 -0.0529
 8353TIP3    H146550   2.485   6.381   5.492 -0.9300 -1.8624 -0.2756
 8353TIP3    H246551   2.336   6.390   5.516 -0.8536  1.1403 -0.6301
 8354TIP3   OH246552   6.157   6.418   6.462 -0.3011 -0.1135  0.2345
 8354TIP3    H146553   6.251   6.417   6.484  0.0378  0.8982 -1.0139
 8354TIP3    H246554   6.140   6.509   6.437 -1.4611 -0.4366 -0.2022
 8355TIP3   OH246555   4.840   0.358   1.673  0.5899  0.3034  0.2540
 8355TIP3    H146556   4.777   0.364   1.602 -1.7213 -1.2318  2.0273
 8355TIP3    H246557   4.913   0.308   1.636 -0.0520  0.4713 -1.3207
 8356TIP3   OH246558   0.479   4.978  15.626  0.0648 -0.0323  0.3354
 8356TIP3    H146559   0.548   5.011  15.568  0.0903 -1.0575 -0.2350
 8356TIP3    H246560   0.397   5.002  15.583  0.0833 -0.6128 -0.0367
 8357TIP3   OH246561   2.433   3.932  16.178  0.1777 -0.1161 -0.1115
 8357TIP3    H146562   2.490   3.983  16.235 -0.9528  0.3700  0.6386
 8357TIP3    H246563   2.434   3.979  16.094  0.0538  0.5058  0.2248
 8358TIP3   OH246564   6.143   3.040   3.698 -0.3207 -0.6023  0.1757
 8358TIP3    H146565   6.128   3.001   3.612 -0.3806  2.4197 -1.3330
 8358TIP3    H246566   6.178   3.127   3.679  0.1366  0.0075  3.2555
 8359TIP3   OH246567   1.963   5.931  15.347 -0.3094  0.1612  0.0729
 8359TIP3    H146568   2.024   5.951  15.418 -0.0564  0.3837 -0.2041
 8359TIP3    H246569   1.877   5.938  15.388 -0.2556  1.9815 -0.0246
 8360TIP3   OH246570   5.625   3.429  16.760 -0.1374  0.1386 -0.1205
 8360TIP3    H146571   5.648   3.403  16.849  2.0681 -0.2256 -0.7412
 8360TIP3    H246572   5.690   3.495  16.737  0.9070 -1.5152 -2.2713
 8361TIP3   OH246573   4.044   5.856   3.841 -0.3164 -0.2756  0.2573
 8361TIP3    H146574   4.042   5.816   3.928  0.0405  0.8664  0.8160
 8361TIP3    H246575   4.077   5.945   3.856  1.7004 -0.6832 -1.2865
 8362TIP3   OH246576   3.591   1.714  16.265  0.0752  0.3606 -0.1018
 8362TIP3    H146577   3.639   1.760  16.333 -0.9931  1.8826 -0.3469
 8362TIP3    H246578   3.546   1.782  16.215 -0.9152 -0.8757 -0.9890
 8363TIP3   OH246579   4.920   5.222   0.071 -0.4039 -0.0659  0.1912
 8363TIP3    H146580   4.855   5.292   0.070 -1.1904 -0.6957  2.1689
 8363TIP3    H246581   4.943   5.212   0.164 -0.0765 -2.1745 -0.0645
 8364TIP3   OH246582   6.067   0.459  16.910 -0.0872  0.1496 -0.0465
 8364TIP3    H146583   5.981   0.420  16.892 -0.3455  0.3511  0.7207
 8364TIP3    H246584   6.112   0.456  16.826 -0.4655 -0.9022 -0.2260
 8365TIP3   OH246585   2.078   5.679   0.905 -0.0806 -0.6061  0.3961
 8365TIP3    H146586   2.142   5.746   0.928 -0.2375 -0.6869  1.0891
 8365TIP3    H246587   2.116   5.635   0.829 -0.2651  0.6613 -0.4444
 8366TIP3   OH246588   3.140   2.449   4.808  0.2113 -0.0884  0.4656
 8366TIP3    H146589   3.095   2.376   4.764 -0.3433  1.0707 -0.9736
 8366TIP3    H246590   3.217   2.408   4.848  0.8888 -1.2177 -1.8044
 8367TIP3   OH246591   5.124   4.051   4.131 -0.0148  0.5505  0.0563
 8367TIP3    H146592   5.126   4.146   4.138 -0.3034  0.5772 -0.1770
 8367TIP3    H246593   5.214   4.027   4.107 -0.1344  0.8391 -0.7177
 8368TIP3   OH246594   1.332   4.387  16.483  0.2205  0.5308 -0.7789
 8368TIP3    H146595   1.248   4.427  16.501  0.2707  0.9000 -1.3327
 8368TIP3    H246596   1.314   4.293  16.482  0.3432  0.4076  1.7683
 8369TIP3   OH246597   1.570   2.273  16.917  0.2056  0.4283 -0.7765
 8369TIP3    H146598   1.482   2.265  16.952  0.1428  3.2902 -0.0293
 8369TIP3    H246599   1.627   2.243  16.989 -0.0901 -2.2813 -1.5775
 8370TIP3   OH246600   5.405   0.888   1.233  0.3091  0.3497  0.4440
 8370TIP3    H146601   5.356   0.924   1.307 -0.9960  0.8062 -0.6082
 8370TIP3    H246602   5.497   0.904   1.255  0.1221 -1.3116  2.8809
 8371TIP3   OH246603   2.151   4.020   5.152 -0.3883 -0.3281  0.6640
 8371TIP3    H146604   2.102   4.029   5.234 -0.3131 -2.4692  0.9959
 8371TIP3    H246605   2.208   4.097   5.150 -1.7557  0.7658  1.6445
 8372TIP3   OH246606   3.284   5.417  12.824 -0.1954 -0.6411 -0.2733
 8372TIP3    H146607   3.233   5.484  12.870  0.6322 -1.9681  2.8021
 8372TIP3    H246608   3.237   5.335  12.841 -0.1682 -1.1626 -2.4072
 8373TIP3   OH246609   6.561   6.135   5.831  0.0055  0.5049  0.1000
 8373TIP3    H146610   6.600   6.082   5.901 -0.3871 -2.0603 -1.4786
 8373TIP3    H246611   6.606   6.106   5.752 -0.3748  2.4734 -0.8914
 8374TIP3   OH246612   6.630   1.563  11.773 -0.0022 -0.2619  0.3147
 8374TIP3    H146613   6.539   1.592  11.766  0.4450  1.1659 -0.0012
 8374TIP3    H246614   6.642   1.502  11.700 -0.2394  0.9223 -0.7440
 8375TIP3   OH246615   4.114   3.643  16.275  0.1362  0.0374 -0.1861
 8375TIP3    H146616   4.135   3.553  16.300  2.6148 -0.2757 -2.8960
 8375TIP3    H246617   4.030   3.636  16.230  0.8908 -1.1865 -1.4673
 8376TIP3   OH246618   6.719   6.076  16.513 -0.4102  0.6723  0.1674
 8376TIP3    H146619   6.683   6.126  16.587 -0.2739  2.1410 -0.7361
 8376TIP3    H246620   6.800   6.039  16.547 -0.6401  0.8463  0.9376
 8377TIP3   OH246621   2.389   6.737  12.744  0.6805 -0.1610  0.3191
 8377TIP3    H146622   2.330   6.803  12.709  2.0674  0.1984 -1.5524
 8377TIP3    H246623   2.451   6.720  12.672  0.0490 -3.9537  0.4406
 8378TIP3   OH246624   0.041   2.805   5.603  0.1670  0.3180 -0.1269
 8378TIP3    H146625   0.085   2.890   5.597 -1.1603  1.1935  1.6730
 8378TIP3    H246626   0.087   2.759   5.673 -0.4083  0.4062  0.3219
 8379TIP3   OH246627   1.335   2.428   1.411  0.4500  0.3490 -0.3289
 8379TIP3    H146628   1.429   2.418   1.429  0.3092  2.5579  2.2609
 8379TIP3    H246629   1.298   2.341   1.428  1.9038 -0.3524 -0.6278
 8380TIP3   OH246630   3.873   0.793  13.510 -0.5826 -0.0553  0.0164
 8380TIP3    H146631   3.961   0.794  13.473 -0.6165  1.6452 -0.1173
 8380TIP3    H246632   3.851   0.700  13.519 -0.1371 -0.5866 -3.1567
 8381TIP3   OH246633   1.088   6.528  12.858 -0.1582  0.0068  0.0528
 8381TIP3    H146634   1.172   6.483  12.867 -0.3922 -0.3359  0.6738
 8381TIP3    H246635   1.096   6.607  12.911  0.9372  1.7996 -2.5955
 8382TIP3   OH246636   3.602   4.318  11.635 -0.3097 -0.8122 -0.1875
 8382TIP3    H146637   3.598   4.304  11.730 -0.7920  1.0482  0.0982
 8382TIP3    H246638   3.694   4.304  11.613  0.1731  0.5431  0.8797
 8383TIP3   OH246639   1.310   0.873   3.514  0.4993  0.0036 -0.0039
 8383TIP3    H146640   1.393   0.874   3.465 -0.4875  0.4758 -1.7619
 8383TIP3    H246641   1.331   0.913   3.598  2.4817 -1.6813  0.3784
 8384TIP3   OH246642   4.187   2.368  16.289  0.3149 -0.0112 -0.5331
 8384TIP3    H146643   4.166   2.311  16.363  1.0404 -1.4984 -1.4181
 8384TIP3    H246644   4.261   2.421  16.320  0.1744 -0.1421  0.0350
 8385TIP3   OH246645   3.659   6.535   4.639  0.5946 -0.0448 -0.3113
 8385TIP3    H146646   3.704   6.595   4.580 -0.2924  0.3252 -0.6257
 8385TIP3    H246647   3.687   6.448   4.609  2.6988  0.1759  0.7977
 8386TIP3   OH246648   6.660   4.409   5.346  0.0636  0.1366 -0.1498
 8386TIP3    H146649   6.573   4.422   5.308  0.1128  1.4079  0.1095
 8386TIP3    H246650   6.644   4.385   5.437 -0.0294  1.7977  0.2980
 8387TIP3   OH246651   0.604   5.656   0.695  0.1894 -0.0308 -0.2647
 8387TIP3    H146652   0.697   5.668   0.680  0.3751 -0.4674  0.4570
 8387TIP3    H246653   0.580   5.579   0.643  0.2559  0.0169 -0.3653
 8388TIP3   OH246654   5.677   3.909  12.301  0.4821  0.0049  0.7243
 8388TIP3    H146655   5.717   3.858  12.372 -0.7563  0.1962  1.5873
 8388TIP3    H246656   5.679   3.999  12.333  0.8787  0.2435  0.0441
 8389TIP3   OH246657   0.717   3.818   6.275 -0.0538  0.1191  0.3707
 8389TIP3    H146658   0.671   3.736   6.257 -1.2863  0.6642  0.8972
 8389TIP3    H246659   0.732   3.856   6.189 -0.7410 -0.0014  0.1898
 8390TIP3   OH246660   2.978   6.120  13.317 -0.3010 -0.2515  0.1692
 8390TIP3    H146661   2.923   6.133  13.394  0.5584 -0.8258  0.9008
 8390TIP3    H246662   2.935   6.051  13.267 -0.2502 -0.6918  0.7307
 8391TIP3   OH246663   2.082   5.133  15.426  0.1284  0.4163 -0.2270
 8391TIP3    H146664   2.051   5.044  15.443 -0.2218  0.7709  1.1456
 8391TIP3    H246665   2.089   5.139  15.331  0.2108 -1.0911 -0.3331
 8392TIP3   OH246666   2.802   2.449   5.340 -0.2785  0.5333 -0.2358
 8392TIP3    H146667   2.822   2.453   5.246  0.8912  1.4504  0.0393
 8392TIP3    H246668   2.883   2.474   5.383 -0.6261 -0.4708  1.0571
 8393TIP3   OH246669   1.538   5.702   3.901 -0.2095 -0.4688  0.3550
 8393TIP3    H146670   1.548   5.796   3.918 -0.9103 -0.2327 -0.4834
 8393TIP3    H246671   1.610   5.681   3.841  0.5664 -0.7062  1.3302
 8394TIP3   OH246672   3.876   0.306  11.764 -0.1722 -0.1639 -0.2518
 8394TIP3    H146673   3.802   0.313  11.824 -0.1475 -1.8755  0.0124
 8394TIP3    H246674   3.856   0.369  11.694  0.5091  3.0092  2.1877
 8395TIP3   OH246675   3.685   0.938   0.075 -0.4845 -0.1615  0.0251
 8395TIP3    H146676   3.611   0.998   0.086 -0.3622 -0.0349  0.1707
 8395TIP3    H246677   3.648   0.851   0.092 -1.0742 -0.3366 -1.9391
 8396TIP3   OH246678   1.536   3.082   4.775 -0.1368  0.6070  0.3656
 8396TIP3    H146679   1.608   3.117   4.828 -0.1184  0.7279  0.2616
 8396TIP3    H246680   1.514   3.154   4.715  1.0748 -0.1488 -1.0522
 8397TIP3   OH246681   3.749   6.225   5.465 -0.1152 -0.0514 -0.3477
 8397TIP3    H146682   3.662   6.189   5.477 -0.2198 -0.1480 -1.3204
 8397TIP3    H246683   3.773   6.261   5.551 -1.1451  0.0606 -0.1031
 8398TIP3   OH246684   4.879   0.248  11.524 -0.0891 -0.4567  0.8838
 8398TIP3    H146685   4.795   0.268  11.566 -0.5716  0.7621 -0.5813
 8398TIP3    H246686   4.883   0.152  11.525 -0.5158 -0.5071  2.7709
 8399TIP3   OH246687   2.558   6.715   4.907 -0.3367 -0.2695  0.5205
 8399TIP3    H146688   2.486   6.736   4.967 -0.3516  1.4293 -0.0341
 8399TIP3    H246689   2.515   6.687   4.827 -0.3921  0.3745  0.3176
 8400TIP3   OH246690   0.233   6.193   0.984 -0.3146  0.4949  0.1738
 8400TIP3    H146691   0.234   6.099   1.003  1.5341  0.9957  3.1865
 8400TIP3    H246692   0.318   6.210   0.944 -0.0305  1.0640  0.9925
 8401TIP3   OH246693   2.997   6.273   4.522 -0.5218  1.0300  0.5889
 8401TIP3    H146694   3.008   6.233   4.608 -0.4335  0.0820  0.1432
 8401TIP3    H246695   2.903   6.272   4.506 -0.4466  0.0551  0.1461
 8402TIP3   OH246696   1.770   6.152  11.610  0.0463  0.0002  0.1207
 8402TIP3    H146697   1.714   6.086  11.570  0.6895  0.2004 -1.1725
 8402TIP3    H246698   1.737   6.235  11.577  3.3402  0.0152 -3.9497
 8403TIP3   OH246699   1.880   0.240   3.435  0.1149 -0.4690 -0.0862
 8403TIP3    H146700   1.873   0.258   3.529  2.3495 -0.9666  0.2460
 8403TIP3    H246701   1.973   0.251   3.416 -0.3668  0.0533 -2.3607
 8404TIP3   OH246702   2.588   4.716   2.225  0.2327  0.1010  0.0405
 8404TIP3    H146703   2.500   4.680   2.237  0.9058 -1.9670 -0.8471
 8404TIP3    H246704   2.633   4.695   2.307 -0.8306  3.8369  1.8122
 8405TIP3   OH246705   2.421   0.526   2.553 -0.1227  0.1104  0.1697
 8405TIP3    H146706   2.373   0.607   2.567 -1.1476 -0.1404 -1.5647
 8405TIP3    H246707   2.511   0.553   2.533 -0.5736  0.8650 -0.8943
 8406TIP3   OH246708   6.198   0.305   4.352 -0.0888 -0.1462  0.0203
 8406TIP3    H146709   6.158   0.379   4.398  0.6667 -0.0116  0.4822
 8406TIP3    H246710   6.159   0.307   4.265  0.7611  1.5175 -0.3711
 8407TIP3   OH246711   2.372   3.683  14.070  0.4832  0.0571 -0.0458
 8407TIP3    H146712   2.304   3.742  14.102 -0.4091 -1.0949  0.2462
 8407TIP3    H246713   2.363   3.604  14.124  1.7708 -0.2907 -0.3007
 8408TIP3   OH246714   3.875   1.864   0.690 -0.3642  0.4783 -0.4783
 8408TIP3    H146715   3.858   1.936   0.630 -1.0092  0.1539 -0.6903
 8408TIP3    H246716   3.796   1.811   0.687 -0.5665  0.6546  0.9333
 8409TIP3   OH246717   0.371   0.211   1.037 -0.4231  0.2476  0.2151
 8409TIP3    H146718   0.345   0.174   0.953 -0.0116  1.0862 -0.2844
 8409TIP3    H246719   0.433   0.147   1.073  1.1905  0.9511 -1.1680
 8410TIP3   OH246720   0.536   4.369   6.179 -0.7496  0.0661  0.2702
 8410TIP3    H146721   0.442   4.369   6.200 -0.5779 -0.2617  1.1105
 8410TIP3    H246722   0.574   4.426   6.245 -0.4842  1.1091 -0.7642
 8411TIP3   OH246723   0.445   4.427   3.765 -0.0027 -0.5134  0.3617
 8411TIP3    H146724   0.389   4.352   3.785  0.5932 -0.6374  1.6432
 8411TIP3    H246725   0.385   4.494   3.733 -0.8893 -0.6699  1.6381
 8412TIP3   OH246726   6.640   0.516   3.966  0.1644 -0.5472  0.5622
 8412TIP3    H146727   6.563   0.543   4.016 -0.0219  0.3066 -0.1589
 8412TIP3    H246728   6.714   0.532   4.025 -0.0787  0.0897  0.6942
 8413TIP3   OH246729   0.934   6.698   5.589 -0.1025  0.1081  0.1562
 8413TIP3    H146730   0.947   6.760   5.661  0.2676 -0.8544  0.9540
 8413TIP3    H246731   0.918   6.614   5.633 -2.3306 -0.0642 -0.8604
 8414TIP3   OH246732   0.283   6.802   3.315 -0.4786  0.1953 -0.2529
 8414TIP3    H146733   0.274   6.714   3.352 -1.0162  0.3230 -0.0679
 8414TIP3    H246734   0.281   6.860   3.390  2.7195  0.2598 -0.0604
 8415TIP3   OH246735   0.237   1.079   4.306 -0.1434  0.0202  0.8490
 8415TIP3    H146736   0.182   1.000   4.309 -1.7028  0.8482 -2.2266
 8415TIP3    H246737   0.196   1.138   4.370 -1.5262 -0.2081  0.2198
 8416TIP3   OH246738   4.557   1.213   1.272 -0.6604 -0.2198  0.0340
 8416TIP3    H146739   4.575   1.148   1.340 -1.3014  0.7090  1.1476
 8416TIP3    H246740   4.461   1.218   1.268 -0.6632 -0.9533 -1.6700
 8417TIP3   OH246741   4.700   1.674   1.266 -0.1735  0.2425  0.6543
 8417TIP3    H146742   4.782   1.680   1.315  0.4882  0.1716 -0.4140
 8417TIP3    H246743   4.696   1.584   1.235  0.2692  0.7039 -0.8234
 8418TIP3   OH246744   3.754   3.686   4.972  0.2899 -0.1160 -0.0760
 8418TIP3    H146745   3.698   3.681   5.050  0.5479 -1.8260  0.0361
 8418TIP3    H246746   3.706   3.637   4.906  0.8635 -0.1183 -0.4944
 8419TIP3   OH246747   4.378   3.515  10.818 -0.0585  0.1502  0.2798
 8419TIP3    H146748   4.415   3.473  10.740  0.4876  1.6964 -0.3425
 8419TIP3    H246749   4.343   3.598  10.785 -1.2457  0.1321  1.4317
 8420TIP3   OH246750   2.109   2.787  13.950  0.5048 -0.2864  0.0644
 8420TIP3    H146751   2.049   2.718  13.979 -0.8019  1.6853  2.3429
 8420TIP3    H246752   2.186   2.778  14.006 -0.3613  1.0444  1.5506
 8421TIP3   OH246753   6.452   4.004   2.807 -0.1842  0.0516  0.8182
 8421TIP3    H146754   6.379   3.986   2.866 -0.4580  0.1616  0.5152
 8421TIP3    H246755   6.501   4.074   2.849 -1.3734  1.3765  0.0835
 8422TIP3   OH246756   4.453   0.164   1.591 -0.8712 -0.2527  0.4208
 8422TIP3    H146757   4.463   0.259   1.594 -0.9806 -0.2026 -0.5073
 8422TIP3    H246758   4.420   0.140   1.678 -0.5688  0.5214  0.7523
 8423TIP3   OH246759   6.736   2.190  13.727 -0.0153 -0.0933  0.9756
 8423TIP3    H146760   6.670   2.243  13.773 -1.1612 -0.5129 -0.1328
 8423TIP3    H246761   6.793   2.255  13.685 -0.7931  0.2796  0.4752
 8424TIP3   OH246762   0.830   3.566  16.425 -0.0235 -0.1482  0.1720
 8424TIP3    H146763   0.741   3.602  16.429 -0.0731 -0.1841 -0.4983
 8424TIP3    H246764   0.858   3.582  16.335  0.4305 -0.6582  0.2169
 8425TIP3   OH246765   5.091   4.222  15.729 -0.1156 -0.2950  0.2517
 8425TIP3    H146766   5.046   4.249  15.809  0.1848 -1.5385  0.8562
 8425TIP3    H246767   5.177   4.262  15.735 -0.4325  0.4334  0.0586
 8426TIP3   OH246768   3.484   4.326  15.217  0.4611 -0.3740  0.2422
 8426TIP3    H146769   3.415   4.392  15.208 -0.0790 -1.0782 -0.9588
 8426TIP3    H246770   3.485   4.307  15.311  2.3198  3.0718  1.0975
 8427TIP3   OH246771   0.418   5.865   0.496 -0.2356 -0.7765  0.4504
 8427TIP3    H146772   0.453   5.902   0.577 -0.6329 -0.9502  0.7063
 8427TIP3    H246773   0.495   5.831   0.450  0.2724  1.1613 -0.2296
 8428TIP3   OH246774   0.719   6.002  13.674 -0.1603  0.4482 -0.1433
 8428TIP3    H146775   0.787   5.946  13.710 -1.4666  0.1329  2.0588
 8428TIP3    H246776   0.763   6.086  13.660  1.0077 -0.1500 -0.2104
 8429TIP3   OH246777   5.034   5.679  14.402 -0.2340 -0.3350  0.3833
 8429TIP3    H146778   4.984   5.760  14.396 -0.0520 -0.2405  0.0568
 8429TIP3    H246779   4.986   5.617  14.347  0.0343 -0.2257  0.0177
 8430TIP3   OH246780   2.088   2.960  16.992  0.0715 -0.2440  0.1275
 8430TIP3    H146781   2.055   2.898  16.927  1.5462 -1.6991  0.6872
 8430TIP3    H246782   2.055   2.927  17.075  0.5361 -0.0490  0.3908
 8431TIP3   OH246783   1.067   1.561  17.045 -0.4672  0.2396 -0.2030
 8431TIP3    H146784   1.132   1.492  17.032 -0.8965  0.0457 -1.4594
 8431TIP3    H246785   1.057   1.602  16.959  0.8899  2.9303  0.7894
 8432TIP3   OH246786   3.031   2.977   3.526  0.2962 -0.4082 -0.7230
 8432TIP3    H146787   3.115   2.953   3.565  0.0614  0.5498  0.4128
 8432TIP3    H246788   3.003   2.898   3.480  0.3232 -1.7885  1.4976
 8433TIP3   OH246789   4.579   6.481  11.824  0.4022 -0.6638 -0.2358
 8433TIP3    H146790   4.504   6.494  11.765  1.3686  1.1445 -1.1569
 8433TIP3    H246791   4.562   6.540  11.897  0.4075 -1.0842  0.1115
 8434TIP3   OH246792   3.162   1.305  12.612  0.1834 -0.0817  0.5454
 8434TIP3    H146793   3.112   1.340  12.539 -0.1561 -0.5877  0.5346
 8434TIP3    H246794   3.240   1.266  12.572 -0.8480 -1.9435  0.2584
 8435TIP3   OH246795   3.379   5.564  15.202  0.0646  0.4711  0.1303
 8435TIP3    H146796   3.451   5.538  15.144 -0.1603  0.6451 -0.2330
 8435TIP3    H246797   3.341   5.641  15.159  0.0051  0.7065  0.6009
 8436TIP3   OH246798   5.771   5.597  11.337  0.3659 -0.0412  0.2504
 8436TIP3    H146799   5.865   5.612  11.342  0.5982 -0.8287 -1.1737
 8436TIP3    H246800   5.750   5.605  11.244 -1.0960  0.7325  0.6040
 8437TIP3   OH246801   2.119   5.745   3.988  0.2673  0.6214  0.0656
 8437TIP3    H146802   2.032   5.775   4.015 -0.1612  0.5289 -1.1492
 8437TIP3    H246803   2.111   5.731   3.893  1.3644 -0.2258  0.0827
 8438TIP3   OH246804   3.690   3.101  16.768  0.1378 -0.0797  0.4521
 8438TIP3    H146805   3.632   3.125  16.840 -0.8843  1.7570 -0.9046
 8438TIP3    H246806   3.725   3.016  16.793 -1.9437 -0.5413  2.0433
 8439TIP3   OH246807   1.925   1.851   4.848 -0.6742 -0.0329  0.4879
 8439TIP3    H146808   1.921   1.943   4.875 -0.5704 -0.2512  1.2886
 8439TIP3    H246809   1.991   1.813   4.906 -0.0570 -0.4180 -0.4417
 8440TIP3   OH246810   6.226   5.866  15.121  0.1251 -0.1496  0.0373
 8440TIP3    H146811   6.179   5.802  15.068  1.2332  1.4597 -3.1354
 8440TIP3    H246812   6.192   5.951  15.092  2.5522  0.9050 -0.0144
 8441TIP3   OH246813   1.395   1.132  15.460 -0.0611  0.3050 -0.0053
 8441TIP3    H146814   1.488   1.120  15.477  0.2186  1.6122 -0.5055
 8441TIP3    H246815   1.373   1.062  15.398  0.5197 -0.1662  0.3122
 8442TIP3   OH246816   2.371   1.350   3.585 -0.1367 -0.0588  0.3298
 8442TIP3    H146817   2.447   1.408   3.572 -0.5143  0.1966 -0.8278
 8442TIP3    H246818   2.361   1.305   3.502 -1.8790  0.6581  0.1150
 8443TIP3   OH246819   3.402   6.082  12.666  0.0134 -0.1005 -0.3585
 8443TIP3    H146820   3.392   6.000  12.617  1.7525  0.5341 -1.8898
 8443TIP3    H246821   3.407   6.150  12.598  1.4206  0.9470  0.7283
 8444TIP3   OH246822   5.936   4.385   0.219  0.2116 -0.0701  0.4466
 8444TIP3    H146823   5.984   4.320   0.270 -0.0257 -0.2443  0.4517
 8444TIP3    H246824   5.969   4.469   0.250  0.2415 -0.1800  0.7169
 8445TIP3   OH246825   6.323   1.254  15.556  0.0265 -0.0831  0.6797
 8445TIP3    H146826   6.312   1.159  15.549 -1.2234  0.0017  1.2989
 8445TIP3    H246827   6.416   1.266  15.575  0.6026 -1.0554 -1.2970
 8446TIP3   OH246828   6.122   0.255  11.336 -0.0655  0.1540  0.6126
 8446TIP3    H146829   6.088   0.184  11.390  0.8893  0.7018  1.9999
 8446TIP3    H246830   6.057   0.325  11.344  0.2918  0.4017  1.4622
 8447TIP3   OH246831   0.768   2.061   0.090  0.2286  0.4487  0.0109
 8447TIP3    H146832   0.684   2.036   0.050 -0.1526  0.4567  0.7892
 8447TIP3    H246833   0.802   2.129   0.033 -0.0795  0.1344 -0.5619
 8448TIP3   OH246834   1.732   1.652  13.729  0.1985  0.5009 -0.5482
 8448TIP3    H146835   1.661   1.630  13.670 -0.6395 -1.9149  1.2185
 8448TIP3    H246836   1.799   1.585  13.714  0.2215  0.1850  0.7808
 8449TIP3   OH246837   0.367   0.867  15.321 -0.0951  0.4212 -0.7977
 8449TIP3    H146838   0.411   0.952  15.331  0.4223  0.2128 -1.2323
 8449TIP3    H246839   0.380   0.823  15.405 -1.1627  1.1349 -0.2506
 8450TIP3   OH246840   0.412   1.690   1.135 -0.6717  0.2843  0.1599
 8450TIP3    H146841   0.384   1.761   1.193  0.9497  0.4178  0.8139
 8450TIP3    H246842   0.493   1.721   1.096 -1.6506  0.1508 -2.1498
 8451TIP3   OH246843   5.797   2.056   4.346 -0.3049 -0.3972 -0.0188
 8451TIP3    H146844   5.818   1.978   4.295 -0.4555  0.8098 -2.0354
 8451TIP3    H246845   5.827   2.129   4.292 -2.2338  1.0332  0.7118
 8452TIP3   OH246846   1.111   4.054  10.999 -0.4088  0.7202  0.2687
 8452TIP3    H146847   1.079   3.964  11.004  0.5334  0.4124  1.2335
 8452TIP3    H246848   1.036   4.108  11.026 -1.5590  0.4061 -2.0707
 8453TIP3   OH246849   5.763   6.631  13.740  0.4723 -0.1760 -0.6234
 8453TIP3    H146850   5.820   6.698  13.778  0.6811 -1.0747  0.7135
 8453TIP3    H246851   5.681   6.639  13.789  0.9618 -1.7721  0.5446
 8454TIP3   OH246852   2.333   4.206   3.878 -0.7668 -0.1000 -0.2414
 8454TIP3    H146853   2.349   4.142   3.808 -0.0868 -0.9852  0.6999
 8454TIP3    H246854   2.371   4.287   3.846 -0.0449 -0.6122 -0.7078
 8455TIP3   OH246855   1.752   5.488   1.124  0.2183 -0.0509  0.2072
 8455TIP3    H146856   1.777   5.424   1.058 -1.7618  0.1232 -0.7852
 8455TIP3    H246857   1.785   5.571   1.090 -1.1445  0.1005 -0.8082
 8456TIP3   OH246858   0.931   4.371  12.163 -0.0356  0.3119  0.0179
 8456TIP3    H146859   0.905   4.363  12.072  1.1863 -0.3621 -0.2876
 8456TIP3    H246860   0.911   4.286  12.202  0.6354  0.1597  0.0485
 8457TIP3   OH246861   2.238   5.972  14.395 -0.2151 -0.4703  0.2914
 8457TIP3    H146862   2.252   5.940  14.485  1.3552  1.1656  0.6671
 8457TIP3    H246863   2.191   5.900  14.352  1.5252 -2.5160  1.5939
 8458TIP3   OH246864   6.003   2.049  11.908  0.5757  0.4852 -0.3188
 8458TIP3    H146865   6.001   2.003  11.824  0.2143 -0.1889  0.0495
 8458TIP3    H246866   5.911   2.057  11.932  0.5978  1.8148 -0.5836
 8459TIP3   OH246867   5.347   4.323  13.768  0.0285 -0.3945 -0.2284
 8459TIP3    H146868   5.269   4.287  13.811 -0.0679  0.4282  0.3043
 8459TIP3    H246869   5.318   4.409  13.735  0.0748 -1.0206 -2.0058
 8460TIP3   OH246870   2.941   0.232   0.686 -0.1982 -0.1229 -0.4076
 8460TIP3    H146871   3.019   0.205   0.735 -1.4116 -1.0138  1.1502
 8460TIP3    H246872   2.926   0.161   0.624 -0.1355 -0.2730 -0.2529
 8461TIP3   OH246873   1.240   3.931   0.331  0.0977  0.1891  0.4716
 8461TIP3    H146874   1.190   3.850   0.317  1.1886 -0.4077 -0.0600
 8461TIP3    H246875   1.286   3.917   0.413  0.7491  0.0089  0.0881
 8462TIP3   OH246876   0.374   6.783   6.388 -0.0065 -0.3833  0.4786
 8462TIP3    H146877   0.318   6.852   6.424  0.7628  0.6662 -0.2795
 8462TIP3    H246878   0.356   6.785   6.294 -2.2856 -3.3355  0.6857
 8463TIP3   OH246879   2.893   5.470   2.400 -0.4083  0.2061  0.1400
 8463TIP3    H146880   2.892   5.378   2.428 -1.0674 -0.2717 -1.3288
 8463TIP3    H246881   2.868   5.519   2.479 -0.5479 -0.9161  0.8234
 8464TIP3   OH246882   1.012   5.426  16.285 -0.7008  0.0719  0.2517
 8464TIP3    H146883   1.083   5.394  16.230 -1.6266 -1.0036 -0.3625
 8464TIP3    H246884   1.043   5.413  16.375  0.8101  1.8065  0.0323
 8465TIP3   OH246885   6.699   1.475   2.088  0.0252  0.1050 -0.3976
 8465TIP3    H146886   6.630   1.501   2.027  0.8578  1.2876 -0.8614
 8465TIP3    H246887   6.676   1.518   2.170 -0.4230 -0.4739 -0.2152
 8466TIP3   OH246888   3.661   1.508   2.000  0.2034  0.0879  0.2777
 8466TIP3    H146889   3.571   1.501   1.969  0.4986 -0.9280 -0.4456
 8466TIP3    H246890   3.668   1.596   2.037 -1.2061  0.0090  0.7823
 8467TIP3   OH246891   6.210   1.314  12.637 -0.1067 -0.1952 -0.0008
 8467TIP3    H146892   6.201   1.241  12.699  1.2385  0.4347  0.9898
 8467TIP3    H246893   6.169   1.388  12.682  2.0436  0.5918  0.7825
 8468TIP3   OH246894   1.358   3.982   5.495 -0.9198  0.4540 -0.6200
 8468TIP3    H146895   1.384   3.972   5.404 -0.0901 -3.2302 -0.1376
 8468TIP3    H246896   1.440   3.980   5.544 -1.4862 -0.7678  0.3417
 8469TIP3   OH246897   6.595   0.134   4.567  0.1759  0.9368  0.3895
 8469TIP3    H146898   6.556   0.202   4.621 -2.8129  0.3346 -0.8111
 8469TIP3    H246899   6.542   0.133   4.487  0.4307 -2.3674  0.1076
 8470TIP3   OH246900   4.296   4.974   3.036 -0.0854 -0.5269 -0.2538
 8470TIP3    H146901   4.303   4.916   3.111 -1.0285 -1.5722 -0.9592
 8470TIP3    H246902   4.270   5.059   3.073 -2.7499 -1.5529  0.4445
 8471TIP3   OH246903   4.408   2.069   3.639  0.2768  0.7588 -0.3640
 8471TIP3    H146904   4.483   2.010   3.631  0.0625  0.6923 -2.6127
 8471TIP3    H246905   4.339   2.028   3.587 -0.0506  2.6736 -1.5781
 8472TIP3   OH246906   3.311   3.039   3.242  0.2459 -0.2773 -0.3159
 8472TIP3    H146907   3.304   3.114   3.300 -1.8770 -0.5408 -0.1287
 8472TIP3    H246908   3.269   2.967   3.290  1.9907 -1.5550 -0.5890
 8473TIP3   OH246909   5.181   6.697   2.228 -0.8788  0.7305 -0.8496
 8473TIP3    H146910   5.264   6.710   2.182  0.6594 -0.0003  1.5192
 8473TIP3    H246911   5.186   6.608   2.262 -1.3874  1.5640  1.6132
 8474TIP3   OH246912   4.049   6.366   1.542  0.5230  0.2307 -0.4256
 8474TIP3    H146913   3.958   6.357   1.516  0.4846  3.2095 -1.6917
 8474TIP3    H246914   4.045   6.407   1.629  0.6770 -0.2127 -0.2051
 8475TIP3   OH246915   5.585   5.107  16.719 -0.4903  0.4862  0.2926
 8475TIP3    H146916   5.534   5.188  16.710 -0.7797  0.3211  0.4385
 8475TIP3    H246917   5.610   5.084  16.630  2.1107  2.3266  0.3999
 8476TIP3   OH246918   6.578   3.097  16.530  0.6723  0.2905  0.3893
 8476TIP3    H146919   6.604   3.085  16.622  2.6210 -1.8565 -0.3380
 8476TIP3    H246920   6.642   3.159  16.495  1.1406 -0.3773  0.0402
 8477TIP3   OH246921   6.171   0.086   0.216  0.4352  0.4361  0.2157
 8477TIP3    H146922   6.084   0.080   0.175  0.2722  3.3679 -0.0232
 8477TIP3    H246923   6.231   0.100   0.143  1.3173 -2.2949  0.3018
 8478TIP3   OH246924   3.718   4.809   1.049 -0.6999 -0.1860  0.0524
 8478TIP3    H146925   3.809   4.815   1.019 -0.9778  0.0206 -0.7877
 8478TIP3    H246926   3.670   4.864   0.988 -1.5864 -1.3896 -0.3628
 8479TIP3   OH246927   4.371   0.314   6.059 -0.4675 -0.2521 -0.0292
 8479TIP3    H146928   4.347   0.355   6.142 -2.2347  0.1034 -0.6721
 8479TIP3    H246929   4.465   0.332   6.050 -0.5997  1.2020  1.0646
 8480TIP3   OH246930   4.548   4.097   0.041 -0.5045  0.4472  0.3956
 8480TIP3    H146931   4.508   4.077   0.126  1.8678 -1.3094  1.2257
 8480TIP3    H246932   4.621   4.156   0.063 -0.1055  0.2928 -0.4773
 8481TIP3   OH246933   1.836   3.436  17.075 -0.7213 -0.8678  0.1736
 8481TIP3    H146934   1.890   3.365  17.039  0.7737  0.7558 -0.9908
 8481TIP3    H246935   1.867   3.514  17.030 -3.3267  0.3524  0.3304
 8482TIP3   OH246936   6.086   4.044  13.698  0.2151  1.0270  0.1909
 8482TIP3    H146937   6.143   3.999  13.759  0.9176  1.2675 -0.2728
 8482TIP3    H246938   6.001   4.000  13.706  0.7597 -0.0738  0.0780
 8483TIP3   OH246939   6.374   3.588   4.260 -0.3405 -0.2966 -0.1971
 8483TIP3    H146940   6.407   3.549   4.180 -1.4470 -1.6972 -0.0028
 8483TIP3    H246941   6.370   3.515   4.323 -2.1595  0.1545  0.2723
 8484TIP3   OH246942   3.166   2.622  12.863 -0.5312 -0.9956  0.2681
 8484TIP3    H146943   3.156   2.555  12.796 -0.4932 -0.1251 -0.6362
 8484TIP3    H246944   3.259   2.620  12.885 -0.1242  0.0602 -1.1936
 8485TIP3   OH246945   2.766   2.620  15.444 -0.4430 -0.0100  0.2764
 8485TIP3    H146946   2.732   2.697  15.399  0.9153  0.9714  0.8639
 8485TIP3    H246947   2.833   2.585  15.385 -0.0399  0.1258  0.6499
 8486TIP3   OH246948   3.836   6.247  16.769  0.1303 -0.3113 -0.1475
 8486TIP3    H146949   3.869   6.159  16.788  0.0281 -0.1922  0.6557
 8486TIP3    H246950   3.742   6.236  16.759  0.1364 -0.3167 -0.1990
 8487TIP3   OH246951   4.401   0.996  14.876  0.0305  0.2457  0.1357
 8487TIP3    H146952   4.455   0.922  14.848 -1.4359 -0.8242  0.0843
 8487TIP3    H246953   4.452   1.037  14.946  1.0393 -0.5505 -0.1055
 8488TIP3   OH246954   5.763   0.059  14.194  0.1481 -0.9247  0.0092
 8488TIP3    H146955   5.690   0.080  14.252 -1.4480 -1.6831 -1.6334
 8488TIP3    H246956   5.738   0.097  14.109  2.4439  0.2203 -0.2289
 8489TIP3   OH246957   6.552   3.074   2.472  0.9795  0.0586  0.1073
 8489TIP3    H146958   6.629   3.081   2.528  1.1553  0.7419 -0.2137
 8489TIP3    H246959   6.486   3.129   2.515  1.3652  1.2298 -0.7578
 8490TIP3   OH246960   6.107   1.361  15.629  0.3923  0.3453  0.3528
 8490TIP3    H146961   6.180   1.333  15.574  0.5361  0.1333  0.6501
 8490TIP3    H246962   6.059   1.424  15.575  0.3210 -0.1335 -0.1574
 8491TIP3   OH246963   3.618   3.053  11.489 -0.1912 -0.5655  0.2985
 8491TIP3    H146964   3.698   3.053  11.436 -0.9630 -0.5741 -0.9276
 8491TIP3    H246965   3.603   3.144  11.511 -1.5818 -0.0471 -2.3195
 8492TIP3   OH246966   4.416   1.402   5.158  0.4095  0.4166  0.2947
 8492TIP3    H146967   4.496   1.370   5.199 -0.1580 -1.5518  0.0055
 8492TIP3    H246968   4.396   1.337   5.090 -0.1820  2.1029 -1.2261
 8493TIP3   OH246969   0.959   1.272  11.808  0.3152  0.0989 -0.2325
 8493TIP3    H146970   1.007   1.350  11.783 -0.1513 -0.2177 -2.2765
 8493TIP3    H246971   0.924   1.238  11.726 -1.6734 -0.8162  0.9248
 8494TIP3   OH246972   5.533   3.034  11.832 -0.2136 -0.0237  0.1708
 8494TIP3    H146973   5.554   3.063  11.743  1.7328 -3.1927 -0.5249
 8494TIP3    H246974   5.468   3.098  11.862 -1.2069  1.0321 -3.5975
 8495TIP3   OH246975   5.438   4.310  11.683  0.0349  0.4250 -0.6497
 8495TIP3    H146976   5.434   4.309  11.588 -1.7314 -0.6549 -0.5968
 8495TIP3    H246977   5.489   4.388  11.704 -0.5212  1.3069 -2.4385
 8496TIP3   OH246978   6.115   2.222   4.599  0.5344 -0.5180  0.2705
 8496TIP3    H146979   6.157   2.159   4.540  0.2534 -1.7278  1.3255
 8496TIP3    H246980   6.024   2.193   4.605  0.1697  0.5414  0.0681
 8497TIP3   OH246981   4.081   6.366   2.447  0.2371  0.2710 -0.9228
 8497TIP3    H146982   4.140   6.437   2.422  1.5231 -0.7349 -0.8290
 8497TIP3    H246983   4.075   6.372   2.542  0.1823  0.3611 -0.9309
 8498TIP3   OH246984   2.575   6.186   2.297 -0.2052 -1.0236 -0.3790
 8498TIP3    H146985   2.534   6.182   2.210 -2.1652  0.7348  0.3750
 8498TIP3    H246986   2.502   6.181   2.358  0.8236  0.7461  1.1038
 8499TIP3   OH246987   3.718   0.340  12.432 -0.2100  0.8036  0.0299
 8499TIP3    H146988   3.697   0.324  12.524  0.3744 -0.0671  0.0185
 8499TIP3    H246989   3.646   0.298  12.384  0.8734 -1.2038  0.0288
 8500TIP3   OH246990   5.827   1.792  13.601 -0.1135 -0.3971 -0.1192
 8500TIP3    H146991   5.779   1.855  13.547 -0.0414 -1.2149 -1.1728
 8500TIP3    H246992   5.851   1.841  13.679 -1.4381  0.4332 -0.1965
 8501TIP3   OH246993   4.373   4.409   0.146 -0.2131 -0.2955  0.2245
 8501TIP3    H146994   4.419   4.470   0.204 -1.1539  0.4715  0.2083
 8501TIP3    H246995   4.420   4.414   0.063 -0.8757  1.2471 -0.1019
 8502TIP3   OH246996   6.153   2.184   6.387 -0.2491  0.1080  0.4349
 8502TIP3    H146997   6.145   2.140   6.303 -0.4427 -0.4167  0.7247
 8502TIP3    H246998   6.068   2.173   6.429 -0.5012  1.2836  0.2675
 8503TIP3   OH246999   5.986   2.030   3.554  0.1203 -0.4811  0.4275
 8503TIP3    H147000   6.008   1.983   3.473  0.8728  0.1472  0.2614
 8503TIP3    H247001   5.975   1.960   3.619 -0.1561 -0.9722 -0.1324
 8504TIP3   OH247002   0.793   2.981  14.069  0.2090  0.4406  0.0742
 8504TIP3    H147003   0.774   3.026  13.987 -0.2212 -0.4161 -0.3166
 8504TIP3    H247004   0.889   2.979  14.073  0.2344  1.2375  0.0254
 8505TIP3   OH247005   2.678   4.083  12.082 -0.1012 -0.5278 -0.8652
 8505TIP3    H147006   2.585   4.062  12.068 -0.2871 -0.8543  0.6305
 8505TIP3    H247007   2.676   4.155  12.146  0.6908 -1.6553  0.4582
 8506TIP3   OH247008   5.146   0.879   0.603  0.5798  0.2620 -0.2778
 8506TIP3    H147009   5.181   0.876   0.514 -0.0866 -0.4177 -0.5313
 8506TIP3    H247010   5.053   0.857   0.593  0.4054  0.5725  0.5425
 8507TIP3   OH247011   6.795   5.236  14.888  0.3001 -0.0810  0.7171
 8507TIP3    H147012   6.833   5.206  14.805 -0.7659 -2.4549  1.0232
 8507TIP3    H247013   6.720   5.179  14.903 -0.8285  1.6825  2.2898
 8508TIP3   OH247014   6.422   0.337   3.063  0.2500 -0.1586 -0.0101
 8508TIP3    H147015   6.376   0.378   3.136 -1.8936 -0.4654 -1.0984
 8508TIP3    H247016   6.423   0.244   3.084  0.5250 -0.1346  0.0853
 8509TIP3   OH247017   4.446   1.867   6.075 -0.1178 -0.3305  0.1904
 8509TIP3    H147018   4.379   1.806   6.105 -0.0251 -0.9176 -0.7909
 8509TIP3    H247019   4.397   1.946   6.053 -0.5242 -0.8324 -0.7386
 8510TIP3   OH247020   1.930   1.841  14.779  0.6586  0.3892  0.5222
 8510TIP3    H147021   1.856   1.879  14.731 -0.4754 -1.1551  0.9516
 8510TIP3    H247022   1.923   1.879  14.867  0.2123  0.0693  0.6302
 8511TIP3   OH247023   0.512   4.892   0.364 -0.0217 -0.0147  0.0440
 8511TIP3    H147024   0.606   4.908   0.364  0.2477 -1.3868  0.8712
 8511TIP3    H247025   0.478   4.947   0.435  0.3830 -0.5966  0.6958
 8512TIP3   OH247026   2.987   6.074  11.648  0.3166 -0.2419  0.3071
 8512TIP3    H147027   2.981   6.170  11.645  1.1978 -0.1783 -2.8441
 8512TIP3    H247028   2.901   6.044  11.617  1.3186 -0.2731 -2.7619
 8513TIP3   OH247029   5.187   3.991  12.118 -0.0273 -0.2549 -0.3866
 8513TIP3    H147030   5.108   4.013  12.069 -0.5113 -2.0735 -0.5075
 8513TIP3    H247031   5.259   4.023  12.063 -0.6143 -0.7754 -1.4949
 8514TIP3   OH247032   1.144   3.799   5.138 -0.0532 -0.4661  0.3633
 8514TIP3    H147033   1.091   3.833   5.210 -0.0368 -2.0781  1.1635
 8514TIP3    H247034   1.166   3.710   5.163  1.3947 -0.5050 -0.8619
 8515TIP3   OH247035   6.339   1.205   1.033 -0.1522  0.1021  0.4758
 8515TIP3    H147036   6.296   1.279   1.076  0.9733  0.8274  0.3985
 8515TIP3    H247037   6.268   1.145   1.012 -1.3824  2.0071 -1.1742
 8516TIP3   OH247038   2.195   0.719   2.806  0.4785  0.1008 -0.0409
 8516TIP3    H147039   2.193   0.636   2.853 -1.1283  0.3070  0.3156
 8516TIP3    H247040   2.103   0.745   2.799  0.8991  1.5110 -0.7547
 8517TIP3   OH247041   6.330   1.901  13.357  0.0127  0.1694 -0.2923
 8517TIP3    H147042   6.240   1.912  13.386  0.7182  2.0395  1.4104
 8517TIP3    H247043   6.355   1.815  13.391 -1.6703 -1.3476 -2.5751
 8518TIP3   OH247044   6.329   2.151   5.341  0.9067 -0.5535 -0.6161
 8518TIP3    H147045   6.272   2.166   5.416  1.9795  1.1468 -0.0967
 8518TIP3    H247046   6.369   2.065   5.357  0.8566 -0.3614  0.5893
 8519TIP3   OH247047   2.527   1.854  10.717  0.1591 -0.1464 -0.7283
 8519TIP3    H147048   2.498   1.770  10.751  2.8877 -0.6309  0.7298
 8519TIP3    H247049   2.551   1.836  10.626 -3.2964  0.1896 -1.8518
 8520TIP3   OH247050   4.201   6.378  13.364  0.4988 -0.4784  0.4414
 8520TIP3    H147051   4.150   6.299  13.347 -2.2100  1.3450 -0.5772
 8520TIP3    H247052   4.230   6.369  13.455 -1.2535 -1.8376  0.9260
 8521TIP3   OH247053   4.918   1.651  13.318 -0.6047  0.1178 -0.3186
 8521TIP3    H147054   4.921   1.555  13.315 -1.7029  0.0481  0.4538
 8521TIP3    H247055   5.010   1.677  13.324 -0.2771 -0.8690 -0.7306
 8522TIP3   OH247056   4.248   5.519   1.584  0.3873  0.2364  0.4338
 8522TIP3    H147057   4.188   5.588   1.615  0.0847 -0.3830  1.2451
 8522TIP3    H247058   4.302   5.498   1.660  1.7393  0.8659 -0.3234
 8523TIP3   OH247059   4.561   6.525   1.395 -0.5003  0.3618  0.1018
 8523TIP3    H147060   4.552   6.614   1.428  1.0782  1.1642 -1.5104
 8523TIP3    H247061   4.569   6.471   1.474  2.1497  2.0745  1.1409
 8524TIP3   OH247062   4.131   3.093   0.715  0.1585 -0.8051  0.2706
 8524TIP3    H147063   4.085   3.029   0.661  1.4389  0.4001 -2.4526
 8524TIP3    H247064   4.072   3.168   0.719 -0.3405 -1.2253  1.4722
 8525TIP3   OH247065   5.389   6.173   4.241 -0.1908 -0.4695  0.1691
 8525TIP3    H147066   5.370   6.079   4.241  1.2156 -0.7821 -1.2969
 8525TIP3    H247067   5.309   6.214   4.207 -0.5509 -1.1942  0.1369
 8526TIP3   OH247068   1.217   2.196  11.862 -0.2585  0.1572  0.0251
 8526TIP3    H147069   1.165   2.271  11.832 -1.0277  0.3472  1.7174
 8526TIP3    H247070   1.201   2.192  11.957 -1.2317 -2.8768 -0.1462
 8527TIP3   OH247071   5.639   0.987   1.013 -0.5304  0.2071 -0.3421
 8527TIP3    H147072   5.681   1.065   1.047  2.0338 -1.0482 -0.3933
 8527TIP3    H247073   5.614   0.936   1.090  0.1969 -0.0954 -0.2996
 8528TIP3   OH247074   1.287   3.622   5.612  0.6192  0.0076  0.4957
 8528TIP3    H147075   1.234   3.575   5.676  2.1537  0.1820  1.9501
 8528TIP3    H247076   1.258   3.713   5.618 -0.6521 -0.2869 -0.5788
 8529TIP3   OH247077   4.755   4.369  12.913 -0.4736 -0.3599  0.3683
 8529TIP3    H147078   4.761   4.315  12.834  0.4695 -0.4148  0.4637
 8529TIP3    H247079   4.724   4.308  12.980 -0.9103 -0.4051  0.1317
 8530TIP3   OH247080   4.249   4.320   1.743  0.0040  0.1575 -0.1364
 8530TIP3    H147081   4.163   4.361   1.744 -0.3508 -0.5118 -1.1605
 8530TIP3    H247082   4.252   4.268   1.824 -0.5718  0.1646 -0.1082
 8531TIP3   OH247083   2.121   6.206   4.166 -0.0601  0.3989  0.0735
 8531TIP3    H147084   2.159   6.210   4.078  1.0442 -0.9692  0.4488
 8531TIP3    H247085   2.188   6.247   4.222  0.1514 -0.5287  0.5209
 8532TIP3   OH247086   3.638   3.144  11.829  0.0000 -0.1324  0.6139
 8532TIP3    H147087   3.562   3.190  11.794  1.1843  1.3732 -0.0600
 8532TIP3    H247088   3.697   3.133  11.754  0.8521 -0.4587  1.3125
 8533TIP3   OH247089   4.494   1.957  12.817  0.0116 -0.1794 -0.5526
 8533TIP3    H147090   4.466   1.994  12.900 -0.3122  2.7665 -1.8394
 8533TIP3    H247091   4.560   2.018  12.784  1.5867 -2.2923 -1.6415
 8534TIP3   OH247092   4.635   3.268  13.027  0.5294 -0.2208 -0.0993
 8534TIP3    H147093   4.563   3.256  12.965  0.1861 -1.2452  0.4805
 8534TIP3    H247094   4.651   3.181  13.063  0.0733  0.4990  1.9787
 8535TIP3   OH247095   3.926   3.966   3.594 -0.2390 -0.0251  0.4513
 8535TIP3    H147096   3.865   3.984   3.665  0.2249  0.9101  0.6219
 8535TIP3    H247097   3.905   4.030   3.527 -0.6302 -0.8599 -0.2442
 8536TIP3   OH247098   5.729   1.705  13.929  0.0675 -0.2497 -0.3660
 8536TIP3    H147099   5.711   1.640  13.861  0.3367 -0.3879 -0.3059
 8536TIP3    H247100   5.646   1.714  13.975 -0.1741 -0.0091 -0.8366
 8537TIP3   OH247101   5.582   3.832   4.140  0.1832 -0.5269  0.3385
 8537TIP3    H147102   5.491   3.833   4.168  0.1958  0.6635  0.3812
 8537TIP3    H247103   5.616   3.918   4.164  0.5949  0.0410 -1.9783
 8538TIP3   OH247104   6.775   3.556  12.564  0.1978  0.2318  0.3086
 8538TIP3    H147105   6.870   3.546  12.558  0.0929 -0.9194  0.3702
 8538TIP3    H247106   6.760   3.649  12.548  1.4215  0.6299  1.2822
 8539TIP3   OH247107   6.596   0.908  10.882  0.0848 -0.4542  0.0473
 8539TIP3    H147108   6.624   0.998  10.871 -0.7174 -0.2210 -0.1902
 8539TIP3    H247109   6.534   0.893  10.810  0.3599 -1.2543 -0.0380
 8540TIP3   OH247110   1.006   4.399  15.125  1.1175 -0.7130  0.1998
 8540TIP3    H147111   1.018   4.358  15.211 -0.4408  0.5315  1.0593
 8540TIP3    H247112   0.940   4.345  15.081  0.4060 -0.2198  0.6249
 8541TIP3   OH247113   5.611   5.067  15.329 -0.3556 -0.5272 -0.0441
 8541TIP3    H147114   5.660   4.984  15.325  0.6741 -0.0476  1.5653
 8541TIP3    H247115   5.642   5.116  15.253  1.2155 -0.5090  0.5723
 8542TIP3   OH247116   5.707   5.567  11.064 -0.2290 -0.1825 -0.0369
 8542TIP3    H147117   5.777   5.521  11.018  0.0288 -0.8184  0.9623
 8542TIP3    H247118   5.639   5.580  10.997 -0.4771 -2.3483 -0.2850
 8543TIP3   OH247119   2.084   2.206  15.487 -0.4467  0.2554 -0.0338
 8543TIP3    H147120   2.086   2.260  15.566  0.3867  0.4841 -0.2096
 8543TIP3    H247121   2.038   2.126  15.514  2.1040 -0.8306  1.4164
 8544TIP3   OH247122   0.918   5.156   0.894 -0.1748  0.6633 -0.1557
 8544TIP3    H147123   0.844   5.164   0.954 -0.0508 -0.4079  0.1695
 8544TIP3    H247124   0.904   5.225   0.829 -0.6181  1.4770  0.7718
 8545TIP3   OH247125   1.933   1.972  15.983  0.3973 -0.2426 -0.0640
 8545TIP3    H147126   2.006   2.026  15.953  0.2920 -1.2682 -2.3664
 8545TIP3    H247127   1.928   1.988  16.077  2.3241  1.3415 -0.1780
 8546TIP3   OH247128   2.201   5.066   4.593 -0.1329 -0.7511 -0.5526
 8546TIP3    H147129   2.222   4.977   4.562  1.3281 -1.0777  1.1720
 8546TIP3    H247130   2.141   5.052   4.666 -0.0213 -0.3056 -0.3733
 8547TIP3   OH247131   1.600   4.080   2.818  0.6028  0.1003  0.0549
 8547TIP3    H147132   1.620   4.135   2.894  2.7211 -0.1626 -0.2480
 8547TIP3    H247133   1.681   4.077   2.768 -0.1627 -1.3376 -1.2075
 8548TIP3   OH247134   2.626   4.055  14.734  0.6559  0.4012 -0.6540
 8548TIP3    H147135   2.545   4.006  14.746  0.2325  1.3532  0.5861
 8548TIP3    H247136   2.609   4.112  14.658  1.1437 -1.2827 -2.0854
 8549TIP3   OH247137   4.481   3.786  14.293 -0.0552 -0.2854 -0.0320
 8549TIP3    H147138   4.457   3.864  14.343  1.6772  0.6647 -0.5843
 8549TIP3    H247139   4.500   3.819  14.205 -0.4247 -1.5121 -0.5918
 8550TIP3   OH247140   5.570   0.317   4.083  0.3528  0.3948 -0.3842
 8550TIP3    H147141   5.498   0.269   4.042  1.0599 -0.7929 -0.2872
 8550TIP3    H247142   5.640   0.315   4.018  0.3181  1.5499 -0.4827
 8551TIP3   OH247143   5.012   6.165   5.734 -0.6462  0.3594 -0.4081
 8551TIP3    H147144   5.030   6.259   5.735  0.7358  0.1083  0.4384
 8551TIP3    H247145   4.943   6.154   5.800 -0.4862  0.7138 -0.1777
 8552TIP3   OH247146   0.959   3.412  16.123  0.0409  0.2855  0.3819
 8552TIP3    H147147   1.023   3.445  16.185  0.9550 -1.5311  0.4677
 8552TIP3    H247148   0.936   3.325  16.155 -0.9502  0.0867 -0.7631
 8553TIP3   OH247149   6.238   5.880  14.326 -0.5928  0.4978  0.2289
 8553TIP3    H147150   6.250   5.802  14.380 -0.1579  0.6344  0.3410
 8553TIP3    H247151   6.198   5.848  14.245 -3.8295  0.6476  1.6277
 8554TIP3   OH247152   5.009   1.761   0.331  0.2245 -0.7214 -0.3915
 8554TIP3    H147153   5.063   1.780   0.408 -0.7096 -0.9288  0.3283
 8554TIP3    H247154   5.073   1.752   0.260  1.1123 -0.5780  0.3552
 8555TIP3   OH247155   1.641   5.744  15.046  0.0216 -0.0126  0.4749
 8555TIP3    H147156   1.662   5.806  14.976 -1.0141  0.6164  0.7059
 8555TIP3    H247157   1.726   5.708  15.072  0.5368  0.5837 -0.3288
 8556TIP3   OH247158   2.866   5.066   1.747 -0.0713 -0.0835 -0.5665
 8556TIP3    H147159   2.873   5.134   1.679 -0.0520 -1.6565 -2.2219
 8556TIP3    H247160   2.913   5.103   1.822  1.3162  1.1026 -1.9378
 8557TIP3   OH247161   4.413   2.214   2.233 -0.0208 -0.3015 -0.6886
 8557TIP3    H147162   4.415   2.251   2.145  3.6997  1.9419  0.1182
 8557TIP3    H247163   4.388   2.288   2.289  1.1179 -0.6941  0.3912
 8558TIP3   OH247164   6.387   5.245  15.858 -0.3114  0.3900  0.7180
 8558TIP3    H147165   6.395   5.179  15.926  0.1879  0.2615  0.5384
 8558TIP3    H247166   6.471   5.291  15.860 -0.1452  0.1299 -0.0734
 8559TIP3   OH247167   0.921   1.583  13.485  0.3583  0.1508  0.0147
 8559TIP3    H147168   0.836   1.595  13.528  0.0186  0.3738 -0.6983
 8559TIP3    H247169   0.964   1.668  13.491  0.8502 -0.1534  1.0191
 8560TIP3   OH247170   6.767   5.581  16.816  0.0208 -0.2294 -0.4560
 8560TIP3    H147171   6.694   5.597  16.755  0.8451  2.3039 -0.8948
 8560TIP3    H247172   6.724   5.553  16.897 -1.1365 -3.1134 -1.8944
 8561TIP3   OH247173   6.084   5.493  11.456  0.0038 -0.7091 -0.3101
 8561TIP3    H147174   6.012   5.513  11.516  2.3755  0.0700  2.5354
 8561TIP3    H247175   6.105   5.578  11.416 -0.5648 -0.9073 -1.0310
 8562TIP3   OH247176   6.105   2.301  11.308 -0.0062 -0.3530  0.1572
 8562TIP3    H147177   6.095   2.244  11.232 -0.0750  0.1227 -0.2001
 8562TIP3    H247178   6.134   2.243  11.378  2.1075 -0.4873 -0.7452
 8563TIP3   OH247179   3.550   0.342  14.423  0.0488  0.4681 -0.3771
 8563TIP3    H147180   3.462   0.334  14.460  0.1992 -1.9569 -0.3903
 8563TIP3    H247181   3.536   0.384  14.338 -0.8184  2.0135  0.4889
 8564TIP3   OH247182   0.044   5.848   1.585  0.3593  0.1487  0.4762
 8564TIP3    H147183   0.139   5.840   1.573  0.4995  1.0190  0.9054
 8564TIP3    H247184   0.009   5.766   1.552  1.0230  0.8836 -2.3366
 8565TIP3   OH247185   4.442   6.269   5.413  0.2752  0.1944 -0.2512
 8565TIP3    H147186   4.465   6.186   5.455 -3.8839 -1.1125 -0.1307
 8565TIP3    H247187   4.396   6.244   5.333 -1.6492  2.3143  0.0837
 8566TIP3   OH247188   2.843   1.163   4.636 -0.2320 -0.3145  0.8159
 8566TIP3    H147189   2.899   1.116   4.697  0.1879  0.1196  0.7695
 8566TIP3    H247190   2.901   1.189   4.564 -0.7116 -0.7807  0.2487
 8567TIP3   OH247191   3.690   6.350  13.950 -0.5585 -0.2106  0.0649
 8567TIP3    H147192   3.666   6.313  13.865 -1.5186  0.3434  0.0760
 8567TIP3    H247193   3.715   6.440  13.931  3.0213 -1.0955 -0.1444
 8568TIP3   OH247194   2.046   2.905   4.604  0.0668 -0.6386  0.0292
 8568TIP3    H147195   2.140   2.887   4.603  0.0389 -0.7866  0.0829
 8568TIP3    H247196   2.040   2.999   4.587  0.2219 -0.6386 -0.0282
 8569TIP3   OH247197   4.961   1.379  13.351  0.2982 -0.2342  0.4051
 8569TIP3    H147198   4.908   1.332  13.416  1.2550  1.1009  2.2147
 8569TIP3    H247199   5.049   1.382  13.388  1.0345  0.0306 -1.2596
 8570TIP3   OH247200   2.772   5.849   3.999 -0.0587  0.6369  0.6491
 8570TIP3    H147201   2.838   5.780   4.007 -0.2026  0.1172 -1.9015
 8570TIP3    H247202   2.817   5.929   4.029  0.6032 -0.2583  2.1453
 8571TIP3   OH247203   0.250   0.946   6.418  0.2335 -0.8258  0.5292
 8571TIP3    H147204   0.261   1.038   6.394  2.5485 -1.5114 -1.4795
 8571TIP3    H247205   0.173   0.945   6.475 -0.2405  2.2443  0.1205
 8572TIP3   OH247206   2.247   1.821  13.171 -0.4235 -0.3422  0.4133
 8572TIP3    H147207   2.181   1.788  13.110 -0.8634  1.7960 -0.3396
 8572TIP3    H247208   2.296   1.886  13.121  1.1078 -0.6091  1.4994
 8573TIP3   OH247209   6.318   3.001   5.533  0.3468  0.6359  0.2336
 8573TIP3    H147210   6.272   3.083   5.554  1.8058  1.6761 -0.4353
 8573TIP3    H247211   6.405   3.029   5.506  0.9844 -1.1855  0.2599
 8574TIP3   OH247212   3.193   1.966   0.657  0.6120 -0.8944  0.5339
 8574TIP3    H147213   3.103   1.965   0.626  0.6248 -1.3336  0.5024
 8574TIP3    H247214   3.200   2.045   0.710  0.6866  0.0857 -0.8729
 8575TIP3   OH247215   5.405   0.685   1.967 -0.0286  0.0419 -0.5493
 8575TIP3    H147216   5.430   0.739   2.041  0.6923  0.3408 -0.9961
 8575TIP3    H247217   5.405   0.595   2.001 -2.9831  0.3976  0.6708
 8576TIP3   OH247218   0.231   4.446   0.211  0.3822 -0.3295  0.0418
 8576TIP3    H147219   0.281   4.500   0.273  0.6079 -1.4918  0.9045
 8576TIP3    H247220   0.181   4.509   0.160  1.8933  0.8135 -0.1177
 8577TIP3   OH247221   5.221   6.261  12.925  0.7477  0.3693  0.7336
 8577TIP3    H147222   5.240   6.199  12.855  0.0826  1.1803 -0.1933
 8577TIP3    H247223   5.297   6.319  12.927 -0.6161  2.4208 -1.6603
 8578TIP3   OH247224   5.748   2.223   0.790  0.6488  0.6773 -0.1930
 8578TIP3    H147225   5.704   2.305   0.812  0.3837  0.7229 -0.8531
 8578TIP3    H247226   5.716   2.203   0.702 -0.4674 -0.9274  0.5337
 8579TIP3   OH247227   2.330   0.970  17.117 -1.0747  0.4090  0.3677
 8579TIP3    H147228   2.353   0.927  17.199 -1.1684 -1.5524 -0.5854
 8579TIP3    H247229   2.341   0.903  17.050 -2.7103  1.4275 -1.0125
 8580TIP3   OH247230   2.900   3.001  10.197  0.7465  0.2557 -0.2977
 8580TIP3    H147231   2.968   3.068  10.193  0.3065  0.7392  0.1490
 8580TIP3    H247232   2.818   3.051  10.201  0.0880 -0.2220 -3.8823
 8581TIP3   OH247233   3.176   4.290   5.718 -0.1731  0.1119 -0.0043
 8581TIP3    H147234   3.109   4.222   5.725 -1.1914  1.1652  1.1178
 8581TIP3    H247235   3.255   4.244   5.693 -0.4775 -1.7092  2.0566
 8582TIP3   OH247236   4.555   1.751   0.685  0.3422  0.1663  0.0750
 8582TIP3    H147237   4.565   1.688   0.757  0.8780  0.2326  0.0622
 8582TIP3    H247238   4.462   1.746   0.661  0.1115  0.3075  0.9204
 8583TIP3   OH247239   3.051   3.232   5.835 -0.5937 -0.3275  0.3161
 8583TIP3    H147240   3.014   3.212   5.921 -0.9082 -0.9515  0.0372
 8583TIP3    H247241   2.977   3.229   5.775 -0.2985 -0.3646 -0.0499
 8584TIP3   OH247242   1.885   3.226   3.809 -0.1823  0.9791 -0.0823
 8584TIP3    H147243   1.971   3.269   3.807  0.2558  0.4658  2.7325
 8584TIP3    H247244   1.830   3.285   3.861 -0.4671 -0.3328  1.1724
 8585TIP3   OH247245   1.109   4.846  14.903  0.1003 -0.0806  0.1751
 8585TIP3    H147246   1.074   4.757  14.908 -1.0066  0.3566  0.6919
 8585TIP3    H247247   1.081   4.877  14.816  0.9935 -0.4329 -0.2419
 8586TIP3   OH247248   4.562   2.464   2.141 -0.1613  0.3744  0.0441
 8586TIP3    H147249   4.471   2.493   2.143 -0.2766  0.0916 -0.7856
 8586TIP3    H247250   4.597   2.489   2.227 -0.9472  0.7043  0.2774
 8587TIP3   OH247251   1.254   5.441  10.868  0.2849  0.1706  0.2354
 8587TIP3    H147252   1.195   5.514  10.888 -0.4025 -0.3337  0.0851
 8587TIP3    H247253   1.220   5.368  10.918  1.0977  0.0001  0.5464
 8588TIP3   OH247254   1.835   5.509   2.111  0.5622 -0.3230 -0.1346
 8588TIP3    H147255   1.805   5.599   2.097 -0.2124 -0.7535 -1.4147
 8588TIP3    H247256   1.754   5.459   2.123  0.8640 -1.1263 -1.2720
 8589TIP3   OH247257   5.222   5.150  16.610  0.2894 -0.4611 -0.5878
 8589TIP3    H147258   5.239   5.192  16.694 -1.5615  1.0928 -0.9356
 8589TIP3    H247259   5.269   5.203  16.546 -0.4560 -0.0572 -0.8118
 8590TIP3   OH247260   3.797   0.913  12.982  0.3370  0.2348 -0.1049
 8590TIP3    H147261   3.827   0.922  13.072 -0.6235  3.4288 -0.0077
 8590TIP3    H247262   3.703   0.925  12.986  0.2471  0.1594 -1.5018
 8591TIP3   OH247263   3.544   5.866   0.936  0.2327 -0.3008  0.2489
 8591TIP3    H147264   3.500   5.902   0.859 -0.3326  1.4474  1.3551
 8591TIP3    H247265   3.590   5.788   0.903 -1.9148 -0.9656 -1.3679
 8592TIP3   OH247266   5.769   4.742  16.733 -0.5151 -0.3873  0.2670
 8592TIP3    H147267   5.687   4.698  16.709 -0.5977  0.6583 -1.6039
 8592TIP3    H247268   5.829   4.671  16.757 -1.1750 -1.3830 -0.9207
 8593TIP3   OH247269   4.193   0.731  13.607  0.1564 -0.6301  0.3148
 8593TIP3    H147270   4.171   0.639  13.621 -0.2103 -0.4462  0.9968
 8593TIP3    H247271   4.144   0.778  13.674 -0.1891  0.1356 -0.4545
 8594TIP3   OH247272   1.252   5.816   5.466 -0.1998  0.4497 -0.2322
 8594TIP3    H147273   1.193   5.781   5.533  0.0148  1.0579  0.2809
 8594TIP3    H247274   1.237   5.910   5.466  0.3067  0.5394 -0.5489
 8595TIP3   OH247275   4.408   5.614   1.365 -0.7355  0.2497  0.1141
 8595TIP3    H147276   4.324   5.611   1.411 -1.1050 -0.4129 -0.5909
 8595TIP3    H247277   4.421   5.707   1.345 -1.1736  0.3863  0.4517
 8596TIP3   OH247278   5.948   5.893  10.422  0.2534 -0.5368 -0.4270
 8596TIP3    H147279   6.027   5.947  10.414  0.4320 -0.7697 -0.2343
 8596TIP3    H247280   5.960   5.822  10.360 -0.6585  0.4479 -1.8119
 8597TIP3   OH247281   5.563   5.534   3.997  0.6244 -0.1016 -0.4564
 8597TIP3    H147282   5.561   5.568   3.907  1.1192 -2.2134 -1.3452
 8597TIP3    H247283   5.641   5.478   3.999 -0.8533 -2.2988  0.3699
 8598TIP3   OH247284   3.992   0.880   3.326 -0.3847  0.6931 -0.3820
 8598TIP3    H147285   4.039   0.953   3.367 -0.1541  0.3043  0.0502
 8598TIP3    H247286   4.044   0.803   3.347 -1.2140  0.2513  0.1239
 8599TIP3   OH247287   1.884   2.907  14.777  0.2154 -0.2478 -0.4929
 8599TIP3    H147288   1.927   2.852  14.842 -0.2351 -0.6915 -0.5619
 8599TIP3    H247289   1.940   2.984  14.769  0.9696 -0.7986 -0.5599
 8600TIP3   OH247290   4.243   4.840   1.829  0.1937 -0.4585  0.1850
 8600TIP3    H147291   4.153   4.869   1.844 -0.1529 -1.8871  0.9776
 8600TIP3    H247292   4.239   4.784   1.752  0.0235 -2.1227  1.3559
 8601TIP3   OH247293   4.811   0.238  13.135 -0.6263 -0.3248  0.3126
 8601TIP3    H147294   4.753   0.313  13.123 -1.5742 -1.2394 -1.0591
 8601TIP3    H247295   4.762   0.163  13.101  0.1588 -1.6513  1.9526
 8602TIP3   OH247296   4.834   1.001  11.322  0.2284 -0.5313  0.0463
 8602TIP3    H147297   4.803   1.090  11.309  0.7830 -0.2888  0.3599
 8602TIP3    H247298   4.760   0.946  11.298  0.2137 -0.0160 -1.1537
 8603TIP3   OH247299   4.894   4.069   5.573 -0.1910  0.4532 -0.2858
 8603TIP3    H147300   4.890   3.983   5.614  0.0181  0.8738  0.6638
 8603TIP3    H247301   4.944   4.056   5.493  1.5666  0.0154  0.8053
 8604TIP3   OH247302   2.046   4.734  11.824 -0.1329  0.6260  0.0211
 8604TIP3    H147303   2.098   4.809  11.797  0.6841 -0.1360 -0.5896
 8604TIP3    H247304   2.067   4.666  11.759 -0.4549 -0.2919  0.8563
 8605TIP3   OH247305   3.173   0.858  12.386  0.1965  0.6133 -0.4298
 8605TIP3    H147306   3.078   0.870  12.377  0.2102 -0.3699 -2.5910
 8605TIP3    H247307   3.182   0.770  12.423  0.2238 -0.4208 -2.7337
 8606TIP3   OH247308   4.074   2.822  14.128 -0.0086 -0.7954 -0.2381
 8606TIP3    H147309   4.039   2.910  14.142 -2.5286 -1.4149 -1.9460
 8606TIP3    H247310   4.080   2.784  14.216  1.0019  0.9956  0.5103
 8607TIP3   OH247311   0.650   0.502   5.224  0.4363  0.6635 -0.3927
 8607TIP3    H147312   0.643   0.597   5.229 -0.9772  0.6625 -1.6958
 8607TIP3    H247313   0.646   0.473   5.315 -0.4792  1.7889 -0.0463
 8608TIP3   OH247314   6.295   6.349  13.015  0.1415  0.5636  0.1148
 8608TIP3    H147315   6.221   6.347  13.075 -0.9491 -1.0251 -1.2010
 8608TIP3    H247316   6.371   6.367  13.071 -1.2898  3.4972  1.3443
 8609TIP3   OH247317   3.528   4.298  16.073  0.3870  0.0213 -0.0574
 8609TIP3    H147318   3.614   4.339  16.069  1.1677 -1.1316  2.4764
 8609TIP3    H247319   3.545   4.205  16.059 -0.6317 -0.0738 -0.7657
 8610TIP3   OH247320   0.490   3.178  15.437  0.3252  0.4700  0.0831
 8610TIP3    H147321   0.413   3.191  15.381 -0.5512  0.9970  1.3667
 8610TIP3    H247322   0.513   3.086  15.424 -2.3094 -0.5475  1.7726
 8611TIP3   OH247323   3.360   3.532   3.792 -0.1053 -0.0355  0.1654
 8611TIP3    H147324   3.266   3.519   3.797 -0.1864 -0.0337 -1.0817
 8611TIP3    H247325   3.381   3.521   3.699  1.1371 -0.1398  0.4432
 8612TIP3   OH247326   5.038   1.228  10.819 -0.2945  0.4413 -0.0462
 8612TIP3    H147327   5.008   1.143  10.852 -0.0817  0.0378 -0.8859
 8612TIP3    H247328   5.126   1.237  10.855  0.3424 -0.4761 -1.3293
 8613TIP3   OH247329   4.335   5.851  15.232 -0.2733 -0.2233  0.4183
 8613TIP3    H147330   4.333   5.873  15.325  1.3249  1.1184  0.1924
 8613TIP3    H247331   4.279   5.917  15.191  0.4557  0.3139  0.2649
 8614TIP3   OH247332   0.662   3.463  16.094  0.3658 -0.6017  0.2991
 8614TIP3    H147333   0.751   3.432  16.112  0.7406  0.4677  0.3424
 8614TIP3    H247334   0.671   3.557  16.080 -0.9518 -0.2233  1.6822
 8615TIP3   OH247335   0.178   4.816   2.543  0.0396 -0.1831 -0.6593
 8615TIP3    H147336   0.094   4.855   2.519  0.1196 -1.1979 -2.8187
 8615TIP3    H247337   0.218   4.793   2.459  1.6897 -1.3307  0.3972
 8616TIP3   OH247338   2.735   6.609   2.126 -0.2369  0.2711  0.7040
 8616TIP3    H147339   2.659   6.566   2.088 -1.0638 -0.4629  3.0066
 8616TIP3    H247340   2.704   6.697   2.148  0.2379  0.6942 -0.2453
 8617TIP3   OH247341   5.849   4.307   3.614  0.3221 -0.3886  0.0779
 8617TIP3    H147342   5.859   4.216   3.642  0.6885 -0.2242  0.5028
 8617TIP3    H247343   5.830   4.355   3.695 -0.9494 -0.2358 -0.2908
 8618TIP3   OH247344   3.453   3.860   1.280 -0.0408  0.3335 -0.4350
 8618TIP3    H147345   3.403   3.941   1.275 -1.7270 -0.5712  0.9086
 8618TIP3    H247346   3.538   3.886   1.315 -0.6649  1.4935  0.2696
 8619TIP3   OH247347   2.549   2.619   3.174  0.1982 -0.3278  0.3306
 8619TIP3    H147348   2.571   2.537   3.130 -1.0405  0.2507 -1.4968
 8619TIP3    H247349   2.519   2.592   3.261  1.3179 -1.6489  0.3391
 8620TIP3   OH247350   4.753   3.917  10.505 -0.1244 -0.1780  0.3193
 8620TIP3    H147351   4.693   3.928  10.430 -0.5102  0.7174  0.7447
 8620TIP3    H247352   4.738   3.828  10.535  0.5422 -0.7987 -1.0992
 8621TIP3   OH247353   0.197   0.553  16.711  0.4104 -0.0286 -0.2248
 8621TIP3    H147354   0.103   0.565  16.696  0.2967  1.0117  1.1631
 8621TIP3    H247355   0.239   0.616  16.653  0.0790  1.9243  1.5146
 8622TIP3   OH247356   2.371   0.511   3.428  0.1180  0.4924 -0.0341
 8622TIP3    H147357   2.440   0.477   3.486 -1.4970  1.2154  2.4408
 8622TIP3    H247358   2.412   0.513   3.341  3.4488  1.5503  1.4025
 8623TIP3   OH247359   0.948   2.500  16.264 -0.0202 -0.3871  0.4267
 8623TIP3    H147360   0.869   2.531  16.219  0.1238 -1.9316 -1.0115
 8623TIP3    H247361   1.019   2.516  16.201  0.1705 -2.7354 -0.0379
 8624TIP3   OH247362   3.159   6.783  10.724 -0.3150 -0.8554  0.3731
 8624TIP3    H147363   3.176   6.760  10.633  1.0577 -0.9992  0.6315
 8624TIP3    H247364   3.152   6.878  10.724  4.2257 -0.2714  0.6349
 8625TIP3   OH247365   0.137   0.004   5.468 -0.2639 -0.0854  0.1402
 8625TIP3    H147366   0.218  -0.012   5.517 -0.3295  0.2609  0.3594
 8625TIP3    H247367   0.094   0.076   5.514  1.3141  2.6377 -2.3005
 8626TIP3   OH247368   4.234   3.166   5.553 -0.2069  0.1394  0.3840
 8626TIP3    H147369   4.208   3.249   5.594 -0.3412  0.6290 -0.6604
 8626TIP3    H247370   4.265   3.191   5.466  1.1339 -0.7495  0.5684
 8627TIP3   OH247371   2.205   6.506   4.495 -0.4267 -1.0505  0.4187
 8627TIP3    H147372   2.273   6.465   4.442  0.8917 -0.1458  1.3573
 8627TIP3    H247373   2.176   6.581   4.443 -0.4861 -1.2550  0.1560
 8628TIP3   OH247374   0.766   0.396   2.461 -0.0004  0.4544  0.4440
 8628TIP3    H147375   0.812   0.339   2.399  0.4751  0.7084  0.5546
 8628TIP3    H247376   0.674   0.388   2.438  0.1940  0.7830 -0.4936
 8629TIP3   OH247377   0.366   3.389   2.432 -0.0513 -0.2853 -0.0454
 8629TIP3    H147378   0.324   3.472   2.411  0.5793  0.2935  0.8906
 8629TIP3    H247379   0.297   3.336   2.473  0.0927  0.6765  1.5396
 8630TIP3   OH247380   3.853   6.549  13.793 -0.1517 -0.8294 -0.1917
 8630TIP3    H147381   3.921   6.546  13.859 -0.4345  0.0912  0.1719
 8630TIP3    H247382   3.899   6.538  13.710  0.2531 -1.6299  0.1369
 8631TIP3   OH247383   1.067   0.637   1.839 -0.2872  0.5793 -0.4870
 8631TIP3    H147384   0.994   0.617   1.780 -1.0905 -0.7408  0.8460
 8631TIP3    H247385   1.136   0.671   1.783 -0.8017 -1.1499 -2.2611
 8632TIP3   OH247386   4.644   4.493  11.674  0.3349  0.2243 -0.3533
 8632TIP3    H147387   4.685   4.488  11.587 -0.4939 -2.6588 -0.6670
 8632TIP3    H247388   4.685   4.423  11.725 -1.0058  0.1816  0.7401
 8633TIP3   OH247389   3.092   2.224  15.539 -0.1183  0.4842  0.1370
 8633TIP3    H147390   3.025   2.268  15.592  0.4192  1.2825  0.1611
 8633TIP3    H247391   3.174   2.243  15.584  0.3393  1.1232 -0.9378
 8634TIP3   OH247392   6.374   5.398   4.603  0.0146 -0.3176 -0.2924
 8634TIP3    H147393   6.428   5.474   4.582 -0.2564 -0.3288 -1.0741
 8634TIP3    H247394   6.370   5.396   4.698 -0.3089  0.8832 -0.2755
 8635TIP3   OH247395   1.538   3.583  15.215 -0.1229 -0.0652 -0.0606
 8635TIP3    H147396   1.584   3.539  15.287  2.5340  0.0612 -1.5648
 8635TIP3    H247397   1.457   3.533  15.205  0.1638 -1.0502  1.9674
 8636TIP3   OH247398   0.672   4.806  15.419 -0.2927 -0.2743  0.4943
 8636TIP3    H147399   0.685   4.827  15.512  2.3397  0.0285  0.1275
 8636TIP3    H247400   0.650   4.713  15.419  0.2539 -0.4215  1.4104
 8637TIP3   OH247401   5.924   5.593  13.252 -0.2344  0.4437  0.3410
 8637TIP3    H147402   5.963   5.626  13.333 -1.8748  2.1131  0.4956
 8637TIP3    H247403   5.842   5.640  13.243 -0.4092 -0.1737 -1.9838
 8638TIP3   OH247404   2.083   3.130   5.436  0.2456  0.2015 -0.1317
 8638TIP3    H147405   2.175   3.104   5.434  0.0083 -0.6322 -1.3535
 8638TIP3    H247406   2.037   3.057   5.396 -1.1308 -0.0156  1.7155
 8639TIP3   OH247407   0.902   0.255   3.419 -0.2781 -0.4525  0.5322
 8639TIP3    H147408   0.923   0.195   3.491 -2.1821 -0.7678  0.8679
 8639TIP3    H247409   0.837   0.208   3.367 -1.5144  1.1483  0.5762
 8640TIP3   OH247410   3.567   6.664  12.902 -0.1105  0.0334  0.2673
 8640TIP3    H147411   3.566   6.624  12.989  2.7733  2.1809  1.4209
 8640TIP3    H247412   3.655   6.647  12.868 -0.3058  1.4700 -1.0876
 8641TIP3   OH247413   1.614   1.472   5.259 -0.3500 -0.6269  0.4159
 8641TIP3    H147414   1.545   1.516   5.310  0.0012  2.5185 -1.5326
 8641TIP3    H247415   1.682   1.539   5.249  1.0468 -2.2056 -1.4027
 8642TIP3   OH247416   5.836   4.823  16.429  0.5869  0.3506  0.1389
 8642TIP3    H147417   5.769   4.767  16.389 -0.2537  0.8199  0.8564
 8642TIP3    H247418   5.828   4.807  16.523 -1.6582  3.7142  0.6846
 8643TIP3   OH247419   6.200   3.019  14.556  0.4120 -0.3408  0.0653
 8643TIP3    H147420   6.268   2.992  14.619  0.1310 -2.6967 -0.5147
 8643TIP3    H247421   6.118   2.991  14.596  0.1638 -1.1126 -0.9256
 8644TIP3   OH247422   5.589   5.138  15.085  0.0561  0.6660 -0.2050
 8644TIP3    H147423   5.634   5.222  15.078 -0.5302  0.8706 -2.0384
 8644TIP3    H247424   5.498   5.157  15.059 -0.1649 -0.4618 -0.3181
 8645TIP3   OH247425   2.995   4.364  15.290 -0.1407  0.5252  0.2815
 8645TIP3    H147426   3.033   4.353  15.377 -0.1379 -1.8319  0.0616
 8645TIP3    H247427   2.903   4.340  15.301 -0.4438  1.4505 -0.1392
 8646TIP3   OH247428   4.542   6.740   5.854 -0.1466  0.0435 -0.0116
 8646TIP3    H147429   4.474   6.788   5.808  0.0136 -1.1959 -1.6249
 8646TIP3    H247430   4.598   6.808   5.892 -0.2779  1.1224 -1.6703
 8647TIP3   OH247431   4.119   6.169   0.243 -0.1825 -0.5560 -0.3938
 8647TIP3    H147432   4.162   6.194   0.161  0.2336  2.0650  0.5528
 8647TIP3    H247433   4.039   6.222   0.245 -0.1571 -0.5490  0.9202
 8648TIP3   OH247434   3.126   0.517   2.554  0.1206 -0.3877  0.4740
 8648TIP3    H147435   3.196   0.502   2.618  1.2889 -0.7320 -0.8347
 8648TIP3    H247436   3.075   0.436   2.556  1.1211 -1.0620 -0.1619
 8649TIP3   OH247437   1.089   5.562   4.250  0.4372  0.2754  0.3784
 8649TIP3    H147438   1.034   5.621   4.302  0.3118  0.3982  0.1062
 8649TIP3    H247439   1.041   5.480   4.246 -0.4881  0.8376 -1.1707
 8650TIP3   OH247440   1.010   2.941  12.370 -0.3002  0.6019 -0.1441
 8650TIP3    H147441   0.932   2.886  12.362  0.2896 -0.3350  0.3387
 8650TIP3    H247442   0.995   2.992  12.449 -0.7081  0.9135 -0.4154
 8651TIP3   OH247443   3.326   5.233  16.073  0.0796  0.3021 -0.2897
 8651TIP3    H147444   3.414   5.263  16.095  0.2739 -0.9960  0.8302
 8651TIP3    H247445   3.338   5.177  15.996 -0.0958  1.8747 -1.5034
 8652TIP3   OH247446   5.810   2.142   4.597  0.6176  0.2174  0.2508
 8652TIP3    H147447   5.807   2.121   4.503  1.0454  0.0241  0.2799
 8652TIP3    H247448   5.847   2.064   4.638 -0.3780 -0.0383  0.6896
 8653TIP3   OH247449   6.609   4.509   1.830 -0.9644 -0.8516 -0.4833
 8653TIP3    H147450   6.697   4.545   1.843 -0.0680 -2.5256 -1.4963
 8653TIP3    H247451   6.561   4.580   1.786  0.1197 -0.1815 -0.6341
 8654TIP3   OH247452   0.902   6.800   5.005  0.1099  0.0534 -0.2368
 8654TIP3    H147453   0.868   6.888   5.016  1.7150  0.6991 -0.0903
 8654TIP3    H247454   0.960   6.806   4.929  0.7640 -0.6900  0.1844
 8655TIP3   OH247455   3.614   3.710  16.054 -0.7749 -0.2811 -0.5262
 8655TIP3    H147456   3.619   3.705  15.959  0.4305 -0.3609 -0.4718
 8655TIP3    H247457   3.523   3.687  16.074 -1.1782  0.2391 -1.6760
 8656TIP3   OH247458   0.770   4.987   0.347  0.0243  0.2787 -0.0938
 8656TIP3    H147459   0.757   4.970   0.254 -1.0100 -2.2641  0.4312
 8656TIP3    H247460   0.864   4.971   0.361 -0.1722 -1.2726 -0.3864
 8657TIP3   OH247461   0.941   0.613  11.610  0.0930  0.0555  0.2761
 8657TIP3    H147462   0.924   0.657  11.693 -0.0765 -1.1525  0.9139
 8657TIP3    H247463   1.025   0.567  11.624 -0.7801 -1.5796  0.4242
 8658TIP3   OH247464   2.044   1.350   2.464 -0.4588  0.0538  0.2438
 8658TIP3    H147465   2.013   1.266   2.498 -1.3922  0.1990 -0.2324
 8658TIP3    H247466   1.980   1.374   2.397 -1.4282  2.1668  1.8128
 8659TIP3   OH247467   4.865   0.815  16.922 -0.3433 -0.0561 -0.0654
 8659TIP3    H147468   4.776   0.847  16.938 -0.4958  1.0897 -2.6241
 8659TIP3    H247469   4.857   0.760  16.844  1.2345  0.3107 -0.5216
 8660TIP3   OH247470   4.327   0.016   4.666 -0.5882 -0.0887 -0.4201
 8660TIP3    H147471   4.419   0.031   4.645 -0.2776  0.2455  1.0111
 8660TIP3    H247472   4.309  -0.073   4.636  0.7857 -0.9192  1.0298
 8661TIP3   OH247473   5.077   2.552  15.855 -0.1791 -0.1442  0.0858
 8661TIP3    H147474   5.015   2.605  15.905 -2.9203 -1.3501 -1.7694
 8661TIP3    H247475   5.058   2.575  15.763  0.7134 -2.0517 -0.6229
 8662TIP3   OH247476   3.021   0.933  11.826 -0.2789 -0.1345  0.7585
 8662TIP3    H147477   3.089   0.903  11.886 -0.4330 -0.9747  0.5391
 8662TIP3    H247478   3.068   0.970  11.752  0.1088 -3.3998 -0.8022
 8663TIP3   OH247479   2.625   2.268  17.039 -0.0603 -0.1634  0.1823
 8663TIP3    H147480   2.703   2.298  16.993 -0.1833 -2.1521 -1.4755
 8663TIP3    H247481   2.560   2.336  17.023  0.7934  0.6395  0.0407
 8664TIP3   OH247482   2.819   1.025  16.627  0.3689 -0.2193  0.4202
 8664TIP3    H147483   2.808   0.935  16.657 -2.2507  0.9547  3.5258
 8664TIP3    H247484   2.906   1.050  16.658  1.1474 -1.5890 -0.5188
 8665TIP3   OH247485   3.733   5.676  14.695 -0.0481  0.4742 -0.0877
 8665TIP3    H147486   3.801   5.742  14.715 -0.5299  0.6179  1.1896
 8665TIP3    H247487   3.781   5.593  14.693  0.6274  0.8501 -2.0419
 8666TIP3   OH247488   2.804   1.679   5.138 -0.1944  0.3189 -0.0575
 8666TIP3    H147489   2.805   1.595   5.093  1.6354  0.2369  0.0738
 8666TIP3    H247490   2.762   1.662   5.222 -2.5300  0.2123 -1.1614
 8667TIP3   OH247491   0.741   5.990  12.799  0.2910  0.3529 -0.5037
 8667TIP3    H147492   0.815   6.005  12.858 -0.6723 -0.8633  1.1075
 8667TIP3    H247493   0.729   5.895  12.799 -1.0075  0.4930 -1.0451
 8668TIP3   OH247494   1.399   3.943   0.061 -0.1162 -0.4980 -0.1651
 8668TIP3    H147495   1.348   4.007   0.011 -0.2309 -0.2346  0.2822
 8668TIP3    H247496   1.350   3.932   0.142  0.6820 -0.0396  0.3861
 8669TIP3   OH247497   3.830   1.894  16.385 -0.2128 -0.3068 -0.4719
 8669TIP3    H147498   3.925   1.899  16.398  0.1163 -0.1342 -2.5028
 8669TIP3    H247499   3.807   1.980  16.349 -1.1143 -0.4255 -0.1834
 8670TIP3   OH247500   2.682   3.682  13.681  0.0096 -0.1722 -0.5531
 8670TIP3    H147501   2.631   3.726  13.748 -0.3074 -0.5520 -0.5414
 8670TIP3    H247502   2.764   3.731  13.676  0.7719 -1.1703  1.3356
 8671TIP3   OH247503   5.243   1.497   6.329 -0.1503  0.4116  0.6190
 8671TIP3    H147504   5.199   1.536   6.253  2.0200  0.4518 -0.6766
 8671TIP3    H247505   5.237   1.564   6.397 -2.8089  0.0811  0.8424
 8672TIP3   OH247506   1.637   6.208  14.123  0.1558 -0.3145  0.0166
 8672TIP3    H147507   1.546   6.203  14.094  0.2066  1.2882 -0.4919
 8672TIP3    H247508   1.676   6.275  14.067  1.9846 -1.8040 -0.6079
 8673TIP3   OH247509   2.141   0.788  11.751 -0.9257 -0.2535  0.2475
 8673TIP3    H147510   2.224   0.835  11.760 -1.6055  0.9724  0.4020
 8673TIP3    H247511   2.123   0.756  11.840 -0.2372 -1.2460  0.0521
 8674TIP3   OH247512   2.286   4.211  12.164  0.3312  0.5220 -0.5960
 8674TIP3    H147513   2.229   4.199  12.240  1.3940  0.6169  0.2436
 8674TIP3    H247514   2.227   4.209  12.089 -0.5529 -1.3616  0.0932
 8675TIP3   OH247515   0.553   3.504   5.534 -0.1821 -0.0493 -0.0388
 8675TIP3    H147516   0.540   3.550   5.617  1.0465  1.0617 -0.4158
 8675TIP3    H247517   0.635   3.541   5.500 -0.6515 -0.4996 -1.7194
 8676TIP3   OH247518   4.485   2.706  13.834 -0.0556 -0.3381 -0.3781
 8676TIP3    H147519   4.431   2.719  13.912 -0.7591 -0.8351 -0.7677
 8676TIP3    H247520   4.562   2.761  13.848 -1.4083  1.7279 -0.5222
 8677TIP3   OH247521   0.536   1.259  13.160 -0.5931 -0.0092 -0.4683
 8677TIP3    H147522   0.625   1.273  13.192  0.2567  0.1257 -2.7172
 8677TIP3    H247523   0.530   1.164  13.148 -0.6420  0.0168 -0.6442
 8678TIP3   OH247524   3.147   0.896  16.001 -0.2480  0.4605  0.4252
 8678TIP3    H147525   3.164   0.917  15.910  0.4396  1.8286  0.8326
 8678TIP3    H247526   3.229   0.914  16.046 -0.8233  0.6744  1.4426
 8679TIP3   OH247527   4.151   3.162   1.316 -0.8072  0.0549 -0.0779
 8679TIP3    H147528   4.142   3.152   1.221 -2.1336  1.7595 -0.1953
 8679TIP3    H247529   4.219   3.100   1.341  0.3597  0.3312 -2.2997
 8680TIP3   OH247530   3.227   4.649   0.182  0.5846 -0.4664 -0.2133
 8680TIP3    H147531   3.207   4.590   0.255  1.7625 -0.6915 -0.0492
 8680TIP3    H247532   3.267   4.592   0.116  0.9462  0.0051 -0.4060
 8681TIP3   OH247533   1.899   6.731  14.386 -0.2907  0.4139 -0.4260
 8681TIP3    H147534   1.935   6.642  14.382 -0.2659  0.3280  1.2249
 8681TIP3    H247535   1.812   6.723  14.345  0.9721  0.3723 -3.3153
 8682TIP3   OH247536   2.290   6.448  16.981  0.1871  0.1262  0.1058
 8682TIP3    H147537   2.364   6.501  16.950  1.8336 -1.9849  0.2138
 8682TIP3    H247538   2.310   6.430  17.073 -0.4612 -0.4647  0.1368
 8683TIP3   OH247539   6.053   5.925  11.619  0.0785 -0.5034 -0.2423
 8683TIP3    H147540   6.050   5.868  11.542  0.8312  0.3136 -0.8817
 8683TIP3    H247541   6.127   5.983  11.604 -1.4630  1.5878 -0.2775
 8684TIP3   OH247542   3.397   3.102   1.117 -0.2951 -0.4291 -0.3779
 8684TIP3    H147543   3.315   3.125   1.073  0.3978  0.9412 -1.0268
 8684TIP3    H247544   3.370   3.053   1.195 -1.9454  2.2736  0.9103
 8685TIP3   OH247545   0.600   4.929  12.082  0.2216 -0.2791  0.0049
 8685TIP3    H147546   0.529   4.867  12.100 -0.2201  0.1071 -0.3938
 8685TIP3    H247547   0.578   4.967  11.997  1.4161 -0.8673 -0.5902
 8686TIP3   OH247548   6.546   3.792  12.295 -0.2633 -0.5247 -0.6366
 8686TIP3    H147549   6.518   3.856  12.360 -0.5423 -1.3605  0.0910
 8686TIP3    H247550   6.600   3.842  12.233  0.7140  0.1334  0.7052
 8687TIP3   OH247551   5.515   3.066   3.299  0.8911  0.2739 -0.3007
 8687TIP3    H147552   5.557   3.024   3.224  1.9230  0.5864  0.0710
 8687TIP3    H247553   5.506   3.158   3.272 -1.1758 -0.1038 -1.0374
 8688TIP3   OH247554   1.300   6.228  12.417  0.1070  0.0404  0.0132
 8688TIP3    H147555   1.250   6.269  12.488 -0.3423  0.1097 -0.3344
 8688TIP3    H247556   1.245   6.155  12.389  1.3835 -1.4707  1.3265
 8689TIP3   OH247557   2.524   4.048   1.516  0.1474 -0.3863  0.8019
 8689TIP3    H147558   2.594   4.060   1.580 -1.3652 -0.5840  2.5641
 8689TIP3    H247559   2.511   3.953   1.512  1.6680 -0.5626 -1.4754
 8690TIP3   OH247560   5.029   0.416   0.449  0.1961 -0.2531 -0.6774
 8690TIP3    H147561   4.934   0.427   0.447  0.2219 -0.1397 -1.7464
 8690TIP3    H247562   5.060   0.454   0.367  1.1374 -0.6009 -0.5055
 8691TIP3   OH247563   5.221   2.474   3.373 -0.2238  0.3191 -0.2322
 8691TIP3    H147564   5.206   2.524   3.453 -2.4464  0.7674 -0.8571
 8691TIP3    H247565   5.146   2.494   3.317  0.6070 -0.9752 -1.9412
 8692TIP3   OH247566   4.702   2.146   2.537  0.7846 -0.1667  0.3798
 8692TIP3    H147567   4.671   2.112   2.453  1.3912 -0.6830  0.3628
 8692TIP3    H247568   4.743   2.072   2.580  0.9205  0.2186  0.9285
 8693TIP3   OH247569   3.888   1.124  14.822 -0.0585  0.7956  0.2966
 8693TIP3    H147570   3.950   1.091  14.757 -0.9829 -0.4392  0.0025
 8693TIP3    H247571   3.930   1.106  14.906  0.3708  0.7899  0.0855
 8694TIP3   OH247572   5.469   5.747   4.141  0.3453  0.8045  0.0614
 8694TIP3    H147573   5.515   5.667   4.113 -1.1388 -0.3776  0.8402
 8694TIP3    H247574   5.507   5.816   4.087  0.2406 -0.7611 -2.1893
 8695TIP3   OH247575   3.073   1.148   6.127  0.0396  0.3049 -0.4910
 8695TIP3    H147576   3.094   1.220   6.186  2.0273 -1.0356  0.5431
 8695TIP3    H247577   3.014   1.091   6.178  1.3185 -0.5716  0.0609
 8696TIP3   OH247578   2.361   5.074   1.311  0.4376 -0.6792 -0.2506
 8696TIP3    H147579   2.347   5.036   1.224 -1.3516  0.6809 -0.6005
 8696TIP3    H247580   2.317   5.159   1.308  2.1253  0.3111  1.3374
 8697TIP3   OH247581   5.504   3.186   1.106 -0.7522 -0.1296  0.2937
 8697TIP3    H147582   5.434   3.123   1.125  2.0906 -4.0339 -0.7059
 8697TIP3    H247583   5.483   3.220   1.019 -1.7911 -0.6399  0.3328
 8698TIP3   OH247584   5.031   5.447   0.886  0.0159  0.2423 -0.0139
 8698TIP3    H147585   5.047   5.356   0.858 -0.8877  0.0356  0.1139
 8698TIP3    H247586   4.970   5.482   0.822 -0.2687  0.5047  0.3971
 8699TIP3   OH247587   5.214   4.030  14.507  0.4509 -0.2563  0.4285
 8699TIP3    H147588   5.303   4.063  14.521 -0.2713  1.4966  1.1303
 8699TIP3    H247589   5.193   4.059  14.418  0.1115  0.5211  0.7523
 8700TIP3   OH247590   6.060   6.228  14.631  0.1495  0.7777  0.6464
 8700TIP3    H147591   6.014   6.296  14.581  0.6618  1.5967  1.2840
 8700TIP3    H247592   6.147   6.265  14.648  1.0411 -0.7126 -0.4571
 8701TIP3   OH247593   4.332   2.453  13.724 -0.5787  0.1805 -0.7153
 8701TIP3    H147594   4.396   2.513  13.686  1.0403 -1.5151 -0.7922
 8701TIP3    H247595   4.265   2.511  13.762  1.7138  2.1158  0.6898
 8702TIP3   OH247596   5.405   0.898  16.963 -0.2599  0.0924 -0.1899
 8702TIP3    H147597   5.465   0.905  16.889 -1.9931 -0.8690 -1.7590
 8702TIP3    H247598   5.390   0.988  16.991  2.2746  0.3509  0.6213
 8703TIP3   OH247599   6.142   1.087  14.255 -0.3988 -0.0902 -0.1378
 8703TIP3    H147600   6.054   1.126  14.248 -1.0672 -1.4076  0.5605
 8703TIP3    H247601   6.132   1.018  14.321  0.6145 -1.7790 -1.6787
 8704TIP3   OH247602   6.040   5.469   1.176  0.1516  0.0663  0.0074
 8704TIP3    H147603   6.121   5.516   1.158  0.2813 -0.2930 -0.3792
 8704TIP3    H247604   6.051   5.385   1.130 -0.6689  0.2328 -0.5069
 8705TIP3   OH247605   2.642   6.833   5.217 -0.1527  0.0306  0.3358
 8705TIP3    H147606   2.589   6.870   5.287  1.2200  0.2472  1.2935
 8705TIP3    H247607   2.637   6.898   5.147 -1.1393  0.0397  0.3965
 8706TIP3   OH247608   2.937   1.070   5.315 -0.3936  0.3117  0.4305
 8706TIP3    H147609   2.879   1.058   5.240 -1.0559 -1.0017  1.1194
 8706TIP3    H247610   2.911   1.002   5.377  3.0391 -1.5219  0.0906
 8707TIP3   OH247611   6.692   1.170  10.790 -0.4723  0.5115 -0.4966
 8707TIP3    H147612   6.778   1.128  10.796 -1.4633 -1.5053  0.4144
 8707TIP3    H247613   6.675   1.175  10.696 -0.6762 -2.0340 -0.6597
 8708TIP3   OH247614   2.845   2.138   4.203 -0.5530 -0.2400  0.5173
 8708TIP3    H147615   2.838   2.047   4.175 -0.0825 -0.2723  0.5061
 8708TIP3    H247616   2.773   2.183   4.157  1.4369  0.1544 -2.4828
 8709TIP3   OH247617   0.976   5.336   4.792 -0.1867  0.0534 -0.1909
 8709TIP3    H147618   0.918   5.312   4.865 -1.1176  1.0285 -0.5770
 8709TIP3    H247619   1.001   5.427   4.811  0.2009  0.0483 -0.6801
 8710TIP3   OH247620   3.148   1.175  16.085 -0.1023  0.7633  0.6498
 8710TIP3    H147621   3.161   1.176  16.180 -1.2158 -0.8559  0.8678
 8710TIP3    H247622   3.232   1.144  16.050  0.1105  0.7599  1.1515
 8711TIP3   OH247623   0.291   3.077   1.270 -0.4475  0.2488 -0.0292
 8711TIP3    H147624   0.212   3.034   1.302 -1.2334  0.2482 -1.8685
 8711TIP3    H247625   0.268   3.110   1.183  1.4071  0.7527 -0.3863
 8712TIP3   OH247626   2.616   3.603   3.795 -0.4508  0.2175  0.5317
 8712TIP3    H147627   2.637   3.666   3.863 -0.2645  1.6122 -0.7536
 8712TIP3    H247628   2.673   3.627   3.722 -0.9763 -0.9209 -0.2776
 8713TIP3   OH247629   4.939   6.236  11.541  0.0624  0.0896  0.0114
 8713TIP3    H147630   4.873   6.304  11.556  1.6501  1.6606  0.1823
 8713TIP3    H247631   4.943   6.187  11.624  0.7402  1.4629  0.8121
 8714TIP3   OH247632   2.127   3.764  16.114 -0.7582  0.1936  0.5361
 8714TIP3    H147633   2.035   3.754  16.136 -1.1175  0.6190 -0.6831
 8714TIP3    H247634   2.174   3.725  16.187 -1.9299 -3.4476 -0.4613
 8715TIP3   OH247635   2.806   4.741  10.957  0.5269  0.8993 -0.0357
 8715TIP3    H147636   2.813   4.822  10.906 -0.7732  0.5299 -0.8638
 8715TIP3    H247637   2.845   4.674  10.900  1.4179  0.8926  0.5633
 8716TIP3   OH247638   4.718   1.602   3.205 -0.4491  0.2121  0.2494
 8716TIP3    H147639   4.741   1.674   3.147  0.5015  0.7195  1.2086
 8716TIP3    H247640   4.626   1.616   3.227  0.1689  2.1809  1.8216
 8717TIP3   OH247641   4.614   4.225   6.498  0.1199 -0.2487 -0.4558
 8717TIP3    H147642   4.629   4.260   6.410  0.4683  0.2315 -0.2117
 8717TIP3    H247643   4.584   4.301   6.549  0.2235 -0.4526 -0.0846
 8718TIP3   OH247644   5.138   1.554  16.164  0.0321 -0.0306  0.1382
 8718TIP3    H147645   5.207   1.617  16.143 -0.2090 -0.1630 -1.1599
 8718TIP3    H247646   5.063   1.582  16.110 -0.5001 -0.6631  0.5373
 8719TIP3   OH247647   5.390   3.381   2.188 -0.4635  0.6710  0.2384
 8719TIP3    H147648   5.344   3.465   2.190 -1.3259  0.2090  0.3433
 8719TIP3    H247649   5.322   3.318   2.165  0.6181  0.2870 -2.2890
 8720TIP3   OH247650   6.762   5.468  12.772  0.5154 -0.2476  0.0116
 8720TIP3    H147651   6.720   5.464  12.686  0.7645 -0.5735 -0.0969
 8720TIP3    H247652   6.691   5.491  12.833  0.1242 -1.0510 -0.1325
 8721TIP3   OH247653   6.624   3.081   3.400  0.0860 -0.4842  0.2566
 8721TIP3    H147654   6.704   3.058   3.353  0.3852 -0.9755  0.9959
 8721TIP3    H247655   6.576   3.137   3.339  1.9448  1.5579  0.5793
 8722TIP3   OH247656   3.026   3.053  13.384  0.3536 -0.3215  0.3681
 8722TIP3    H147657   3.005   3.124  13.323 -1.8795  0.8650  2.3349
 8722TIP3    H247658   2.995   2.974  13.341 -0.2085  0.3341 -0.4785
 8723TIP3   OH247659   1.166   3.355  11.019  0.3222 -0.1040  0.6256
 8723TIP3    H147660   1.090   3.395  11.062  0.0441  0.6455 -0.5147
 8723TIP3    H247661   1.151   3.370  10.926  0.9037 -1.6964  0.2510
 8724TIP3   OH247662   3.403   5.846   3.211  0.1837  0.5719  0.8079
 8724TIP3    H147663   3.432   5.784   3.277  0.5122 -0.7862 -0.5687
 8724TIP3    H247664   3.310   5.859   3.230  0.3719  0.5255  1.7813
 8725TIP3   OH247665   1.683   6.630  15.013 -0.0714  0.1194  0.0543
 8725TIP3    H147666   1.681   6.680  14.932 -0.7004  0.8365  0.5064
 8725TIP3    H247667   1.777   6.616  15.030  0.1211  1.2202 -0.0381
 8726TIP3   OH247668   1.356   0.839  13.702 -0.6413 -0.1669 -0.2516
 8726TIP3    H147669   1.385   0.753  13.733 -0.8015 -0.3880 -0.7187
 8726TIP3    H247670   1.348   0.891  13.782 -0.6200 -0.6071  0.0400
 8727TIP3   OH247671   4.459   6.792  11.199 -1.3276  0.4080  0.7135
 8727TIP3    H147672   4.379   6.838  11.174 -0.0944  0.9732 -2.7551
 8727TIP3    H247673   4.515   6.797  11.122  0.2138 -4.1892  1.2010
 8728TIP3   OH247674   4.766   3.104   4.794  0.4579 -0.4797 -0.6920
 8728TIP3    H147675   4.690   3.144   4.835  0.9493  0.0514 -0.2935
 8728TIP3    H247676   4.816   3.178   4.758  1.3090 -0.7376 -0.0602
 8729TIP3   OH247677   3.644   6.017  13.291 -0.0041 -0.3335 -0.5558
 8729TIP3    H147678   3.638   5.927  13.259  1.3057 -0.6630  0.0687
 8729TIP3    H247679   3.715   6.056  13.240  1.3638 -0.5365  1.1118
 8730TIP3   OH247680   4.965   3.525  10.894  0.7575 -0.0393 -0.1252
 8730TIP3    H147681   4.900   3.538  10.825  0.9776 -0.8240 -0.4855
 8730TIP3    H247682   5.032   3.470  10.854  0.3278 -1.4779  1.0503
 8731TIP3   OH247683   0.668   6.581   2.859  0.1038 -0.1386  0.0394
 8731TIP3    H147684   0.642   6.654   2.803  2.2567  0.8947  0.2632
 8731TIP3    H247685   0.677   6.507   2.799 -0.0830  0.3173 -0.5670
 8732TIP3   OH247686   1.902   3.773   2.099 -0.1765 -0.1572  0.4676
 8732TIP3    H147687   1.930   3.705   2.160 -0.7293  0.1649  1.0859
 8732TIP3    H247688   1.969   3.771   2.030  0.2185 -0.8192  0.8514
 8733TIP3   OH247689   5.269   4.607  13.962 -0.0778 -0.2066  0.2535
 8733TIP3    H147690   5.347   4.594  13.908 -0.1197 -2.3534  0.6363
 8733TIP3    H247691   5.303   4.627  14.049 -0.0139  1.3924 -0.0958
 8734TIP3   OH247692   0.133   6.252   4.327  0.5268  0.6017  0.4567
 8734TIP3    H147693   0.170   6.179   4.277 -0.2764  0.1237  0.5453
 8734TIP3    H247694   0.043   6.258   4.297  0.5935  1.5943  0.4242
 8735TIP3   OH247695   1.795   2.400  14.846 -0.4915 -0.4067 -0.3442
 8735TIP3    H147696   1.876   2.349  14.855 -0.4902 -1.0602 -3.0786
 8735TIP3    H247697   1.730   2.336  14.816 -1.8140  0.3002  0.9022
 8736TIP3   OH247698   2.094   3.759   4.219 -0.5279  0.3411 -0.0115
 8736TIP3    H147699   2.086   3.853   4.232 -1.1373  0.1664  0.9254
 8736TIP3    H247700   2.181   3.748   4.178 -0.4135  1.2879 -0.0392
 8737TIP3   OH247701   5.551   5.027   5.756  0.1678  0.2180  0.1582
 8737TIP3    H147702   5.564   4.938   5.724  0.0886  0.3521 -0.2545
 8737TIP3    H247703   5.487   5.065   5.696  0.7553  0.7842 -0.1201
 8738TIP3   OH247704   1.959   3.724  15.566  0.2496 -0.2359  0.5774
 8738TIP3    H147705   1.993   3.809  15.539  1.6533 -0.8202  0.3768
 8738TIP3    H247706   2.029   3.686  15.619 -0.9235 -0.7004  1.8713
 8739TIP3   OH247707   1.604   3.930   0.400 -0.2471  0.1254  0.2231
 8739TIP3    H147708   1.632   3.957   0.487 -1.3796  0.4334  0.5093
 8739TIP3    H247709   1.512   3.906   0.410 -0.9341  1.9011 -1.2110
 8740TIP3   OH247710   5.775   4.830  10.971 -0.1573  0.3718  0.2130
 8740TIP3    H147711   5.712   4.820  11.043 -0.4690 -1.1598 -0.2521
 8740TIP3    H247712   5.847   4.772  10.995  0.7847  1.5875  0.3928
 8741TIP3   OH247713   2.660   2.863   1.138  0.0605  0.0931  0.4465
 8741TIP3    H147714   2.628   2.822   1.218 -0.5148  1.0946  0.7582
 8741TIP3    H247715   2.752   2.882   1.155 -0.0393  0.2316  0.8534
 8742TIP3   OH247716   4.951   0.362   3.154 -0.0731 -0.7028  0.1604
 8742TIP3    H147717   4.865   0.322   3.141  0.8052 -2.1500 -1.7040
 8742TIP3    H247718   4.980   0.385   3.066  1.1352  0.4944  0.8374
 8743TIP3   OH247719   3.811   4.174   2.822  0.6810  0.0012 -0.3368
 8743TIP3    H147720   3.790   4.109   2.890 -0.8663 -1.0377 -1.7442
 8743TIP3    H247721   3.872   4.129   2.764  1.2999  0.5848 -0.1612
 8744TIP3   OH247722   4.893   1.833  12.291  0.7824  0.1237 -0.3757
 8744TIP3    H147723   4.949   1.761  12.321  0.3632 -0.3645 -0.7620
 8744TIP3    H247724   4.861   1.873  12.372  2.2285  0.8513 -0.1253
 8745TIP3   OH247725   1.664   5.481  11.505  0.3233  0.2347 -0.2556
 8745TIP3    H147726   1.569   5.490  11.510  0.3227  1.3067 -1.5078
 8745TIP3    H247727   1.684   5.403  11.557 -1.2880 -0.3306 -0.4261
 8746TIP3   OH247728   0.807   0.953   2.220  0.6406 -0.3271  0.2371
 8746TIP3    H147729   0.860   0.923   2.146  0.4541 -0.4681  0.1624
 8746TIP3    H247730   0.728   0.988   2.180  0.8999  0.3608  0.3169
 8747TIP3   OH247731   5.574   1.176  12.301 -0.2781  0.0520  0.2736
 8747TIP3    H147732   5.670   1.178  12.302 -0.2874  1.7493  1.1760
 8747TIP3    H247733   5.549   1.236  12.231 -0.6866  0.2353  0.5713
 8748TIP3   OH247734   3.552   4.338  12.954  0.4156 -0.2706  0.0477
 8748TIP3    H147735   3.580   4.268  13.013 -0.3226  0.0805  0.8291
 8748TIP3    H247736   3.479   4.300  12.905 -0.0562 -0.0200  0.5487
 8749TIP3   OH247737   5.808   3.850   5.220 -0.1028 -0.0547  0.0988
 8749TIP3    H147738   5.874   3.802   5.271 -0.5706 -3.2885 -1.9857
 8749TIP3    H247739   5.727   3.840   5.270 -0.4163 -2.5933 -0.7471
 8750TIP3   OH247740   5.386   3.154  14.658 -0.0264 -0.0456  0.9036
 8750TIP3    H147741   5.416   3.153  14.567 -0.4162 -0.2459  0.7727
 8750TIP3    H247742   5.412   3.069  14.693 -0.7583 -0.3716  0.6784
 8751TIP3   OH247743   1.957   2.009   0.267  0.3222  0.0210  0.1285
 8751TIP3    H147744   1.930   2.026   0.357  0.7207 -1.8828  0.6420
 8751TIP3    H247745   1.880   1.971   0.225 -0.2722  2.0587 -0.7450
 8752TIP3   OH247746   0.878   2.714   4.435 -0.6664  0.1378 -0.2620
 8752TIP3    H147747   0.816   2.689   4.504  2.4462 -3.4016  1.6522
 8752TIP3    H247748   0.942   2.769   4.479  0.7493 -1.2427 -0.4824
 8753TIP3   OH247749   5.050   4.015   5.190 -0.4160 -0.3161 -0.0752
 8753TIP3    H147750   4.973   3.966   5.218 -1.4935  1.8956  1.0295
 8753TIP3    H247751   5.100   4.030   5.270  0.1657 -0.0111 -0.4804
 8754TIP3   OH247752   2.543   2.964  11.639  0.0176  0.4827  0.5627
 8754TIP3    H147753   2.477   2.931  11.578  0.8244  2.0430 -1.2440
 8754TIP3    H247754   2.624   2.923  11.612  0.1604  0.1075  1.5129
 8755TIP3   OH247755   5.091   5.335  14.562  0.0045  0.4047 -0.2797
 8755TIP3    H147756   5.035   5.386  14.620 -1.4774 -0.6438 -0.7346
 8755TIP3    H247757   5.094   5.247  14.601  0.3468  0.1304 -0.8976
 8756TIP3   OH247758   0.031   4.550   5.790 -0.2895  0.2881 -0.3513
 8756TIP3    H147759   0.123   4.526   5.781 -0.3330 -0.0230  0.0182
 8756TIP3    H247760  -0.016   4.488   5.734 -0.6150 -2.0280  2.2506
 8757TIP3   OH247761   1.724   3.305   5.906  0.3704  0.1107  0.0314
 8757TIP3    H147762   1.659   3.334   5.969 -0.2147 -1.3069  0.1087
 8757TIP3    H247763   1.773   3.236   5.951 -1.1301 -2.1199 -1.5301
 8758TIP3   OH247764   6.553   3.327   1.565  0.6717 -0.0406  0.1402
 8758TIP3    H147765   6.606   3.301   1.640  2.0874 -0.1859 -0.8697
 8758TIP3    H247766   6.571   3.420   1.554  0.6221 -0.0638 -0.1406
 8759TIP3   OH247767   1.799   6.817   3.669 -0.1661 -0.3257  0.4886
 8759TIP3    H147768   1.819   6.890   3.728 -0.7647  2.2341 -2.2511
 8759TIP3    H247769   1.723   6.775   3.710 -0.8305  1.6096  1.4001
 8760TIP3   OH247770   5.508   1.598  16.918  0.1739 -0.9061  0.0499
 8760TIP3    H147771   5.577   1.599  16.984  2.1212 -1.1480 -1.8556
 8760TIP3    H247772   5.511   1.509  16.882  0.3458 -0.3082 -1.4908
 8761TIP3   OH247773   1.524   2.616  16.693  0.5121 -0.5591 -0.1626
 8761TIP3    H147774   1.472   2.659  16.625  0.3598 -0.8536 -0.2348
 8761TIP3    H247775   1.526   2.524  16.666  3.4889 -0.1474 -1.7825
 8762TIP3   OH247776   6.324   3.304   6.252  0.3065  0.2622 -0.4749
 8762TIP3    H147777   6.252   3.340   6.200 -0.1114  1.0720  0.6175
 8762TIP3    H247778   6.311   3.209   6.249 -0.6069  0.3811 -0.5847
 8763TIP3   OH247779   1.991   4.530   1.225 -0.2683  0.1682  0.3480
 8763TIP3    H147780   1.919   4.479   1.186  0.5747  0.2891 -1.4859
 8763TIP3    H247781   1.991   4.612   1.176 -0.2957  1.1055  1.8820
 8764TIP3   OH247782   2.955   5.455   6.416  0.0746  0.5836 -0.3430
 8764TIP3    H147783   3.042   5.415   6.411 -0.8318 -1.5536 -0.0902
 8764TIP3    H247784   2.901   5.403   6.358 -1.3939  0.8729  0.7028
 8765TIP3   OH247785   3.137   6.688   3.342 -0.5478  0.0827 -0.1267
 8765TIP3    H147786   3.093   6.705   3.426 -0.0294  0.2416  0.1131
 8765TIP3    H247787   3.200   6.759   3.333 -1.3478  0.6946 -1.1789
 8766TIP3   OH247788   4.171   1.358   3.142 -0.2680  0.2793 -0.0881
 8766TIP3    H147789   4.228   1.319   3.208  0.1768 -0.3198 -0.8119
 8766TIP3    H247790   4.097   1.296   3.135  0.1059 -0.1104 -0.7501
 8767TIP3   OH247791   3.236   1.582   1.257 -0.0244 -0.6140 -0.1864
 8767TIP3    H147792   3.274   1.498   1.231  2.0917  0.1652  0.1996
 8767TIP3    H247793   3.300   1.647   1.228 -1.3508  0.8449  0.0160
 8768TIP3   OH247794   2.397   3.453  11.109  0.0962 -0.4001  0.5171
 8768TIP3    H147795   2.382   3.532  11.161  0.0535  0.6680 -1.0539
 8768TIP3    H247796   2.354   3.383  11.159 -2.3576  1.0454  0.5791
 8769TIP3   OH247797   3.813   4.610   4.489  0.4567 -0.0544 -0.4573
 8769TIP3    H147798   3.741   4.631   4.548  1.0526  1.1957 -0.1382
 8769TIP3    H247799   3.771   4.571   4.412 -0.4451 -0.3867  0.1975
 8770TIP3   OH247800   0.510   6.035  13.256  0.0031  0.7453 -0.3286
 8770TIP3    H147801   0.503   6.129  13.273 -1.3499  0.7027 -0.5327
 8770TIP3    H247802   0.482   6.025  13.165 -0.4232  0.0898 -0.1344
 8771TIP3   OH247803   5.881   4.120  11.127 -0.1892  0.4914  0.0513
 8771TIP3    H147804   5.857   4.209  11.155 -0.5921  0.9329 -1.5733
 8771TIP3    H247805   5.871   4.122  11.032 -2.2968 -1.8933  0.1066
 8772TIP3   OH247806   1.513   3.592   0.370  0.2161 -0.2089  0.2376
 8772TIP3    H147807   1.592   3.614   0.320  0.1135 -0.9110 -0.2575
 8772TIP3    H247808   1.452   3.560   0.303  0.1281 -1.3170  0.8396
 8773TIP3   OH247809   3.148   1.837  11.113  0.0877  0.0480 -0.1261
 8773TIP3    H147810   3.221   1.779  11.135 -0.0963  0.3164  1.2621
 8773TIP3    H247811   3.184   1.898  11.048  0.9346 -0.1700  0.1355
 8774TIP3   OH247812   4.830   0.399   1.222  0.1653  0.2548 -0.4155
 8774TIP3    H147813   4.919   0.424   1.197  0.4418  0.4250  0.7001
 8774TIP3    H247814   4.795   0.354   1.145  1.0109  0.6957 -1.0700
 8775TIP3   OH247815   1.187   0.055  16.754 -0.4724 -0.0527 -0.0820
 8775TIP3    H147816   1.212  -0.029  16.715 -0.3191  0.2557 -0.6561
 8775TIP3    H247817   1.152   0.031  16.840 -1.0525 -0.7706 -0.4993
 8776TIP3   OH247818   0.217   6.151   1.518 -0.2457  0.1269 -0.8682
 8776TIP3    H147819   0.230   6.059   1.497  1.3710 -0.5299  2.2681
 8776TIP3    H247820   0.237   6.198   1.437 -1.0826 -2.2374 -2.5339
 8777TIP3   OH247821   5.350   2.028   2.621 -0.3062  0.1954 -0.5143
 8777TIP3    H147822   5.413   2.011   2.551 -0.4981 -0.0188 -0.6362
 8777TIP3    H247823   5.404   2.048   2.698 -0.0471 -1.5218 -0.2153
 8778TIP3   OH247824   6.746   5.081  12.043 -0.1897  0.0735  0.1886
 8778TIP3    H147825   6.764   5.010  12.103  0.1389  0.0297  0.0397
 8778TIP3    H247826   6.684   5.044  11.980 -1.4089  0.4497  1.1438
 8779TIP3   OH247827   0.659   0.087  11.524 -0.2468 -0.6900  0.6559
 8779TIP3    H147828   0.665   0.152  11.454  0.3973 -0.4967  0.8816
 8779TIP3    H247829   0.565   0.073  11.535 -0.4017  0.2093  0.6052
 8780TIP3   OH247830   6.730   3.386   1.829  0.0351  0.1683 -0.1081
 8780TIP3    H147831   6.707   3.478   1.840  0.0752  0.0552  1.0788
 8780TIP3    H247832   6.821   3.380   1.858  0.2483 -0.1352 -0.8073
 8781TIP3   OH247833   4.057   1.352   4.046 -0.4521 -0.1068  0.4394
 8781TIP3    H147834   3.993   1.376   3.979  0.0618  0.7711  0.2373
 8781TIP3    H247835   4.131   1.412   4.031  0.6619 -1.4681  0.3040
 8782TIP3   OH247836   4.022   0.200  16.722  0.4985  0.6600  0.0411
 8782TIP3    H147837   4.087   0.260  16.688 -0.9229  1.4202 -1.4900
 8782TIP3    H247838   3.991   0.152  16.645 -2.2612  1.8512  0.2989
 8783TIP3   OH247839   6.498   0.863  15.872 -0.3053  0.1770 -0.4008
 8783TIP3    H147840   6.588   0.878  15.842 -0.3369  0.7567 -0.2186
 8783TIP3    H247841   6.491   0.913  15.953 -1.1858  1.2451 -1.0925
 8784TIP3   OH247842   3.487   2.235   5.940  0.0525  0.2675 -0.0112
 8784TIP3    H147843   3.530   2.214   6.023 -0.9590 -1.7158  0.0577
 8784TIP3    H247844   3.560   2.252   5.880  0.8597 -0.5235  0.7106
 8785TIP3   OH247845   3.676   1.969   3.438 -0.6987  0.6012  0.7136
 8785TIP3    H147846   3.723   1.928   3.365  0.3636  2.3393  0.3660
 8785TIP3    H247847   3.736   1.962   3.512 -1.5617 -0.6883  1.3340
 8786TIP3   OH247848   6.214   2.595  14.052 -0.7065  0.2628  0.2369
 8786TIP3    H147849   6.121   2.602  14.073 -0.7413 -0.2528  0.2562
 8786TIP3    H247850   6.230   2.501  14.043 -0.6526  0.4211 -1.8126
 8787TIP3   OH247851   1.948   4.726  16.771 -0.0978  0.3405 -0.0186
 8787TIP3    H147852   2.003   4.648  16.770 -1.6876 -0.8271 -1.7990
 8787TIP3    H247853   1.909   4.727  16.859  0.2871 -0.6091  0.1730
 8788TIP3   OH247854   3.524   2.722  14.531 -0.5614 -0.0869  0.7035
 8788TIP3    H147855   3.537   2.804  14.579 -1.5975  0.0859  0.7130
 8788TIP3    H247856   3.581   2.729  14.455  0.9400 -0.2630  1.7742
 8789TIP3   OH247857   6.143   2.609  12.421  0.2077 -0.5517 -0.4682
 8789TIP3    H147858   6.081   2.666  12.375  1.7109  1.3636 -0.2610
 8789TIP3    H247859   6.202   2.578  12.352  0.4337 -0.4379 -0.3261
 8790TIP3   OH247860   5.135   4.894  15.282 -0.1724 -0.0205  0.5741
 8790TIP3    H147861   5.049   4.904  15.322 -0.7665  1.8386 -1.0204
 8790TIP3    H247862   5.118   4.846  15.201  0.1103  1.1273 -0.1946
 8791TIP3   OH247863   2.462   5.245   0.438 -0.7112  0.2891 -0.1123
 8791TIP3    H147864   2.509   5.300   0.375 -2.8219 -0.0548 -2.1043
 8791TIP3    H247865   2.524   5.175   0.458  0.4939  1.1178 -0.7726
 8792TIP3   OH247866   5.697   1.920   1.595 -0.7282  0.0369 -0.4900
 8792TIP3    H147867   5.683   2.011   1.622 -2.9762 -0.6836  1.1436
 8792TIP3    H247868   5.627   1.903   1.531 -1.2399 -0.9050  0.2842
 8793TIP3   OH247869   1.566   0.949   1.738  0.0064 -0.0164  0.1712
 8793TIP3    H147870   1.513   0.967   1.660 -1.9726 -0.8974  1.2373
 8793TIP3    H247871   1.523   0.997   1.808  0.6266 -0.7529  1.0814
 8794TIP3   OH247872   2.627   5.982  17.070  0.0549 -0.2780 -0.3726
 8794TIP3    H147873   2.566   6.047  17.036 -0.7131  0.3100  1.9791
 8794TIP3    H247874   2.714   6.017  17.049 -0.3550  0.0607 -1.6135
 8795TIP3   OH247875   2.989   6.333  14.630 -0.1373 -0.1785  0.5836
 8795TIP3    H147876   2.979   6.352  14.536 -0.4797 -0.5496  0.5429
 8795TIP3    H247877   2.971   6.417  14.673  2.9164  0.7800  0.1896
 8796TIP3   OH247878   4.484   6.538   5.362 -0.2169  0.1333  0.3459
 8796TIP3    H147879   4.456   6.451   5.391 -1.9673  0.3413 -0.5699
 8796TIP3    H247880   4.577   6.543   5.385 -0.4233 -1.4435  1.6425
 8797TIP3   OH247881   5.057   1.884   4.746  0.2467  0.4498 -0.0628
 8797TIP3    H147882   5.100   1.798   4.751 -0.0874  0.0381 -2.7032
 8797TIP3    H247883   5.020   1.886   4.658 -5.0384  0.7984  1.7975
 8798TIP3   OH247884   6.487   4.253   0.309  0.1952 -0.3868  0.5705
 8798TIP3    H147885   6.501   4.346   0.291  0.0010 -0.4451  0.1015
 8798TIP3    H247886   6.551   4.231   0.377 -0.4602  0.3446  1.4491
 8799TIP3   OH247887   2.343   0.034   0.973  0.2954 -0.6198 -0.0769
 8799TIP3    H147888   2.393  -0.030   0.922  0.0298 -0.7960 -0.1142
 8799TIP3    H247889   2.327   0.106   0.912 -0.1839 -0.9121 -0.2991
 8800TIP3   OH247890   2.599   4.049   2.242  0.2548  0.1294 -0.0070
 8800TIP3    H147891   2.606   4.055   2.337 -0.7207 -0.1136  0.0893
 8800TIP3    H247892   2.574   3.958   2.226  2.0064 -0.2898 -0.6144
 8801TIP3   OH247893   0.909   6.056  16.073 -0.4701 -0.0865 -0.0722
 8801TIP3    H147894   0.816   6.069  16.091 -0.3981 -0.5594  0.6878
 8801TIP3    H247895   0.917   5.964  16.048 -0.3953  0.2839 -1.4670
 8802TIP3   OH247896   1.697   6.392  16.907  0.5281  0.0562 -0.0757
 8802TIP3    H147897   1.688   6.326  16.975 -1.5999  0.8837  0.5345
 8802TIP3    H247898   1.766   6.450  16.939  0.8455 -0.6095  0.4681
 8803TIP3   OH247899   6.405   0.691   4.852  0.2054  0.3390 -0.3405
 8803TIP3    H147900   6.425   0.701   4.945  1.1666 -1.6856 -0.2631
 8803TIP3    H247901   6.333   0.627   4.850  1.3393 -0.9780 -0.9936
 8804TIP3   OH247902   4.078   1.990  13.880 -0.2783  0.5499 -0.2509
 8804TIP3    H147903   3.993   2.010  13.918 -1.2744 -0.0911 -2.0283
 8804TIP3    H247904   4.090   1.896  13.896  0.3690  0.7407  0.4613
 8805TIP3   OH247905   4.279   1.173   1.305 -0.2842  0.1267 -0.3936
 8805TIP3    H147906   4.213   1.106   1.286 -2.7343  2.4201 -0.4664
 8805TIP3    H247907   4.270   1.188   1.399  0.4878  0.1472 -0.3197
 8806TIP3   OH247908   1.474   1.786   0.656  0.1329  0.3723  0.1708
 8806TIP3    H147909   1.512   1.872   0.674  0.8442  0.3505 -1.0732
 8806TIP3    H247910   1.410   1.802   0.586  0.6344 -0.1725 -0.4257
 8807TIP3   OH247911   0.146   1.613  14.208 -0.3751 -0.3304  0.7326
 8807TIP3    H147912   0.108   1.666  14.137  0.8359  2.0276  1.7364
 8807TIP3    H247913   0.204   1.551  14.163 -2.4299 -1.4610 -0.5304
 8808TIP3   OH247914   3.336   2.224  16.786 -0.5482 -0.1896 -0.4143
 8808TIP3    H147915   3.406   2.253  16.844 -1.2601  1.6180 -0.4008
 8808TIP3    H247916   3.325   2.296  16.724 -1.2212 -1.1993 -1.5141
 8809TIP3   OH247917   0.555   2.751  11.553 -0.1857  0.1093 -0.2010
 8809TIP3    H147918   0.498   2.700  11.495  0.1213  0.5538 -0.9016
 8809TIP3    H247919   0.619   2.688  11.586 -1.1083 -0.4202  0.6664
 8810TIP3   OH247920   1.517   1.217   4.717  0.3355 -0.0304  0.2228
 8810TIP3    H147921   1.483   1.199   4.804 -1.9643 -1.8063 -0.9209
 8810TIP3    H247922   1.469   1.158   4.660  1.0915  1.7035 -2.4030
 8811TIP3   OH247923   5.650   3.619   2.774 -0.1611  0.3422 -0.0207
 8811TIP3    H147924   5.645   3.528   2.801 -2.1034  0.0477 -1.2126
 8811TIP3    H247925   5.595   3.625   2.696  3.4325  1.5712 -2.7969
 8812TIP3   OH247926   6.226   2.505  12.797  1.0520 -0.3061  0.1887
 8812TIP3    H147927   6.201   2.511  12.890  1.4568  0.4255  0.2528
 8812TIP3    H247928   6.182   2.426  12.766 -2.0225  1.2656  0.1127
 8813TIP3   OH247929   2.509   5.876   5.936 -0.1577 -0.3623  0.3574
 8813TIP3    H147930   2.572   5.821   5.889 -0.0740 -0.2618  0.3519
 8813TIP3    H247931   2.491   5.829   6.017  1.6518  0.6879  1.4216
 8814TIP3   OH247932   2.888   3.791   5.492  0.4174  0.5060  0.2858
 8814TIP3    H147933   2.820   3.823   5.432 -1.2650  0.6945  2.1816
 8814TIP3    H247934   2.897   3.698   5.472 -0.6059  0.4270  0.1584
 8815TIP3   OH247935   5.922   1.583   1.865  0.0793  0.7737  0.1275
 8815TIP3    H147936   5.864   1.507   1.860 -0.7814  1.2646  1.8176
 8815TIP3    H247937   5.972   1.581   1.783 -1.8367 -0.0475 -1.0849
 8816TIP3   OH247938   3.555   1.375   4.763 -0.0680 -0.4976 -0.4355
 8816TIP3    H147939   3.574   1.469   4.762  0.8074 -0.6633 -0.2555
 8816TIP3    H247940   3.603   1.340   4.687  1.5213 -1.1342  0.8120
 8817TIP3   OH247941   5.087   2.234   0.323  0.6241  0.4211 -0.3754
 8817TIP3    H147942   4.993   2.220   0.338  1.0975 -0.5934  2.0873
 8817TIP3    H247943   5.090   2.306   0.259 -1.8465  2.1519  1.2631
 8818TIP3   OH247944   6.124   3.426   3.991 -0.4341 -0.4206 -0.0305
 8818TIP3    H147945   6.160   3.468   3.913 -0.1653 -1.1628 -0.3178
 8818TIP3    H247946   6.029   3.434   3.981 -0.4042 -0.6285 -0.5024
 8819TIP3   OH247947   1.176   6.742  13.046  0.4210 -0.3806  0.1073
 8819TIP3    H147948   1.254   6.694  13.076 -0.1720 -1.3212  0.1757
 8819TIP3    H247949   1.183   6.827  13.089  1.5222 -0.3682 -0.0564
 8820TIP3   OH247950   3.908   3.629  13.515 -0.3349  0.5089 -0.2920
 8820TIP3    H147951   3.948   3.712  13.540 -0.2235  0.9820 -1.9444
 8820TIP3    H247952   3.922   3.623  13.420  0.9960 -2.0987 -0.0233
 8821TIP3   OH247953   0.196   4.290  10.537 -0.2087 -0.6677 -0.4274
 8821TIP3    H147954   0.253   4.213  10.531  0.4860 -0.2042 -0.0182
 8821TIP3    H247955   0.212   4.323  10.626 -0.1914  0.1704 -0.7393
 8822TIP3   OH247956   4.247   2.035   2.419 -0.0392  0.1640 -0.1338
 8822TIP3    H147957   4.275   2.114   2.372  0.8947 -0.1391 -0.0991
 8822TIP3    H247958   4.320   1.974   2.409  1.3430  0.9181  3.7666
 8823TIP3   OH247959   2.045   0.521   4.691  0.2737  0.4494  0.2736
 8823TIP3    H147960   1.983   0.580   4.732  1.0580  0.6172  1.2537
 8823TIP3    H247961   2.067   0.457   4.759  1.7705  0.8640  0.2297
 8824TIP3   OH247962   5.094   6.422   5.735 -0.0357  0.2873  0.2673
 8824TIP3    H147963   5.164   6.419   5.670 -0.3953  2.8490 -0.3433
 8824TIP3    H247964   5.064   6.513   5.734 -1.9114 -0.2325  2.0755
 8825TIP3   OH247965   1.238   6.213   1.468 -0.0392 -0.6126 -0.0784
 8825TIP3    H147966   1.257   6.174   1.553  2.6869 -1.3793 -0.9506
 8825TIP3    H247967   1.177   6.284   1.488  0.0860 -1.1102  2.4345
 8826TIP3   OH247968   2.242   6.707   0.285  0.3367  0.1692  0.0376
 8826TIP3    H147969   2.240   6.746   0.197  0.2688  0.7405  0.2897
 8826TIP3    H247970   2.335   6.692   0.302  0.3305 -0.2132 -0.2472
 8827TIP3   OH247971   1.793   1.666   3.874 -0.0652  0.4805 -0.4969
 8827TIP3    H147972   1.852   1.635   3.805  0.5866  2.6625 -0.9748
 8827TIP3    H247973   1.721   1.708   3.827 -0.7606  0.0271  0.1363
 8828TIP3   OH247974   0.111   3.831  11.253  0.1062 -0.8485  0.3074
 8828TIP3    H147975   0.166   3.860  11.325  0.0550 -1.6251  0.6724
 8828TIP3    H247976   0.023   3.858  11.278  0.1130 -0.9631  0.4575
 8829TIP3   OH247977   5.246   0.186  11.788 -0.2110  0.0588 -0.5276
 8829TIP3    H147978   5.204   0.272  11.780  0.7226  0.5103 -0.7271
 8829TIP3    H247979   5.194   0.140  11.855 -1.6132  0.2215 -1.4589
 8830TIP3   OH247980   6.334   4.973  12.483  0.0616 -0.2384 -0.1604
 8830TIP3    H147981   6.309   4.957  12.392  0.4339 -3.5334  0.1886
 8830TIP3    H247982   6.251   4.983  12.529 -0.1218  1.9607 -0.8585
 8831TIP3   OH247983   0.286   0.297   0.718  0.2943 -0.7591  0.7963
 8831TIP3    H147984   0.316   0.335   0.635 -1.0788 -0.5978  0.3578
 8831TIP3    H247985   0.302   0.203   0.707  0.5478 -0.6892  0.5319
 8832TIP3   OH247986   6.457   3.019  11.579  0.1273 -0.2683  0.2215
 8832TIP3    H147987   6.383   2.983  11.531 -1.0707  1.5975  0.5734
 8832TIP3    H247988   6.487   2.947  11.634 -0.7305 -1.3743 -0.7043
 8833TIP3   OH247989   3.099   1.460   4.785 -0.3548  0.1418  0.0640
 8833TIP3    H147990   3.027   1.519   4.809 -1.4967 -0.6718 -1.1589
 8833TIP3    H247991   3.070   1.374   4.817  0.1420 -0.1713 -0.3200
 8834TIP3   OH247992   2.964   6.798  16.917 -0.0543 -0.3548 -0.0512
 8834TIP3    H147993   2.911   6.851  16.858  0.8587  0.9082  0.2336
 8834TIP3    H247994   2.984   6.855  16.991  1.9273 -0.6784 -0.2733
 8835TIP3   OH247995   3.709   0.031   3.352  0.2232 -0.6199  0.0169
 8835TIP3    H147996   3.659   0.090   3.295  0.0045 -1.2695 -0.4723
 8835TIP3    H247997   3.655  -0.047   3.360  0.0221 -0.3472  1.5523
 8836TIP3   OH247998   5.956   0.921   5.613 -0.1869 -0.8624  0.0220
 8836TIP3    H147999   5.891   0.956   5.551 -1.4297 -1.5417  0.8948
 8836TIP3    H248000   5.907   0.910   5.695  1.0447 -1.3951  0.7125
 8837TIP3   OH248001   1.096   5.583  16.721  0.1435 -0.0397 -0.1565
 8837TIP3    H148002   1.017   5.566  16.669  0.2364 -2.1978  0.3241
 8837TIP3    H248003   1.089   5.524  16.796  1.2963  1.1329  0.9215
 8838TIP3   OH248004   6.066   3.969  10.688 -0.7728  0.2722 -0.3710
 8838TIP3    H148005   6.000   3.963  10.757 -1.3990  0.4948 -0.9456
 8838TIP3    H248006   6.026   3.926  10.613 -0.2283  0.3359 -0.7034
 8839TIP3   OH248007   6.729   2.109  12.553 -0.6175 -0.2908  0.5157
 8839TIP3    H148008   6.748   2.202  12.567 -0.8843  0.1360 -1.6555
 8839TIP3    H248009   6.813   2.071  12.529 -0.5025 -0.6571  1.4336
 8840TIP3   OH248010   2.119   4.528   5.956 -0.1666  0.3704  0.5617
 8840TIP3    H148011   2.049   4.463   5.957  0.2325 -0.2837 -2.8914
 8840TIP3    H248012   2.196   4.481   5.988 -0.5470  0.1057  1.1146
 8841TIP3   OH248013   6.513   5.733  12.109 -0.5429 -0.0450 -0.0059
 8841TIP3    H148014   6.579   5.664  12.101 -0.5005  0.0647 -0.7595
 8841TIP3    H248015   6.430   5.685  12.116 -0.3894 -0.1822  0.8877
 8842TIP3   OH248016   4.230   0.232   0.713  0.7294  0.2967 -0.2726
 8842TIP3    H148017   4.279   0.242   0.794  1.3760 -0.5988 -0.5368
 8842TIP3    H248018   4.139   0.222   0.741  1.0961 -1.3209  0.4421
 8843TIP3   OH248019   6.499   2.791   3.741 -0.0138  0.2958  0.0291
 8843TIP3    H148020   6.514   2.789   3.647 -0.8736  1.5483 -0.1607
 8843TIP3    H248021   6.412   2.752   3.752  0.6412 -1.1083  0.4656
 8844TIP3   OH248022   4.959   2.440  12.355 -0.6352 -0.5790  0.1249
 8844TIP3    H148023   4.939   2.441  12.448  0.0969  0.2623  0.2774
 8844TIP3    H248024   4.969   2.347  12.334  0.2490 -0.7175  1.1134
 8845TIP3   OH248025   3.904   0.524  15.667 -0.1879 -0.0591  0.4965
 8845TIP3    H148026   3.959   0.572  15.606  0.6534 -0.5762  0.8191
 8845TIP3    H248027   3.824   0.505  15.619  0.8129 -1.2405 -0.7574
 8846TIP3   OH248028   1.220   1.435  15.832 -0.1424  0.3054 -0.1378
 8846TIP3    H148029   1.254   1.361  15.782  0.2243  0.6826 -0.4553
 8846TIP3    H248030   1.250   1.512  15.784 -0.1556  0.6680  0.4247
 8847TIP3   OH248031   4.955   2.451  13.772 -0.0976  0.1754 -0.1909
 8847TIP3    H148032   5.022   2.432  13.705 -0.5156  1.5753 -1.0329
 8847TIP3    H248033   4.891   2.505  13.727 -0.8834  0.3524  1.1072
 8848TIP3   OH248034   3.435   1.036  15.528  0.1972 -0.0152  0.2094
 8848TIP3    H148035   3.425   1.042  15.433  2.5718 -0.8899 -0.1714
 8848TIP3    H248036   3.381   1.107  15.563 -1.7387 -0.4849 -1.6856
 8849TIP3   OH248037   6.565   2.794  12.071  0.0907 -0.2949  0.3402
 8849TIP3    H148038   6.579   2.887  12.058  0.0094 -0.4144 -0.6639
 8849TIP3    H248039   6.636   2.767  12.130  0.6741  0.2200 -0.1136
 8850TIP3   OH248040   5.765   1.417  11.550 -0.1232  0.1568  0.5520
 8850TIP3    H148041   5.811   1.354  11.494 -1.1866  0.5950 -0.8798
 8850TIP3    H248042   5.706   1.463  11.491  0.5753  2.4912  1.5734
 8851TIP3   OH248043   3.322   3.267   5.922  0.4156 -0.6915  0.3675
 8851TIP3    H148044   3.229   3.255   5.903 -0.1601  1.0290  1.8140
 8851TIP3    H248045   3.361   3.181   5.908 -1.1497 -1.1619 -1.4976
 8852TIP3   OH248046   0.062   1.469  16.706  0.3208  0.0499 -0.3083
 8852TIP3    H148047   0.064   1.461  16.611 -0.5110 -1.2374 -0.2309
 8852TIP3    H248048   0.025   1.387  16.737 -1.6886  1.3520  0.9990
 8853TIP3   OH248049   0.539   3.469  13.650  0.2658 -0.0630  0.3595
 8853TIP3    H148050   0.523   3.479  13.744 -0.5889 -0.3114  0.2490
 8853TIP3    H248051   0.547   3.559  13.617 -0.0573  0.0411  0.5676
 8854TIP3   OH248052   2.748   1.188  14.007 -0.7472  0.1519  0.1710
 8854TIP3    H148053   2.790   1.106  13.981 -0.5194  0.6869 -1.2459
 8854TIP3    H248054   2.738   1.181  14.102  0.2712 -1.0384  0.2149
 8855TIP3   OH248055   6.812   5.749  13.276 -0.4187  0.7399  0.2258
 8855TIP3    H148056   6.876   5.688  13.311 -1.9536 -0.5465  0.8889
 8855TIP3    H248057   6.853   5.835  13.285  1.5526 -0.1192 -0.2067
 8856TIP3   OH248058   1.162   6.734  12.076 -0.1909 -0.0844  0.1955
 8856TIP3    H148059   1.204   6.809  12.118  1.9070 -1.4503  0.7067
 8856TIP3    H248060   1.183   6.660  12.133 -0.5359 -1.3672 -1.2712
 8857TIP3   OH248061   6.242   0.946  11.797 -0.0271  0.7382 -0.3968
 8857TIP3    H148062   6.227   1.014  11.864 -0.8664  1.9355 -1.7431
 8857TIP3    H248063   6.236   0.864  11.845  0.7708  1.5779  1.2581
 8858TIP3   OH248064   3.091   0.479   0.723  0.1409  0.4291  0.1525
 8858TIP3    H148065   3.081   0.480   0.818 -1.8464  0.3637 -0.0176
 8858TIP3    H248066   3.123   0.391   0.703 -0.8349 -0.0646  0.6761
 8859TIP3   OH248067   6.424   4.142  12.779 -0.5905  0.5969 -0.4639
 8859TIP3    H148068   6.426   4.116  12.686  0.8424 -0.2421 -0.2278
 8859TIP3    H248069   6.364   4.216  12.781  0.9075  1.9991 -2.4400
 8860TIP3   OH248070   2.986   4.439  11.804  0.1164  0.3291 -0.3412
 8860TIP3    H148071   3.019   4.508  11.748  0.2492  0.3241 -0.2702
 8860TIP3    H248072   2.920   4.482  11.859  0.7806  0.5803  0.2635
 8861TIP3   OH248073   5.927   4.094   5.053  0.2131 -0.7425 -0.4187
 8861TIP3    H148074   6.017   4.062   5.063  0.5440 -0.2651 -1.7110
 8861TIP3    H248075   5.873   4.027   5.096  1.2795 -0.0257  2.2810
 8862TIP3   OH248076   5.934   4.175   4.531 -0.4566 -0.1901 -0.2076
 8862TIP3    H148077   5.938   4.271   4.529  0.6039 -0.2308 -0.8187
 8862TIP3    H248078   5.891   4.155   4.614 -0.1237  0.8080  0.2209
 8863TIP3   OH248079   0.370   0.449   0.489  0.2338 -0.2636  0.1717
 8863TIP3    H148080   0.374   0.372   0.433 -0.4633 -0.9245  1.0191
 8863TIP3    H248081   0.363   0.522   0.427  2.9579 -0.6484 -0.7413
 8864TIP3   OH248082   1.642   6.803   6.021 -0.2736 -0.3881 -0.2542
 8864TIP3    H148083   1.581   6.729   6.017 -0.2426 -0.4398  0.1999
 8864TIP3    H248084   1.729   6.763   6.020 -0.1785 -0.2647 -2.5028
 8865TIP3   OH248085   3.319   2.006  14.868  0.2810  0.6980 -0.1577
 8865TIP3    H148086   3.259   2.022  14.795  1.3949 -0.3339 -1.3723
 8865TIP3    H248087   3.282   2.055  14.941 -1.7247  0.5402 -0.9914
 8866TIP3   OH248088   5.041   5.709   5.468  0.5997 -0.4380  0.0609
 8866TIP3    H148089   4.966   5.675   5.419 -0.9954  0.9993  1.3669
 8866TIP3    H248090   5.117   5.669   5.427 -0.9361 -2.8414 -0.6264
 8867TIP3   OH248091   1.995   6.139  10.901  0.7816  0.5140  0.7916
 8867TIP3    H148092   2.035   6.056  10.876  2.5576  1.6478 -0.2919
 8867TIP3    H248093   1.991   6.135  10.997 -0.2807 -1.2765  0.7249
 8868TIP3   OH248094   1.333   1.102  14.720  0.0994  0.5367  0.1354
 8868TIP3    H148095   1.368   1.014  14.736 -0.9909  0.0078 -0.2828
 8868TIP3    H248096   1.403   1.146  14.672 -0.1453 -0.8265 -1.5788
 8869TIP3   OH248097   1.847   3.369  12.746 -0.6192  0.1271  0.8228
 8869TIP3    H148098   1.760   3.401  12.720 -0.6325 -0.2790  0.3565
 8869TIP3    H248099   1.857   3.287  12.699 -0.5727 -0.5534  1.9741
 8870TIP3   OH248100   2.593   4.055   5.782 -0.4539  0.6330  0.3056
 8870TIP3    H148101   2.629   4.109   5.852 -1.4629 -0.7785  1.9705
 8870TIP3    H248102   2.670   4.026   5.732  0.3159  1.2262  1.1098
 8871TIP3   OH248103   4.805   5.933  16.974 -0.0098  0.0490  0.3294
 8871TIP3    H148104   4.808   5.949  16.880 -0.5552 -0.6151  0.1877
 8871TIP3    H248105   4.879   5.876  16.992 -0.4007 -0.5271  0.1477
 8872TIP3   OH248106   2.837   5.371  16.734 -0.2148  0.5466  0.1692
 8872TIP3    H148107   2.828   5.448  16.678 -0.4446 -1.4546 -2.7842
 8872TIP3    H248108   2.909   5.321  16.695  0.7002 -0.2194  2.6823
 8873TIP3   OH248109   2.433   0.740   5.997 -0.0736  0.3892  0.0977
 8873TIP3    H148110   2.372   0.813   6.008 -0.5395 -0.0785  0.6919
 8873TIP3    H248111   2.443   0.704   6.085  0.0260 -0.3679 -0.2228
 8874TIP3   OH248112   5.786   6.162   1.917  0.2237  0.3280 -0.0860
 8874TIP3    H148113   5.861   6.111   1.889 -0.9590 -1.2861 -0.4473
 8874TIP3    H248114   5.823   6.234   1.969  2.0797  0.3770 -1.4001
 8875TIP3   OH248115   1.270   1.216   3.030  0.8457  0.5332 -0.1806
 8875TIP3    H148116   1.194   1.259   3.068  0.1815 -0.0658 -0.8088
 8875TIP3    H248117   1.243   1.192   2.941  0.8867 -1.8515  0.3766
 8876TIP3   OH248118   0.694   4.237   1.528 -0.1995 -0.1143 -0.8087
 8876TIP3    H148119   0.647   4.170   1.579 -0.7749  0.3035 -0.7773
 8876TIP3    H248120   0.782   4.201   1.516 -0.1105 -0.3216  0.3022
 8877TIP3   OH248121   2.303   1.913   3.349 -0.3276  0.7629 -0.8283
 8877TIP3    H148122   2.385   1.924   3.301  0.0255  1.3453 -0.1196
 8877TIP3    H248123   2.240   1.885   3.283  0.9354 -2.0104 -0.9939
 8878TIP3   OH248124   6.654   6.687  16.487 -0.7554  0.0527  0.7154
 8878TIP3    H148125   6.678   6.660  16.576 -0.7758 -0.4221  0.5831
 8878TIP3    H248126   6.726   6.655  16.432 -1.2234 -0.5367  0.4374
 8879TIP3   OH248127   1.343   4.493  15.593 -0.4788  0.0306 -0.1142
 8879TIP3    H148128   1.428   4.474  15.553  0.1981  0.7926  0.9321
 8879TIP3    H248129   1.338   4.433  15.668 -0.0680  1.1804  0.8658
 8880TIP3   OH248130   2.404   4.029  11.972 -0.2637  0.3407  0.4716
 8880TIP3    H148131   2.355   4.110  11.963  0.1308  0.5743  0.4145
 8880TIP3    H248132   2.401   3.989  11.885 -1.2433 -0.1657  0.7234
 8881TIP3   OH248133   4.379   6.113  14.760 -0.4547  0.0661  0.4409
 8881TIP3    H148134   4.435   6.124  14.684 -1.0839  1.4168  0.1431
 8881TIP3    H248135   4.301   6.165  14.741 -0.3587  0.9786  2.2497
 8882TIP3   OH248136   5.252   2.692   1.364  0.2826  0.5200  0.1374
 8882TIP3    H148137   5.233   2.713   1.273 -0.8123 -0.2041  0.1769
 8882TIP3    H248138   5.289   2.603   1.361 -1.5310 -0.2926  0.5275
 8883TIP3   OH248139   1.955   5.532  14.721 -0.5960 -0.1128  0.2485
 8883TIP3    H148140   1.893   5.485  14.777 -1.4193  1.8142  1.0733
 8883TIP3    H248141   2.006   5.585  14.782 -2.1059  2.7343 -0.7579
 8884TIP3   OH248142   1.391   0.986  11.441 -0.2640  0.0166 -0.8633
 8884TIP3    H148143   1.442   1.040  11.500 -0.6114 -1.4170  0.8483
 8884TIP3    H248144   1.323   1.044  11.407  0.2313  0.9996 -0.2086
 8885TIP3   OH248145   0.835   1.824  15.648 -0.5691  0.3988  0.3665
 8885TIP3    H148146   0.837   1.906  15.599 -0.2346  1.0024  1.3555
 8885TIP3    H248147   0.897   1.767  15.604  0.4674  1.2712  0.6580
 8886TIP3   OH248148   6.011   0.683   2.908 -0.2788 -0.2580  0.2661
 8886TIP3    H148149   6.058   0.718   2.833  0.1259 -0.6265  0.3431
 8886TIP3    H248150   5.960   0.757   2.942 -0.2350 -0.0190 -0.1912
 8887TIP3   OH248151   2.581   5.353   4.518 -0.2723 -0.1446 -0.2739
 8887TIP3    H148152   2.554   5.278   4.570  0.9869  0.7290  1.7934
 8887TIP3    H248153   2.535   5.427   4.557 -0.1817  0.3917 -1.1621
 8888TIP3   OH248154   4.612   3.840  11.070  0.0973  0.0670  0.5322
 8888TIP3    H148155   4.690   3.789  11.090  0.7200  0.8833  0.2353
 8888TIP3    H248156   4.591   3.817  10.980 -0.6329 -0.9338  0.9334
 8889TIP3   OH248157   5.596   5.720   5.382  0.4623 -0.1378  0.3336
 8889TIP3    H148158   5.593   5.684   5.294 -0.4036 -0.4132  0.4662
 8889TIP3    H248159   5.586   5.644   5.440 -2.0672  0.2920  0.6038
 8890TIP3   OH248160   5.687   3.375   1.064 -0.1354 -0.6416 -0.2467
 8890TIP3    H148161   5.696   3.410   1.153 -0.6401 -0.2377 -0.3527
 8890TIP3    H248162   5.620   3.307   1.073  0.5382 -1.3177 -0.1264
 8891TIP3   OH248163   2.755   3.389   1.230 -0.4051 -0.1941  0.1004
 8891TIP3    H148164   2.753   3.326   1.158  2.4767 -0.9501  0.5167
 8891TIP3    H248165   2.770   3.474   1.188 -0.2271 -0.4121 -0.2818
 8892TIP3   OH248166   4.465   0.145  15.625 -0.0193 -0.3154  0.0267
 8892TIP3    H148167   4.421   0.134  15.709  0.3525 -0.5484  0.1968
 8892TIP3    H248168   4.502   0.233  15.628 -1.0408  0.1291 -0.3883
 8893TIP3   OH248169   5.402   3.217  15.393  0.6234 -0.0852 -0.0974
 8893TIP3    H148170   5.373   3.215  15.484  2.3588 -0.8531  0.4720
 8893TIP3    H248171   5.476   3.157  15.390 -0.0120 -0.8358 -2.2569
 8894TIP3   OH248172   4.144   4.906   2.658  0.3484 -0.1442  0.1970
 8894TIP3    H148173   4.223   4.952   2.686 -1.0702  0.2491  4.3327
 8894TIP3    H248174   4.092   4.972   2.613  0.3725  1.0731  1.8548
 8895TIP3   OH248175   0.432   0.925   2.243  0.4767 -0.2139  0.2852
 8895TIP3    H148176   0.373   0.927   2.167  1.2698  0.0681 -0.3506
 8895TIP3    H248177   0.375   0.911   2.318 -0.5751  1.5214 -0.1414
 8896TIP3   OH248178   6.493   0.871   0.966 -0.0932 -0.4551  0.1392
 8896TIP3    H148179   6.429   0.896   0.899  0.2414 -3.2754 -1.4171
 8896TIP3    H248180   6.441   0.857   1.045 -0.9007  0.3858 -0.2254
 8897TIP3   OH248181   5.859   6.745  13.149 -0.2428  0.5152  0.3552
 8897TIP3    H148182   5.914   6.674  13.116 -1.0226  0.3502 -0.6008
 8897TIP3    H248183   5.771   6.707  13.156 -0.4374  1.0494  0.9822
 8898TIP3   OH248184   5.151   3.247  13.887  0.3548 -0.5042 -0.1489
 8898TIP3    H148185   5.239   3.249  13.850  0.7945 -0.4045  0.8863
 8898TIP3    H248186   5.120   3.158  13.871 -0.9733  0.4563 -4.1183
 8899TIP3   OH248187   3.343   2.306  13.661  0.5519  0.1330 -0.0989
 8899TIP3    H148188   3.353   2.389  13.708  0.2581  0.3464 -0.4064
 8899TIP3    H248189   3.363   2.239  13.726  2.1290  0.4689 -0.1952
 8900TIP3   OH248190   4.764   1.906  13.798  0.2484 -0.3245 -0.3581
 8900TIP3    H148191   4.689   1.949  13.757  1.4876  0.4334 -1.9378
 8900TIP3    H248192   4.800   1.851  13.730  1.2029 -0.5894  0.3456
 8901TIP3   OH248193   4.691   6.375  11.598  0.2159 -0.1731  0.4906
 8901TIP3    H148194   4.644   6.389  11.680 -0.6760 -0.8217  0.1042
 8901TIP3    H248195   4.672   6.454  11.546 -0.7596 -0.5782  0.2046
 8902TIP3   OH248196   4.796   3.286   0.143 -0.2991 -0.2090  0.1726
 8902TIP3    H148197   4.888   3.304   0.123 -0.0846 -0.1883  1.1013
 8902TIP3    H248198   4.781   3.197   0.112 -0.2283  0.1126 -0.8065
 8903TIP3   OH248199   4.644   2.225  13.616  0.2182 -0.0632 -0.1425
 8903TIP3    H148200   4.666   2.132  13.608 -1.3025 -0.3197 -2.2497
 8903TIP3    H248201   4.548   2.227  13.615  0.2083  1.4572  1.1979
 8904TIP3   OH248202   3.979   5.686  12.924  0.0308 -0.6630 -0.1090
 8904TIP3    H148203   4.034   5.691  13.002  0.8157 -2.0430 -0.5393
 8904TIP3    H248204   3.896   5.724  12.951 -0.4649 -3.0437  2.0922
 8905TIP3   OH248205   4.021   4.338  15.850  0.0875 -0.1622 -0.4871
 8905TIP3    H148206   4.068   4.257  15.835 -0.6418 -0.6995  0.0413
 8905TIP3    H248207   3.978   4.326  15.935 -2.4622 -0.4394 -1.7267
 8906TIP3   OH248208   3.983   0.283   1.519 -0.0484  0.4601  0.0639
 8906TIP3    H148209   3.963   0.289   1.425  0.2040  0.5651  0.0151
 8906TIP3    H248210   3.976   0.190   1.539 -2.5085  0.6799  0.4881
 8907TIP3   OH248211   5.658   4.700  14.162 -0.0831  0.0548 -0.6771
 8907TIP3    H148212   5.642   4.755  14.085 -0.1240 -0.2395 -0.8799
 8907TIP3    H248213   5.726   4.639  14.135  0.6416  0.6162 -0.1474
 8908TIP3   OH248214   2.989   1.785   1.440  0.2194 -0.0328  0.5956
 8908TIP3    H148215   3.004   1.726   1.513  1.1406  0.9904  1.2841
 8908TIP3    H248216   2.895   1.781   1.423 -0.0256 -0.2204  1.9109
 8909TIP3   OH248217   4.662   2.288   1.719  0.3244 -0.1276  0.5953
 8909TIP3    H148218   4.639   2.196   1.731  1.2563 -0.7131 -1.6142
 8909TIP3    H248219   4.583   2.328   1.684  0.4601 -0.5299 -0.2023
 8910TIP3   OH248220   3.178   1.372   4.029 -0.4041  0.2886 -0.0225
 8910TIP3    H148221   3.167   1.287   3.987  2.7610  0.1284 -0.8046
 8910TIP3    H248222   3.135   1.434   3.970  1.7712 -0.2297 -2.3224
 8911TIP3   OH248223   3.393   3.941  16.685 -0.1229 -0.6006 -0.5335
 8911TIP3    H148224   3.372   3.920  16.776  0.4022 -0.3312 -0.3410
 8911TIP3    H248225   3.438   4.026  16.690 -0.9032 -0.1360 -1.1406
 8912TIP3   OH248226   1.818   4.749   3.056 -0.2511  0.1184  0.0972
 8912TIP3    H148227   1.733   4.788   3.037 -0.2486 -0.7607 -1.9301
 8912TIP3    H248228   1.832   4.766   3.149 -1.1900  3.0401 -0.1935
 8913TIP3   OH248229   5.137   2.612  16.320 -0.2104  0.3221  0.0685
 8913TIP3    H148230   5.193   2.677  16.363 -0.4931  0.9496 -0.4826
 8913TIP3    H248231   5.196   2.542  16.293  0.3206  1.0081 -0.5749
 8914TIP3   OH248232   3.649   3.089  15.498  0.1079 -0.1371 -0.0736
 8914TIP3    H148233   3.560   3.087  15.462  0.1671 -0.3982 -0.2139
 8914TIP3    H248234   3.641   3.047  15.584  0.1151 -0.2738 -0.1382
 8915TIP3   OH248235   0.171   6.315   5.266 -0.0151 -0.0375 -0.2680
 8915TIP3    H148236   0.086   6.330   5.308  0.3297  0.0309  0.4197
 8915TIP3    H248237   0.179   6.219   5.263  0.7806 -0.0808  1.5811
 8916TIP3   OH248238   0.522   4.217   0.259  0.1134 -0.0082 -0.1806
 8916TIP3    H148239   0.522   4.177   0.346 -1.1240  1.0405  0.3454
 8916TIP3    H248240   0.580   4.292   0.268 -0.7399  0.6427  0.0364
 8917TIP3   OH248241   3.338   0.997  14.780  0.5143 -0.7296 -0.2845
 8917TIP3    H148242   3.433   0.996  14.776  0.4886 -2.5003 -1.4282
 8917TIP3    H248243   3.317   0.970  14.869  1.0358  1.4501  0.5662
 8918TIP3   OH248244   3.405   0.628   4.812 -0.3437 -0.3671 -0.7142
 8918TIP3    H148245   3.399   0.610   4.718 -0.9650  0.2001 -0.7920
 8918TIP3    H248246   3.332   0.688   4.830  0.0318 -0.1238  0.0464
 8919TIP3   OH248247   2.956   0.002   2.139  0.1394 -0.2136 -0.1404
 8919TIP3    H148248   2.932   0.078   2.192 -0.0012  0.3286 -0.9634
 8919TIP3    H248249   2.889  -0.064   2.160 -0.4185  0.2970 -0.2929
 8920TIP3   OH248250   0.089   0.747  16.240 -0.5974  0.0408 -0.2261
 8920TIP3    H148251   0.101   0.732  16.146 -0.2794 -0.5988 -0.0914
 8920TIP3    H248252   0.080   0.659  16.277  2.6011  0.0222  0.7941
 8921TIP3   OH248253   3.963   3.256   3.246  0.0318  0.1892  0.1996
 8921TIP3    H148254   4.017   3.335   3.244  1.5580 -0.8246 -0.4947
 8921TIP3    H248255   3.903   3.266   3.172  0.2124  0.7012  0.1177
 8922TIP3   OH248256   6.750   5.714   2.684  0.2372  0.0354  0.1867
 8922TIP3    H148257   6.714   5.770   2.754  1.1447 -0.7622  1.3307
 8922TIP3    H248258   6.823   5.765   2.648  0.1065  0.2220  0.1807
 8923TIP3   OH248259   4.426   5.910  12.990 -0.1643  0.2039  0.1118
 8923TIP3    H148260   4.392   5.975  12.928 -0.5937  0.4613  0.6132
 8923TIP3    H248261   4.516   5.938  13.007 -0.0248  0.0997 -0.4387
 8924TIP3   OH248262   0.775   2.337   0.317  0.6323  0.8304  0.0489
 8924TIP3    H148263   0.829   2.337   0.238  0.2519 -0.3240 -0.2235
 8924TIP3    H248264   0.685   2.336   0.285  0.4793 -0.5757  0.4783
 8925TIP3   OH248265   3.758   6.618   1.988 -0.3648 -0.0014  0.1233
 8925TIP3    H148266   3.685   6.674   2.014 -1.0446 -0.4120 -0.8353
 8925TIP3    H248267   3.716   6.545   1.943  0.4357 -1.6864  1.9866
 8926TIP3   OH248268   0.141   1.049  15.548 -0.1068  0.6967  0.0543
 8926TIP3    H148269   0.139   1.007  15.634 -2.6176  0.1353 -0.1825
 8926TIP3    H248270   0.200   0.996  15.496 -1.4246 -1.2359  0.4296
 8927TIP3   OH248271   2.993   1.795   6.210 -0.1691  0.2417  0.0875
 8927TIP3    H148272   2.997   1.885   6.241 -1.0079  1.3934 -2.8104
 8927TIP3    H248273   2.900   1.771   6.218  0.2988 -1.0897  2.4752
 8928TIP3   OH248274   2.910   1.152   0.728 -0.6269  0.1504  0.3268
 8928TIP3    H148275   2.940   1.243   0.730  0.4138 -0.1960  1.4095
 8928TIP3    H248276   2.990   1.101   0.715 -1.1206 -0.6479  0.3824
 8929TIP3   OH248277   6.577   3.243  14.663 -1.0535 -0.7247  0.2043
 8929TIP3    H148278   6.516   3.203  14.725 -1.8139 -0.8120 -0.5719
 8929TIP3    H248279   6.541   3.221  14.577 -1.0450  0.9042 -0.2589
 8930TIP3   OH248280   2.901   2.791   3.335  0.0939  0.5101  0.2311
 8930TIP3    H148281   2.879   2.853   3.265 -1.4997 -0.7573 -0.4565
 8930TIP3    H248282   2.971   2.738   3.299  0.9248  1.3810  0.5269
 8931TIP3   OH248283   0.564   0.499   0.047  0.3034  0.3563  0.0932
 8931TIP3    H148284   0.523   0.522  -0.036 -0.1818  1.2439  0.5603
 8931TIP3    H248285   0.643   0.452   0.023 -0.2346 -0.0892 -0.8585
 8932TIP3   OH248286   4.328   1.621  11.600 -0.4870  0.3888 -0.4027
 8932TIP3    H148287   4.329   1.542  11.653  0.0423  0.7486  0.1396
 8932TIP3    H248288   4.308   1.692  11.661 -4.3458  0.3773 -1.3817
 8933TIP3   OH248289   4.780   0.378  11.804  0.1946  0.9244  0.5535
 8933TIP3    H148290   4.779   0.473  11.811  1.2783  0.9062  1.2493
 8933TIP3    H248291   4.873   0.355  11.798 -0.0718 -0.0611 -0.1655
 8934TIP3   OH248292   0.605   4.709   0.615 -0.0351  0.0412 -0.0112
 8934TIP3    H148293   0.564   4.780   0.567  1.6763  0.4809 -0.9015
 8934TIP3    H248294   0.597   4.734   0.707 -0.6206  0.7144 -0.2369
 8935TIP3   OH248295   0.051   6.153  12.890  0.1374  0.0064  0.1800
 8935TIP3    H148296   0.139   6.174  12.922  0.4166 -0.2861 -0.3804
 8935TIP3    H248297   0.015   6.237  12.862 -0.0764  0.2554  1.1487
 8936TIP3   OH248298   3.461   2.806   0.610 -0.4594  0.5183 -0.4583
 8936TIP3    H148299   3.441   2.756   0.689  1.4147  1.9027  0.9661
 8936TIP3    H248300   3.375   2.826   0.572 -1.4191  0.0780  1.3773
 8937TIP3   OH248301   2.293   0.636   4.603  0.1946 -0.5627  0.0389
 8937TIP3    H148302   2.300   0.646   4.509  1.6947 -0.8892  0.0791
 8937TIP3    H248303   2.215   0.582   4.617  0.3111 -1.0339 -1.0551
 8938TIP3   OH248304   2.042   0.604   1.913  0.2816 -0.1627  0.4356
 8938TIP3    H148305   2.041   0.655   1.831  0.4151  0.0541  0.5693
 8938TIP3    H248306   2.122   0.630   1.957 -0.1393  0.2575  0.9751
 8939TIP3   OH248307   2.684   1.728   5.546 -0.8767  0.4994 -0.4354
 8939TIP3    H148308   2.774   1.711   5.575 -1.7463 -0.5557  1.9014
 8939TIP3    H248309   2.664   1.658   5.484 -0.9692 -1.0013  1.2119
 8940TIP3   OH248310   0.567   2.666   6.542 -0.6979 -0.4258 -0.3938
 8940TIP3    H148311   0.601   2.602   6.604  0.6362  0.0107 -0.6421
 8940TIP3    H248312   0.472   2.654   6.545 -0.5620 -1.4444  0.5935
 8941TIP3   OH248313   1.218   4.291   3.005 -0.4412 -0.4424  0.2181
 8941TIP3    H148314   1.224   4.385   2.991 -2.4239 -0.5425 -1.7955
 8941TIP3    H248315   1.146   4.281   3.067 -1.2169 -0.6693 -0.6989
 8942TIP3   OH248316   5.181   0.440   0.685 -0.2819  0.1043 -0.0043
 8942TIP3    H148317   5.113   0.454   0.620 -1.2433  0.8490  1.1190
 8942TIP3    H248318   5.148   0.369   0.740  0.9642 -1.2022 -0.8750
 8943TIP3   OH248319   6.830   4.937  12.825 -0.4134 -0.6107 -0.3583
 8943TIP3    H148320   6.835   4.920  12.731 -1.9516  1.2356 -0.8189
 8943TIP3    H248321   6.837   5.032  12.832  0.1902 -0.7573  1.4688
 8944TIP3   OH248322   1.328   2.935   5.556  0.2356 -0.2144 -0.4457
 8944TIP3    H148323   1.331   2.951   5.462  1.2970  0.9233 -0.2412
 8944TIP3    H248324   1.392   2.996   5.593  0.6444 -1.4058  0.9153
 8945TIP3   OH248325   5.850   2.104  14.110  0.4949  0.3569 -0.1959
 8945TIP3    H148326   5.840   2.067  14.198 -1.9980 -0.2024 -0.6146
 8945TIP3    H248327   5.815   2.036  14.052  0.5643  1.3750 -1.4731
 8946TIP3   OH248328   5.100   1.248  11.762  0.1280 -0.0542  0.5827
 8946TIP3    H148329   5.032   1.313  11.780  1.4668  1.3751  0.6944
 8946TIP3    H248330   5.086   1.180  11.829 -0.7345  0.5480  1.0384
 8947TIP3   OH248331   1.544   3.897   3.645 -0.3088 -0.4523 -0.7501
 8947TIP3    H148332   1.532   3.854   3.730 -2.0041  0.1743 -0.6357
 8947TIP3    H248333   1.468   3.954   3.636  0.5158  0.4891 -2.1148
 8948TIP3   OH248334   3.295   4.651  13.047  0.4499  0.5109 -0.1836
 8948TIP3    H148335   3.295   4.634  12.953  1.6828 -0.5711 -0.0069
 8948TIP3    H248336   3.371   4.604  13.080 -0.6904 -0.1952  1.5521
 8949TIP3   OH248337   5.463   2.976   6.096 -0.5729  0.1250 -0.6856
 8949TIP3    H148338   5.440   2.889   6.064 -2.4599  0.0248  0.7809
 8949TIP3    H248339   5.436   2.976   6.188  0.9447  1.7158 -0.1970
 8950TIP3   OH248340   2.718   5.940  11.630 -0.4427  0.0033  0.4168
 8950TIP3    H148341   2.766   5.859  11.653  0.3442  0.4361  0.3398
 8950TIP3    H248342   2.654   5.950  11.700 -0.0809 -0.3205  0.8015
 8951TIP3   OH248343   2.412   0.518   3.872  0.5791  0.2287 -0.5025
 8951TIP3    H148344   2.332   0.466   3.870  0.4249  0.3922  0.6248
 8951TIP3    H248345   2.481   0.457   3.850  0.1665  0.0415 -1.2947
 8952TIP3   OH248346   2.106   3.531   0.287 -0.3144 -0.1245 -0.4731
 8952TIP3    H148347   2.066   3.617   0.295 -0.4097 -0.2243  0.2128
 8952TIP3    H248348   2.135   3.526   0.196  0.5324  1.0022 -0.2822
 8953TIP3   OH248349   1.022   3.599   4.818 -0.4036  0.4708  0.0316
 8953TIP3    H148350   0.961   3.570   4.886  0.3517 -0.7348  0.2305
 8953TIP3    H248351   0.970   3.658   4.763 -1.6637 -0.2889  0.3660
 8954TIP3   OH248352   0.644   0.131   2.806  0.0055 -0.1046  0.4369
 8954TIP3    H148353   0.609   0.218   2.827 -0.8429 -0.3421  0.0748
 8954TIP3    H248354   0.569   0.083   2.771  0.4916 -0.9451  0.5065
 8955TIP3   OH248355   5.512   4.696  14.753 -0.0017 -0.1432 -0.3802
 8955TIP3    H148356   5.607   4.710  14.752  0.1355 -1.0262 -0.5596
 8955TIP3    H248357   5.484   4.713  14.663  0.4312 -2.5740 -1.0589
 8956TIP3   OH248358   5.595   3.895  13.999 -0.6381  0.8386 -0.1531
 8956TIP3    H148359   5.549   3.968  14.041  0.2467  1.7366 -0.7156
 8956TIP3    H248360   5.665   3.873  14.060 -0.3844  1.0287 -0.3733
 8957TIP3   OH248361   4.562   0.684   1.701  0.0156  0.3841  0.2730
 8957TIP3    H148362   4.542   0.698   1.608 -1.9871 -1.8815  0.2736
 8957TIP3    H248363   4.526   0.761   1.745  0.7980  1.3856 -0.7735
 8958TIP3   OH248364   5.787   3.042   4.491  0.2287 -0.1778  0.4917
 8958TIP3    H148365   5.806   3.133   4.471  0.9332 -0.1553  1.2507
 8958TIP3    H248366   5.693   3.032   4.472  0.5749  0.1500 -1.6149
 8959TIP3   OH248367   5.754   3.365  12.695 -0.7471  0.3968 -0.4322
 8959TIP3    H148368   5.726   3.442  12.645  0.0934  0.5487 -0.6843
 8959TIP3    H248369   5.757   3.395  12.786  0.1513  0.8373 -0.6009
 8960TIP3   OH248370   1.123   4.264   3.729 -0.3455 -0.1576 -0.4000
 8960TIP3    H148371   1.079   4.247   3.645 -0.3624  1.6251 -0.7827
 8960TIP3    H248372   1.059   4.237   3.795 -0.3722 -1.4915 -0.9299
 8961TIP3   OH248373   3.109   1.144   2.862  0.2302  0.3679  0.2805
 8961TIP3    H148374   3.202   1.168   2.852  0.5848 -1.0390 -0.0913
 8961TIP3    H248375   3.101   1.063   2.812 -1.0615  0.1282  0.8580
 8962TIP3   OH248376   1.586   4.109  15.039 -0.3671  0.5863 -0.1018
 8962TIP3    H148377   1.566   4.015  15.035  0.6830  0.3140  0.6552
 8962TIP3    H248378   1.539   4.140  15.117 -0.7732  0.7101 -0.3936
 8963TIP3   OH248379   5.551   5.645   4.720 -0.2406 -0.3534  0.2199
 8963TIP3    H148380   5.466   5.673   4.754 -0.4712 -1.2857  0.4451
 8963TIP3    H248381   5.557   5.688   4.634 -0.3748  0.7093  0.7188
 8964TIP3   OH248382   4.275   4.171   3.577  0.0829 -0.2608  0.4300
 8964TIP3    H148383   4.243   4.084   3.602  1.5757 -0.8392  0.4262
 8964TIP3    H248384   4.303   4.212   3.659 -0.0895  0.0022  0.3608
 8965TIP3   OH248385   3.355   3.780  11.885  0.1208 -0.7973 -0.4002
 8965TIP3    H148386   3.439   3.818  11.859 -0.2735 -0.1289 -0.7316
 8965TIP3    H248387   3.350   3.796  11.979 -0.6286  1.2259 -0.7268
 8966TIP3   OH248388   6.132   2.903  14.118 -0.5020 -0.6484  0.0260
 8966TIP3    H148389   6.150   2.991  14.153  0.7166 -1.0749  0.5390
 8966TIP3    H248390   6.095   2.855  14.192 -0.6225 -0.7282 -0.0869
 8967TIP3   OH248391   6.404   3.348  16.035  0.2901  0.0519 -0.4497
 8967TIP3    H148392   6.414   3.293  16.112  2.3887  1.4460  0.3809
 8967TIP3    H248393   6.493   3.358  16.001 -0.1952  1.8531 -1.3187
 8968TIP3   OH248394   5.288   2.596  15.303 -0.2063  0.0083 -0.0842
 8968TIP3    H148395   5.312   2.580  15.212  0.9958  0.4627  0.1327
 8968TIP3    H248396   5.198   2.628  15.299 -0.2750 -0.2729 -1.0759
 8969TIP3   OH248397   4.378   2.016  15.272 -1.2582 -0.7595 -0.2236
 8969TIP3    H148398   4.292   2.059  15.274 -0.1225  1.6975  0.1882
 8969TIP3    H248399   4.440   2.088  15.258  0.8349 -2.2842  0.6753
 8970TIP3   OH248400   4.231   5.908  10.774 -0.0948  0.2079  0.2267
 8970TIP3    H148401   4.319   5.882  10.801 -0.5833  0.3009  2.0365
 8970TIP3    H248402   4.175   5.834  10.798 -0.7630  0.8778  0.8346
 8971TIP3   OH248403   5.806   1.930   5.419  0.4396 -0.1644  0.1081
 8971TIP3    H148404   5.733   1.876   5.450  1.2600 -1.3652 -0.0074
 8971TIP3    H248405   5.813   1.999   5.485 -0.5726 -0.2288  0.3085
 8972TIP3   OH248406   4.160   2.715   2.360 -0.1581 -0.0660 -0.4746
 8972TIP3    H148407   4.173   2.810   2.354  0.8953 -0.2931 -3.3465
 8972TIP3    H248408   4.240   2.683   2.403 -0.0673  0.2681 -0.3922
 8973TIP3   OH248409   4.069   2.707   1.612  0.4470 -0.0696  0.0672
 8973TIP3    H148410   4.149   2.713   1.559  1.1393  0.1188  1.1092
 8973TIP3    H248411   4.099   2.722   1.702 -0.7924  0.1778  0.4492
 8974TIP3   OH248412   5.892   4.962   2.578 -0.1957  0.1839  0.1144
 8974TIP3    H148413   5.813   4.995   2.621 -0.0636  0.9506 -0.2164
 8974TIP3    H248414   5.924   4.893   2.636  0.4606  1.7625  1.7417
 8975TIP3   OH248415   0.563   1.936   5.482  0.6207 -0.6673 -0.1308
 8975TIP3    H148416   0.527   1.939   5.571  0.2853  1.6490 -0.2980
 8975TIP3    H248417   0.639   1.994   5.485 -0.1101  0.4121 -1.6547
 8976TIP3   OH248418   4.629   6.598  12.489  0.0889 -0.1154  0.0866
 8976TIP3    H148419   4.640   6.693  12.487 -0.1439 -0.1041 -0.9795
 8976TIP3    H248420   4.555   6.584  12.549 -0.4175  0.4396 -0.3934
 8977TIP3   OH248421   2.856   5.844  14.627  0.0208  0.1315 -0.1333
 8977TIP3    H148422   2.825   5.902  14.696  1.6042 -0.1648  0.8812
 8977TIP3    H248423   2.948   5.868  14.615  0.1023 -0.6508 -1.2952
 8978TIP3   OH248424   2.109   0.815  14.656  0.3631 -0.5328 -1.2742
 8978TIP3    H148425   2.075   0.898  14.623  0.7513 -0.7707 -2.3470
 8978TIP3    H248426   2.046   0.749  14.626 -0.9875 -0.4883  1.2069
 8979TIP3   OH248427   2.915   1.812   6.515 -0.0411  0.3595 -0.3354
 8979TIP3    H148428   2.855   1.793   6.587  0.1618  0.9063 -0.0126
 8979TIP3    H248429   2.936   1.905   6.526  0.1050  0.4078 -1.0171
 8980TIP3   OH248430   1.707   2.851  11.491 -0.2460 -0.0761  0.0050
 8980TIP3    H148431   1.773   2.900  11.541 -0.2901  0.4250 -0.4198
 8980TIP3    H248432   1.735   2.760  11.498 -0.5853 -0.0990  1.4637
 8981TIP3   OH248433   6.272   5.866  15.404  0.0933 -0.5560 -0.5718
 8981TIP3    H148434   6.235   5.862  15.316  0.6207 -0.0438 -0.8310
 8981TIP3    H248435   6.361   5.832  15.394 -0.2408 -1.6229  0.0065
 8982TIP3   OH248436   1.730   2.235  15.983  0.0335  0.0173 -0.3890
 8982TIP3    H148437   1.769   2.319  16.009 -0.1125 -0.2276  0.6368
 8982TIP3    H248438   1.726   2.184  16.064  2.7394 -2.0889 -1.4118
 8983TIP3   OH248439   0.822   6.572   6.091 -0.2457 -0.4399 -0.7870
 8983TIP3    H148440   0.787   6.657   6.064 -0.4898 -0.3100 -0.0855
 8983TIP3    H248441   0.907   6.565   6.048  0.0257  0.4122 -0.4004
 8984TIP3   OH248442   6.803   5.878   0.290 -0.2525  0.1700 -0.1652
 8984TIP3    H148443   6.862   5.903   0.219 -0.0071  0.7277  0.2277
 8984TIP3    H248444   6.851   5.899   0.370  0.1707 -1.9939  0.2208
 8985TIP3   OH248445   3.808   4.163   5.741  0.4680  0.0800  0.4037
 8985TIP3    H148446   3.850   4.249   5.744  1.1352 -0.1845 -0.7536
 8985TIP3    H248447   3.769   4.152   5.828 -0.3872  1.9208  0.3104
 8986TIP3   OH248448   3.390   0.457  14.706  0.4807  0.0761 -0.8211
 8986TIP3    H148449   3.350   0.370  14.708 -2.4331  1.3085 -0.1710
 8986TIP3    H248450   3.426   0.469  14.794 -0.4650  0.0802 -0.4271
 8987TIP3   OH248451   3.686   6.849  12.327 -0.2648  0.0038  0.6692
 8987TIP3    H148452   3.779   6.838  12.311 -0.3660 -2.5223  1.3911
 8987TIP3    H248453   3.681   6.906  12.404  0.6346  0.6496  0.2682
 8988TIP3   OH248454   4.908   2.858   4.087  0.8768 -0.0732  0.4460
 8988TIP3    H148455   4.966   2.882   4.014  0.8930 -1.9400 -0.2164
 8988TIP3    H248456   4.961   2.872   4.165  2.0111 -1.0616 -0.1133
 8989TIP3   OH248457   6.628   4.824   4.573  0.4607 -0.1211 -0.5851
 8989TIP3    H148458   6.584   4.775   4.642  0.0204  0.5080 -0.4108
 8989TIP3    H248459   6.689   4.761   4.534 -1.6573 -1.5196 -1.8932
 8990TIP3   OH248460   2.065   6.803   3.518 -0.0908  0.0872  0.0194
 8990TIP3    H148461   2.114   6.884   3.527  0.1174 -0.2208  2.2368
 8990TIP3    H248462   1.984   6.818   3.566  0.3930 -1.2941  1.3849
 8991TIP3   OH248463   0.655   2.856  17.092 -0.0210 -0.1020  0.2334
 8991TIP3    H148464   0.712   2.788  17.127  0.7927  0.3191 -0.2418
 8991TIP3    H248465   0.636   2.912  17.167 -0.2286 -0.5281  0.5030
 8992TIP3   OH248466   2.827   5.721  11.758 -0.1338  0.0138 -0.5067
 8992TIP3    H148467   2.759   5.660  11.785 -0.7333  1.3206  1.1111
 8992TIP3    H248468   2.906   5.668  11.751 -0.5028 -0.8749  1.4596
 8993TIP3   OH248469   1.710   6.480  13.025  0.0457  0.6212 -0.0103
 8993TIP3    H148470   1.803   6.461  13.015 -0.5513 -2.0088 -1.6429
 8993TIP3    H248471   1.677   6.412  13.083 -0.9582  1.2082  0.1355
 8994TIP3   OH248472   5.428   2.213   1.737  0.2483  0.3127 -0.2877
 8994TIP3    H148473   5.368   2.286   1.723 -0.5814 -0.1907  0.4887
 8994TIP3    H248474   5.492   2.220   1.666 -0.8986  0.7044 -1.3331
 8995TIP3   OH248475   5.685   1.874   0.032 -0.4179 -0.1510  0.3588
 8995TIP3    H148476   5.685   1.923  -0.050 -2.4986  1.6633  1.3392
 8995TIP3    H248477   5.596   1.839   0.038 -0.7558  0.9470  2.4646
 8996TIP3   OH248478   5.421   3.780  11.323  0.6429 -0.4705 -0.2989
 8996TIP3    H148479   5.380   3.863  11.300 -0.8334 -0.7072  1.2563
 8996TIP3    H248480   5.505   3.806  11.362  1.2869  0.1196 -2.0114
 8997TIP3   OH248481   3.778   0.706   3.819 -0.7674 -0.0400 -0.2007
 8997TIP3    H148482   3.722   0.676   3.747  0.1767 -1.4036 -0.3855
 8997TIP3    H248483   3.862   0.665   3.803 -0.1195  0.8082  0.9020
 8998TIP3   OH248484   4.939   1.142  13.560 -0.3033  0.5136  0.8014
 8998TIP3    H148485   5.027   1.106  13.551 -0.6932 -0.2820 -0.0991
 8998TIP3    H248486   4.950   1.221  13.612  0.6906 -0.5160  2.2191
 8999TIP3   OH248487   2.605   5.753   0.126  0.0859 -0.2459 -0.6067
 8999TIP3    H148488   2.608   5.812   0.051 -0.4838 -1.1143 -1.3281
 8999TIP3    H248489   2.519   5.769   0.166  0.4990  0.4173  0.0449
 9000TIP3   OH248490   3.527   1.260  11.371  0.0644 -0.5992 -0.0630
 9000TIP3    H148491   3.613   1.293  11.344 -0.2345  0.5082  0.3170
 9000TIP3    H248492   3.506   1.310  11.450 -0.6795 -1.2684  0.1693
 9001TIP3   OH248493   3.900   4.599   1.390 -0.1155 -0.1019 -0.1349
 9001TIP3    H148494   3.982   4.628   1.349  1.3746  1.2945  3.4848
 9001TIP3    H248495   3.832   4.653   1.349  1.5440  2.6662  0.5790
 9002TIP3   OH248496   3.379   1.671   0.547  0.2502 -0.2891  0.6199
 9002TIP3    H148497   3.306   1.693   0.605 -2.5041 -0.4213 -2.5120
 9002TIP3    H248498   3.421   1.755   0.529 -1.3805  0.4050 -0.2182
 9003TIP3   OH248499   0.826   2.207   1.079  0.6343  0.6159 -0.1963
 9003TIP3    H148500   0.793   2.158   1.004  0.2425  1.0007 -0.2851
 9003TIP3    H248501   0.796   2.158   1.156  0.5392  0.5355 -0.2857
 9004TIP3   OH248502   2.537   0.751   3.991  0.2572  0.6520 -0.0558
 9004TIP3    H148503   2.499   0.690   3.928 -0.0942  1.9067 -1.1110
 9004TIP3    H248504   2.483   0.830   3.983  0.9797  1.2648  0.9257
 9005TIP3   OH248505   2.904   5.190  12.465 -0.1831  0.3642  0.4087
 9005TIP3    H148506   2.869   5.223  12.383  2.1781  0.3034 -0.7250
 9005TIP3    H248507   2.852   5.232  12.533 -1.0149  1.8400 -1.0848
 9006TIP3   OH248508   4.796   1.802  11.290  0.1918  0.0522  0.1716
 9006TIP3    H148509   4.723   1.809  11.351 -0.1329 -0.4834 -0.1462
 9006TIP3    H248510   4.757   1.819  11.204  0.9573  2.6729  0.2304
 9007TIP3   OH248511   6.672   5.981   6.027  0.3108  0.4636 -0.2774
 9007TIP3    H148512   6.617   5.924   5.973 -0.7432  2.7422 -1.7529
 9007TIP3    H248513   6.742   5.924   6.058  0.5623 -1.1688 -3.4587
 9008TIP3   OH248514   1.479   2.270  11.836 -0.5215  0.8813  0.5772
 9008TIP3    H148515   1.387   2.247  11.836 -0.4850  0.6011 -0.9839
 9008TIP3    H248516   1.500   2.287  11.744  1.5001 -1.2758  0.5294
 9009TIP3   OH248517   1.491   3.055   2.741 -1.3345 -0.5274  0.3968
 9009TIP3    H148518   1.580   3.020   2.739 -1.5669 -1.0887 -0.3861
 9009TIP3    H248519   1.474   3.070   2.834 -0.1298  0.3680  0.4959
 9010TIP3   OH248520   2.212   3.355  13.279  0.7018 -0.0182 -0.0554
 9010TIP3    H148521   2.190   3.448  13.270  1.9381  0.3265  0.1810
 9010TIP3    H248522   2.304   3.355  13.307  0.8188 -1.3264 -0.3671
 9011TIP3   OH248523   2.864   5.630   2.641  0.6739 -0.1132  0.2964
 9011TIP3    H148524   2.931   5.650   2.706  0.4267  0.0546  0.5041
 9011TIP3    H248525   2.792   5.690   2.662  0.1392 -0.8361  0.5909
 9012TIP3   OH248526   0.096   1.358   0.075  0.4601 -0.2056  0.4869
 9012TIP3    H148527   0.075   1.293   0.142  0.4672  0.1967  0.8832
 9012TIP3    H248528   0.018   1.363   0.020  0.0907  0.1628  1.0377
 9013TIP3   OH248529   0.976   0.875   2.642 -0.2056 -0.0262 -0.7062
 9013TIP3    H148530   1.071   0.885   2.643 -0.1190 -0.7675  0.2791
 9013TIP3    H248531   0.950   0.905   2.555  0.9977 -0.4436 -1.2397
 9014TIP3   OH248532   0.390   2.984   2.772  0.4510  0.4991  0.0612
 9014TIP3    H148533   0.333   3.022   2.839 -1.8721 -1.4392 -0.6941
 9014TIP3    H248534   0.412   2.897   2.806 -0.4126 -0.3454 -1.4607
 9015TIP3   OH248535   5.682   6.776  12.828  0.2735  0.0150 -0.3212
 9015TIP3    H148536   5.763   6.802  12.784 -0.2349 -0.3379 -1.4974
 9015TIP3    H248537   5.628   6.738  12.759 -0.8455  0.1165  0.4698
 9016TIP3   OH248538   0.668   2.710  14.894 -0.3759 -0.1711  0.0972
 9016TIP3    H148539   0.638   2.795  14.860 -2.2122  0.0775  2.1132
 9016TIP3    H248540   0.735   2.733  14.959  1.9698 -0.5589 -2.0403
 9017TIP3   OH248541   1.780   3.734   4.862  0.1319  0.3009 -0.1963
 9017TIP3    H148542   1.842   3.725   4.789 -0.0517 -0.1537 -0.3036
 9017TIP3    H248543   1.716   3.663   4.847  1.0931 -0.9749  1.4033
 9018TIP3   OH248544   4.700   1.869  12.500 -0.3815 -0.0025 -0.3129
 9018TIP3    H148545   4.660   1.843  12.582  1.4058 -0.8481  0.3453
 9018TIP3    H248546   4.629   1.865  12.436 -1.4409 -0.9866  0.8716
 9019TIP3   OH248547   1.497   4.501  13.778 -0.3180 -0.0624  0.1441
 9019TIP3    H148548   1.577   4.554  13.780 -1.1659  1.2906 -0.1230
 9019TIP3    H248549   1.517   4.431  13.715  0.9330 -0.2491  0.7168
 9020TIP3   OH248550   3.955   5.086   4.365 -0.6017 -0.1245  0.6095
 9020TIP3    H148551   4.018   5.020   4.393  1.2242  1.4897  0.5488
 9020TIP3    H248552   3.908   5.111   4.445 -0.1137 -0.2850  0.9474
 9021TIP3   OH248553   4.936   4.108  16.172  0.2886 -0.8978  0.3680
 9021TIP3    H148554   4.907   4.038  16.230  0.0527 -0.6996  0.4967
 9021TIP3    H248555   4.993   4.162  16.226 -1.6223  0.5111  1.1146
 9022TIP3   OH248556   5.805   1.752   4.394 -0.3727  0.1179  0.3873
 9022TIP3    H148557   5.744   1.775   4.325 -1.2878  0.6546  1.3518
 9022TIP3    H248558   5.891   1.767   4.357 -0.8774  1.9335 -0.1132
 9023TIP3   OH248559   4.492   4.897   0.371  0.2572 -0.2234 -0.2614
 9023TIP3    H148560   4.466   4.813   0.408 -1.3966  0.4658  0.2219
 9023TIP3    H248561   4.547   4.938   0.438  0.6820 -0.7187 -0.3065
 9024TIP3   OH248562   2.462   3.729   0.100 -0.0066 -0.3681  0.6783
 9024TIP3    H148563   2.553   3.740   0.128 -0.5844  1.4853  2.0182
 9024TIP3    H248564   2.450   3.796   0.032 -0.5752 -0.0613  1.0731
 9025TIP3   OH248565   2.762   6.418  10.708 -0.0896 -0.1415  0.1981
 9025TIP3    H148566   2.847   6.449  10.675 -0.5073  0.7380 -0.0803
 9025TIP3    H248567   2.705   6.419  10.631  0.1246 -2.6345 -0.0634
 9026TIP3   OH248568   5.556   1.514   2.157 -0.4601 -0.5391 -0.3232
 9026TIP3    H148569   5.535   1.513   2.251 -0.8073  3.4329 -0.1727
 9026TIP3    H248570   5.651   1.504   2.153 -0.3372  0.1486  0.5699
 9027TIP3   OH248571   5.688   0.129   4.716  0.8007 -0.2478 -0.3527
 9027TIP3    H148572   5.735   0.200   4.760 -0.7706  0.8681 -0.3790
 9027TIP3    H248573   5.755   0.063   4.699  1.7115 -0.2647  2.7093
 9028TIP3   OH248574   3.152   5.755   0.937 -0.1313  0.0677  0.1420
 9028TIP3    H148575   3.207   5.806   0.996 -0.4867  1.3778 -0.6135
 9028TIP3    H248576   3.106   5.693   0.994  0.3977  0.5062  1.0705
 9029TIP3   OH248577   1.471   0.681   0.397  0.0241  0.2675  0.1341
 9029TIP3    H148578   1.390   0.638   0.368 -0.2081  0.2284  0.8179
 9029TIP3    H248579   1.517   0.703   0.316 -0.8085  0.5595 -0.2725
 9030TIP3   OH248580   5.749   4.447  16.958 -0.0952 -0.3063 -0.5698
 9030TIP3    H148581   5.822   4.408  16.909 -0.0701 -0.2900 -0.5461
 9030TIP3    H248582   5.741   4.393  17.037  1.3232  0.9730  0.5226
 9031TIP3   OH248583   4.344   6.495   2.066  0.1023 -0.1870  0.1322
 9031TIP3    H148584   4.281   6.439   2.021 -0.5181  1.0858 -0.6369
 9031TIP3    H248585   4.425   6.445   2.065 -0.1649 -0.6598 -1.4799
 9032TIP3   OH248586   6.533   2.010   3.654 -0.2808  0.4316 -0.5596
 9032TIP3    H148587   6.601   1.974   3.711 -0.6504  0.1004 -0.3156
 9032TIP3    H248588   6.557   2.102   3.643  0.7957  0.0708 -1.3588
 9033TIP3   OH248589   2.853   3.856   2.561 -0.3432 -0.3248 -0.2055
 9033TIP3    H148590   2.946   3.871   2.580 -0.8641 -0.1947  2.8577
 9033TIP3    H248591   2.849   3.764   2.534  0.5517 -0.9252  1.4894
 9034TIP3   OH248592   2.325   5.115   0.219  0.8959 -0.8359 -0.2377
 9034TIP3    H148593   2.373   5.176   0.275 -0.7742 -0.3390  0.7200
 9034TIP3    H248594   2.357   5.029   0.244  2.8386 -0.4320 -1.1789
 9035TIP3   OH248595   5.356   1.418  16.002  0.5516  0.4560 -0.7059
 9035TIP3    H148596   5.339   1.494  16.058  0.1026 -1.1273  1.4341
 9035TIP3    H248597   5.272   1.400  15.960  0.3605  0.4461 -0.3181
 9036TIP3   OH248598   5.860   2.764  12.849 -0.2343 -0.0317  0.7517
 9036TIP3    H148599   5.862   2.684  12.796  3.1006  1.3283 -1.4516
 9036TIP3    H248600   5.796   2.820  12.805  1.9152  0.7684 -1.6283
 9037TIP3   OH248601   5.125   0.752  13.602 -0.3131 -0.5798 -0.1676
 9037TIP3    H148602   5.070   0.828  13.618 -1.1079 -0.8706 -1.3814
 9037TIP3    H248603   5.200   0.763  13.661 -0.4112  1.1230 -0.3212
 9038TIP3   OH248604   0.958   2.529  16.961 -0.3003 -0.5717 -0.0822
 9038TIP3    H148605   0.919   2.571  16.884 -0.1627  2.7663  1.5265
 9038TIP3    H248606   1.051   2.547  16.954 -0.2901 -0.2143  0.8590
 9039TIP3   OH248607   6.306   2.079  12.673 -0.2203 -0.1852  0.1231
 9039TIP3    H148608   6.277   2.084  12.764 -0.3033  0.4606  0.0664
 9039TIP3    H248609   6.338   2.167  12.653 -2.7584  0.5030 -1.3077
 9040TIP3   OH248610   6.766   5.892   0.685 -0.2007 -0.3604 -0.4420
 9040TIP3    H148611   6.695   5.952   0.709  1.3840  1.8131 -0.8444
 9040TIP3    H248612   6.747   5.868   0.595 -0.2983  0.4034 -0.6327
 9041TIP3   OH248613   0.214   2.029   1.827 -0.8751  0.1264 -1.0167
 9041TIP3    H148614   0.155   2.002   1.757 -0.0613 -0.8845 -1.3363
 9041TIP3    H248615   0.246   1.947   1.865 -0.4271  0.6546 -0.2133
 9042TIP3   OH248616   0.299   3.861  11.446  0.6887  0.6390  0.6210
 9042TIP3    H148617   0.341   3.810  11.377 -0.3643 -0.0106  0.4403
 9042TIP3    H248618   0.363   3.862  11.517  1.4609  0.6362 -0.0639
 9043TIP3   OH248619   4.166   6.057  11.974  0.5634 -0.2633 -0.0720
 9043TIP3    H148620   4.089   6.018  12.016  0.2742  1.9477  1.6580
 9043TIP3    H248621   4.146   6.055  11.881 -1.4360 -0.1252  0.2933
 9044TIP3   OH248622   0.003   6.218   4.625  0.6639 -0.1886  0.3301
 9044TIP3    H148623   0.078   6.264   4.588 -1.0822  2.6198 -0.0119
 9044TIP3    H248624  -0.023   6.270   4.701 -1.2631 -0.7133  0.0890
 9045TIP3   OH248625   1.978   1.898   3.885 -0.0612 -0.5621  0.1403
 9045TIP3    H148626   1.890   1.886   3.921  1.0635  1.6976  4.1302
 9045TIP3    H248627   1.995   1.991   3.894  2.4705 -0.7911 -1.4124
 9046TIP3   OH248628   1.919   4.449  16.045  0.6988 -0.4783 -0.6297
 9046TIP3    H148629   1.949   4.474  16.132  1.0654 -1.2246 -0.5333
 9046TIP3    H248630   1.830   4.484  16.039  1.3211  1.1980 -0.6759
 9047TIP3   OH248631   6.060   5.193  11.079  0.0047  0.4990 -0.1843
 9047TIP3    H148632   6.061   5.145  11.162 -0.8057  1.3657  0.3359
 9047TIP3    H248633   6.094   5.130  11.015 -0.3874 -0.5395  0.6059
 9048TIP3   OH248634   2.543   0.688  12.607  0.5358  0.2201 -0.0545
 9048TIP3    H148635   2.515   0.701  12.697 -0.8114  1.3204 -0.5816
 9048TIP3    H248636   2.510   0.601  12.583 -0.9590  0.7594 -0.0905
 9049TIP3   OH248637   2.574   4.791   5.270 -0.3728  0.3630  0.1531
 9049TIP3    H148638   2.567   4.812   5.177 -0.1216 -0.0291  0.0444
 9049TIP3    H248639   2.491   4.748   5.291 -0.1520 -0.1740 -0.0573
 9050TIP3   OH248640   3.901   1.310   1.379  0.3707 -0.1749  0.1022
 9050TIP3    H148641   3.916   1.335   1.470 -3.3635 -0.4413  0.9623
 9050TIP3    H248642   3.878   1.217   1.383 -3.3334  0.5294 -0.3970
 9051TIP3   OH248643   3.294   4.732   3.569 -0.7371 -0.2718  0.0991
 9051TIP3    H148644   3.343   4.662   3.613  0.6519 -0.3942 -1.5250
 9051TIP3    H248645   3.346   4.811   3.585  0.5716 -0.5259 -2.2746
 9052TIP3   OH248646   6.099   6.333  17.040  0.4342 -0.3017 -0.0845
 9052TIP3    H148647   6.171   6.317  17.101 -0.0449  2.1896  1.2469
 9052TIP3    H248648   6.022   6.300  17.087  0.4061 -0.9645 -0.5815
 9053TIP3   OH248649   3.315   1.057  11.355  0.3861 -0.8089  0.4572
 9053TIP3    H148650   3.248   1.119  11.327  0.3862 -1.3344 -0.7737
 9053TIP3    H248651   3.382   1.112  11.398  0.1446 -0.0262 -0.1377
 9054TIP3   OH248652   1.592   0.470   0.557  0.3071 -0.2843  0.1321
 9054TIP3    H148653   1.590   0.549   0.504 -1.7158  0.0355  0.5882
 9054TIP3    H248654   1.658   0.486   0.623  0.5471  0.6554 -0.3279
 9055TIP3   OH248655   2.352   3.173  16.561 -0.2565 -0.0586 -0.7887
 9055TIP3    H148656   2.414   3.107  16.530  0.1526 -0.1776  0.2486
 9055TIP3    H248657   2.330   3.146  16.650  0.1107  1.3233 -0.2416
 9056TIP3   OH248658   2.859   6.370  16.442  0.1813 -0.0744  0.1102
 9056TIP3    H148659   2.809   6.395  16.520  0.0734  1.4553 -0.4100
 9056TIP3    H248660   2.799   6.315  16.392  0.1826 -0.9072  1.0009
 9057TIP3   OH248661   2.522   1.347  12.835  0.1244  0.1839 -0.3128
 9057TIP3    H148662   2.443   1.331  12.783  0.3370 -0.0767 -0.5624
 9057TIP3    H248663   2.580   1.395  12.776 -0.8729  2.8090  0.7308
 9058TIP3   OH248664   5.685   1.898  12.998  0.1971  0.8550 -0.5026
 9058TIP3    H148665   5.705   1.859  13.083 -2.3211 -1.2336 -0.7616
 9058TIP3    H248666   5.678   1.992  13.017  1.3030  0.6496  1.2199
 9059TIP3   OH248667   2.627   4.968  11.853  0.1356 -0.0585  0.8697
 9059TIP3    H148668   2.647   4.911  11.928 -3.0245 -1.1870  0.9923
 9059TIP3    H248669   2.689   4.942  11.785  1.0555 -1.1496  2.0847
 9060TIP3   OH248670   6.703   5.062   4.081  0.6179 -0.5690  0.5088
 9060TIP3    H148671   6.744   5.069   4.168  1.0722  0.8133  0.2240
 9060TIP3    H248672   6.609   5.070   4.098  0.7667  0.8254  0.8079
 9061TIP3   OH248673   4.901   0.076   1.873  0.0860 -0.2696 -0.0939
 9061TIP3    H148674   4.825   0.133   1.864  0.2794 -0.3071 -2.5378
 9061TIP3    H248675   4.891   0.037   1.960 -1.2773  1.6763  0.6936
 9062TIP3   OH248676   4.049   2.302  12.601  0.0650 -0.0529  0.2288
 9062TIP3    H148677   3.985   2.310  12.671 -1.3794  2.1759 -1.1959
 9062TIP3    H248678   3.997   2.299  12.521  1.6949 -0.7135 -0.8703
 9063TIP3   OH248679   6.224   6.080  13.230  0.3633  0.2678  0.2354
 9063TIP3    H148680   6.219   6.056  13.138 -0.7406  0.7623  0.1523
 9063TIP3    H248681   6.185   6.167  13.235 -0.8526 -0.3047  1.3450
 9064TIP3   OH248682   0.506   2.407  11.020  0.0113  0.6367  0.3440
 9064TIP3    H148683   0.560   2.342  11.066 -0.0246 -0.0526 -0.5683
 9064TIP3    H248684   0.541   2.492  11.049  1.1135  0.2017  0.3120
 9065TIP3   OH248685   2.756   4.606   2.029 -0.1665 -0.5655 -0.2755
 9065TIP3    H148686   2.737   4.658   2.106  1.4700 -0.0950 -0.1613
 9065TIP3    H248687   2.726   4.518   2.051 -0.9052 -0.1544  0.3817
 9066TIP3   OH248688   5.439   1.504   0.698 -0.2629 -0.2207  0.2411
 9066TIP3    H148689   5.440   1.556   0.778  0.7457  0.6000 -0.2756
 9066TIP3    H248690   5.530   1.475   0.687 -0.9139 -2.7630  0.9017
 9067TIP3   OH248691   2.699   5.738  11.139  0.4137 -0.1508  0.3292
 9067TIP3    H148692   2.699   5.834  11.134 -0.8766 -0.1490  0.0550
 9067TIP3    H248693   2.739   5.719  11.224  0.9330  0.6100  0.2729
 9068TIP3   OH248694   1.848   2.387  16.595 -0.0647 -0.2358  0.6496
 9068TIP3    H148695   1.870   2.451  16.663  1.4465 -1.1084  1.0387
 9068TIP3    H248696   1.753   2.382  16.596 -0.2864  2.4416  0.1720
 9069TIP3   OH248697   3.178   6.806   5.894 -0.0435  0.2130 -0.1771
 9069TIP3    H148698   3.087   6.779   5.908 -0.7544  1.8786 -1.2763
 9069TIP3    H248699   3.210   6.748   5.825  0.2175 -1.2905  1.1403
 9070TIP3   OH248700   2.062   0.825   0.428 -0.2326 -0.2961 -0.2027
 9070TIP3    H148701   1.996   0.833   0.359 -1.3598 -1.3079  0.7033
 9070TIP3    H248702   2.014   0.789   0.502  0.8769  0.9977  1.2188
 9071TIP3   OH248703   1.571   0.700  15.056 -0.6218  0.3881  0.2533
 9071TIP3    H148704   1.647   0.757  15.043  0.7203 -1.4845 -0.5873
 9071TIP3    H248705   1.567   0.686  15.151  0.7264 -0.2713  0.2385
 9072TIP3   OH248706   3.821   3.074  15.138  0.4259  0.0378  0.5198
 9072TIP3    H148707   3.867   3.089  15.221  0.5459  1.3983  0.2301
 9072TIP3    H248708   3.869   3.126  15.074  1.7325 -2.7615 -0.9323
 9073TIP3   OH248709   0.656   5.008   5.258  0.2306  0.1231 -0.0454
 9073TIP3    H148710   0.738   4.958   5.249  0.0164 -0.1311 -0.5944
 9073TIP3    H248711   0.628   5.025   5.168  1.8764  3.9215 -0.0466
 9074TIP3   OH248712   3.473   3.907   1.979  0.1592 -0.1683 -0.1994
 9074TIP3    H148713   3.417   3.910   1.902  3.8836 -1.1093 -3.2345
 9074TIP3    H248714   3.469   3.816   2.008 -0.5160 -0.0171  0.2292
 9075TIP3   OH248715   3.812   6.860  16.830  0.4750 -0.5452 -0.7144
 9075TIP3    H148716   3.819   6.865  16.925  0.5649  0.0368 -0.7507
 9075TIP3    H248717   3.902   6.847  16.799  0.5391 -0.0308 -0.7574
 9076TIP3   OH248718   4.723   5.119   4.483  0.2280 -0.1430  0.1665
 9076TIP3    H148719   4.648   5.170   4.516  0.3949  0.4222 -0.3042
 9076TIP3    H248720   4.742   5.158   4.398  1.0337 -0.3102  0.2632
 9077TIP3   OH248721   1.907   2.729  11.012  0.3080 -0.0456 -0.1945
 9077TIP3    H148722   1.971   2.718  10.941  0.1599 -0.8890 -0.2015
 9077TIP3    H248723   1.833   2.772  10.970  0.4445 -0.0394 -0.4303
 9078TIP3   OH248724   6.079   5.562   2.728 -0.0522  0.4234 -0.9629
 9078TIP3    H148725   6.020   5.544   2.654  0.7975  2.0519 -2.0947
 9078TIP3    H248726   6.133   5.483   2.734 -2.1120 -1.0092 -0.0503
 9079TIP3   OH248727   4.062   1.993   3.838 -0.0341 -0.5305 -0.0177
 9079TIP3    H148728   4.005   2.011   3.913  2.6138 -1.2235  2.3932
 9079TIP3    H248729   4.107   1.912   3.862  1.3143 -0.4961 -2.1664
 9080TIP3   OH248730   5.128   4.275   5.140  0.1676 -0.2361  0.5224
 9080TIP3    H148731   5.066   4.339   5.173  0.4508  0.1544  0.3067
 9080TIP3    H248732   5.080   4.192   5.143 -0.1476 -0.0430  0.9466
 9081TIP3   OH248733   2.388   3.254   4.940  0.7618 -0.1709  0.1382
 9081TIP3    H148734   2.319   3.308   4.977  0.7487 -0.8792  1.2076
 9081TIP3    H248735   2.418   3.199   5.014 -0.1063 -2.5461 -1.1603
 9082TIP3   OH248736   5.770   0.809  16.097 -0.1998  0.0241  0.5165
 9082TIP3    H148737   5.851   0.759  16.109 -1.3344 -1.3263  3.5173
 9082TIP3    H248738   5.790   0.896  16.131  0.0138 -0.3204  1.2932
 9083TIP3   OH248739   5.502   6.641   5.744 -0.5198  0.2120  0.1099
 9083TIP3    H148740   5.485   6.698   5.819 -0.3502 -0.7783  0.9148
 9083TIP3    H248741   5.514   6.554   5.781  1.3249 -0.0146 -0.9009
 9084TIP3   OH248742   0.886   1.174  11.564  0.1009 -0.0162  0.0259
 9084TIP3    H148743   0.944   1.116  11.514  1.7065  3.0471 -1.9699
 9084TIP3    H248744   0.810   1.187  11.507 -0.4562 -0.4362  0.6539
 9085TIP3   OH248745   2.802   5.401  17.022  0.5103 -0.1935 -0.0644
 9085TIP3    H148746   2.883   5.355  17.001  0.0084 -0.0049 -2.7722
 9085TIP3    H248747   2.743   5.334  17.054  1.4982 -0.4260  1.3883
 9086TIP3   OH248748   1.219   4.265   2.135  0.6261  0.0153 -0.4896
 9086TIP3    H148749   1.170   4.189   2.104  1.2219 -0.2605 -0.7659
 9086TIP3    H248750   1.201   4.333   2.071 -0.3906  0.2983  0.0781
 9087TIP3   OH248751   5.592   3.960  13.015  0.1555  0.2638  0.5658
 9087TIP3    H148752   5.504   3.952  13.053 -0.3834  0.0377 -0.6594
 9087TIP3    H248753   5.601   4.054  12.996  1.7121  0.9671  4.0653
 9088TIP3   OH248754   4.342   3.544   6.037  0.0570  0.6407 -0.0422
 9088TIP3    H148755   4.368   3.452   6.041 -1.9765 -0.0004 -0.5416
 9088TIP3    H248756   4.312   3.564   6.126 -1.4889  0.1656 -0.4347
 9089TIP3   OH248757   5.851   1.715   2.937  0.0082  0.1419 -0.6393
 9089TIP3    H148758   5.824   1.685   3.023  2.2483  0.7838  0.3542
 9089TIP3    H248759   5.873   1.635   2.889  1.1187 -0.1092  0.2573
 9090TIP3   OH248760   5.486   6.804   3.010  0.1339  0.6335 -0.5088
 9090TIP3    H148761   5.554   6.738   2.998  0.3898  0.7261  0.3552
 9090TIP3    H248762   5.517   6.858   3.083  0.4281  2.3550 -1.8360
 9091TIP3   OH248763   1.918   2.410   4.908  0.2391  0.6077  0.5619
 9091TIP3    H148764   1.859   2.428   4.981 -0.8747 -2.8568  0.7082
 9091TIP3    H248765   1.861   2.415   4.830  0.3986  0.0187  0.4048
 9092TIP3   OH248766   5.683   3.328  17.033  0.0220 -0.7359 -0.3582
 9092TIP3    H148767   5.691   3.388  17.107  1.1601 -1.2855 -0.0221
 9092TIP3    H248768   5.687   3.241  17.072  1.7916 -1.0468 -1.1490
 9093TIP3   OH248769   0.989   3.777   2.388 -0.1549  0.2397 -0.0980
 9093TIP3    H148770   0.962   3.805   2.476  2.2878  2.9413 -0.0344
 9093TIP3    H248771   0.909   3.783   2.335 -1.3684 -0.0312  1.6174
 9094TIP3   OH248772   5.497   0.173  13.271  0.1080  0.2217  0.0125
 9094TIP3    H148773   5.408   0.207  13.275  0.0246  0.0782 -0.5593
 9094TIP3    H248774   5.516   0.165  13.177 -0.4537 -2.8261  0.0528
 9095TIP3   OH248775   3.918   1.266   0.820 -0.1059 -0.1556  0.3777
 9095TIP3    H148776   3.958   1.217   0.893 -1.4345  2.8325  3.4140
 9095TIP3    H248777   3.986   1.329   0.795 -0.0651 -0.4314 -0.2170
 9096TIP3   OH248778   5.241   3.523  10.535 -0.0970 -0.2174 -0.2195
 9096TIP3    H148779   5.331   3.530  10.567  0.2882 -0.2779 -1.2664
 9096TIP3    H248780   5.193   3.484  10.608  0.9756 -1.3467 -0.0846
 9097TIP3   OH248781   2.328   4.890  16.732 -0.2101 -0.3187  0.3861
 9097TIP3    H148782   2.272   4.829  16.684 -1.4259  1.7980 -1.0607
 9097TIP3    H248783   2.275   4.919  16.807 -0.3714  0.2989  0.0448
 9098TIP3   OH248784   4.970   0.437   3.886  0.0102  0.5486  0.2320
 9098TIP3    H148785   4.953   0.403   3.799 -0.6081  0.3833  0.4102
 9098TIP3    H248786   5.053   0.484   3.878 -0.4045  1.1659 -0.6201
 9099TIP3   OH248787   5.325   4.246   0.038  0.5563  0.0262 -0.0895
 9099TIP3    H148788   5.356   4.251   0.128  0.4120  1.0853 -0.0842
 9099TIP3    H248789   5.237   4.210   0.045 -0.4022  2.3091  0.4536
 9100TIP3   OH248790   0.593   1.552   0.577 -0.5247 -0.0977  0.4127
 9100TIP3    H148791   0.565   1.639   0.604  1.1138  0.3427  0.8098
 9100TIP3    H248792   0.555   1.541   0.490 -0.7609  1.0095  0.3555
 9101TIP3   OH248793   1.572   4.733   6.006 -0.6166 -0.3906  0.1806
 9101TIP3    H148794   1.544   4.644   6.029  0.7125 -0.5542  1.2658
 9101TIP3    H248795   1.628   4.760   6.079 -0.3613  1.0430 -0.5184
 9102TIP3   OH248796   6.190   4.241  12.236  0.4200  0.3945  0.0641
 9102TIP3    H148797   6.240   4.293  12.174  0.9302  0.6730  0.6933
 9102TIP3    H248798   6.104   4.282  12.238  1.3355  2.4586  1.9317
 9103TIP3   OH248799   2.834   4.370  17.119  0.2512  0.2135 -0.3336
 9103TIP3    H148800   2.790   4.305  17.063 -0.1723  1.0392 -0.9798
 9103TIP3    H248801   2.889   4.419  17.059 -1.7384  2.4645 -0.4702
 9104TIP3   OH248802   1.615   6.149   4.056  0.3146  0.0050 -0.3433
 9104TIP3    H148803   1.708   6.136   4.071  0.4411  0.7810 -0.3737
 9104TIP3    H248804   1.596   6.104   3.974  0.3347 -1.4197  0.4059
 9105TIP3   OH248805   1.811   3.106  15.027 -0.2671  0.6774  0.3139
 9105TIP3    H148806   1.870   3.137  15.095  0.4721  0.1162 -0.0548
 9105TIP3    H248807   1.786   3.018  15.055  0.7956  0.0654 -0.5919
 9106TIP3   OH248808   0.087   2.598  16.879 -0.3730  0.1006 -0.2831
 9106TIP3    H148809   0.109   2.505  16.877  0.3158  0.2554 -2.3107
 9106TIP3    H248810   0.172   2.642  16.881 -0.6378  0.6840 -1.3725
 9107TIP3   OH248811   3.456   0.041  10.737 -0.4862 -0.4253  0.1371
 9107TIP3    H148812   3.469   0.026  10.831 -1.8330  1.5217  0.6893
 9107TIP3    H248813   3.363   0.023  10.722 -1.1565  2.6919 -0.0211
 9108TIP3   OH248814   1.057   5.998   0.704  0.0750 -0.3503 -0.8037
 9108TIP3    H148815   1.041   5.905   0.721 -3.0799  0.3437  0.8531
 9108TIP3    H248816   1.012   6.016   0.622  0.0079 -0.1381 -0.7221
 9109TIP3   OH248817   0.315   4.696  14.023 -0.5493  0.2771 -0.1009
 9109TIP3    H148818   0.265   4.702  13.941  1.7970  0.1180 -1.6382
 9109TIP3    H248819   0.301   4.780  14.066 -2.6138  0.0011 -0.1045
 9110TIP3   OH248820   3.196   0.270   4.066 -0.4599  0.0318 -0.3619
 9110TIP3    H148821   3.290   0.255   4.057 -0.0676  1.9491  0.0850
 9110TIP3    H248822   3.163   0.191   4.111  0.5243 -1.6078 -2.3707
 9111TIP3   OH248823   4.969   4.178   2.552  0.3682 -0.1762 -0.1624
 9111TIP3    H148824   4.959   4.101   2.607 -1.3883 -0.0631 -0.2776
 9111TIP3    H248825   4.972   4.143   2.463  2.0710 -0.2689 -0.1039
 9112TIP3   OH248826   5.999   1.707  11.264  0.0558 -0.4648  0.2750
 9112TIP3    H148827   5.945   1.634  11.232  0.7872 -1.2610  0.7961
 9112TIP3    H248828   6.080   1.700  11.213 -0.5897  1.1858 -1.0456
 9113TIP3   OH248829   3.085   5.505   4.661 -0.4772  0.1894  0.0727
 9113TIP3    H148830   3.157   5.501   4.724 -0.2697  0.0490 -0.1721
 9113TIP3    H248831   3.092   5.424   4.611  0.4997  1.1050 -1.3540
 9114TIP3   OH248832   0.813   0.478   4.464  0.1976 -0.1396 -0.1781
 9114TIP3    H148833   0.851   0.414   4.403 -0.6450 -0.0727 -0.7876
 9114TIP3    H248834   0.806   0.558   4.413  0.7814  0.3120  0.4366
 9115TIP3   OH248835   1.609   6.075   4.840  0.5625 -0.0644 -0.2204
 9115TIP3    H148836   1.629   6.166   4.818 -1.3625  0.1612 -1.2320
 9115TIP3    H248837   1.603   6.074   4.936 -0.4142  1.1142 -0.2520
 9116TIP3   OH248838   1.611   2.991   0.185  0.2471  0.1213 -0.2831
 9116TIP3    H148839   1.658   3.073   0.194 -1.5002  1.5248 -2.7599
 9116TIP3    H248840   1.637   2.957   0.100 -1.6283 -0.0666 -0.8232
 9117TIP3   OH248841   3.450   4.091   3.430  0.6461  0.2890  0.1641
 9117TIP3    H148842   3.513   4.063   3.364 -1.1995 -1.0849 -1.1266
 9117TIP3    H248843   3.476   4.045   3.509  0.1405 -1.8850 -0.8588
 9118TIP3   OH248844   6.700   4.991   0.363  0.2167 -0.3659 -0.5455
 9118TIP3    H148845   6.702   4.956   0.452 -0.6859 -1.1871 -0.8365
 9118TIP3    H248846   6.636   5.063   0.366  0.1272 -0.4456 -0.5548
 9119TIP3   OH248847   5.310   5.081   5.575  0.5283 -0.4439 -0.0203
 9119TIP3    H148848   5.326   5.017   5.505 -0.2582 -0.7750  0.0986
 9119TIP3    H248849   5.295   5.163   5.528  1.6880 -0.2927 -0.1671
 9120TIP3   OH248850   6.322   6.342  15.742  0.0080  0.5142 -0.1789
 9120TIP3    H148851   6.417   6.330  15.733 -0.0121  1.2360 -1.7138
 9120TIP3    H248852   6.310   6.437  15.738 -0.8964  0.3649 -1.5520
 9121TIP3   OH248853   2.683   6.849   2.233 -0.1015 -0.1004  0.1862
 9121TIP3    H148854   2.628   6.853   2.311  0.4499  0.4665  0.5553
 9121TIP3    H248855   2.679   6.937   2.196  2.0610  0.5356  1.2930
 9122TIP3   OH248856   2.280   4.637  16.134 -0.4990 -0.3318  0.5560
 9122TIP3    H148857   2.195   4.595  16.153 -1.5201  1.7858  0.9663
 9122TIP3    H248858   2.260   4.731  16.131  1.7806  0.1948  0.2248
 9123TIP3   OH248859   1.891   6.842  11.372  0.1781  0.6995  0.5332
 9123TIP3    H148860   1.857   6.924  11.337 -0.1032  1.5121  2.5647
 9123TIP3    H248861   1.960   6.868  11.433  0.1766 -0.5912  1.1231
 9124TIP3   OH248862   4.709   5.076   2.184  0.4923  0.3537 -0.2225
 9124TIP3    H148863   4.788   5.130   2.175  0.1005  0.7143 -1.7676
 9124TIP3    H248864   4.733   4.992   2.145  0.3064  0.2443 -0.1031
 9125TIP3   OH248865   1.786   1.486  10.939  0.5436  1.0516  0.0305
 9125TIP3    H148866   1.767   1.412  10.881  1.2679  0.1318  0.9478
 9125TIP3    H248867   1.701   1.529  10.952  0.1536  0.5034 -0.6598
 9126TIP3   OH248868   5.008   1.205  11.198  0.0496 -0.6016  0.0582
 9126TIP3    H148869   4.914   1.205  11.181  0.1127  0.7395 -0.4224
 9126TIP3    H248870   5.017   1.246  11.284  0.2709  0.8128 -0.6094
 9127TIP3   OH248871   5.226   5.064  13.383  0.6983 -0.2490 -0.5958
 9127TIP3    H148872   5.234   5.097  13.473 -0.8194 -1.4178  0.0198
 9127TIP3    H248873   5.132   5.059  13.368  0.8762  2.1846 -3.1806
 9128TIP3   OH248874   4.922   3.895   4.189 -0.1853 -0.1485  0.3008
 9128TIP3    H148875   5.002   3.947   4.194 -1.2053  1.4143  1.3714
 9128TIP3    H248876   4.923   3.843   4.269 -0.5485  0.3725  0.6500
 9129TIP3   OH248877   1.947   6.603   1.056  0.0118 -0.3233 -0.0271
 9129TIP3    H148878   1.902   6.610   1.140  0.3814 -0.5215  0.1875
 9129TIP3    H248879   1.976   6.692   1.037 -2.3557  0.2697 -1.2277
 9130TIP3   OH248880   5.557   6.825  15.637 -0.5316  0.3299  0.3360
 9130TIP3    H148881   5.651   6.837  15.622 -0.4497 -1.0368 -0.3714
 9130TIP3    H248882   5.542   6.861  15.724  0.7396  0.1285  0.6561
 9131TIP3   OH248883   1.132   3.865   2.181 -0.3726  0.4475 -0.0054
 9131TIP3    H148884   1.065   3.824   2.235 -1.5386  1.7167 -0.4439
 9131TIP3    H248885   1.084   3.927   2.125  1.0368  0.6473 -1.0546
 9132TIP3   OH248886   3.703   0.068   1.914  0.7861  0.0754 -0.3617
 9132TIP3    H148887   3.750   0.098   1.991  1.1295 -0.2197 -0.4534
 9132TIP3    H248888   3.716   0.138   1.849 -0.0739  0.6440  0.0576
 9133TIP3   OH248889   6.054   0.192   0.467  0.1923 -0.2893 -0.7904
 9133TIP3    H148890   6.038   0.100   0.443  1.1821 -1.0394  1.1222
 9133TIP3    H248891   5.996   0.242   0.411 -2.1365 -2.2363 -0.2965
 9134TIP3   OH248892   3.269   6.454  14.274 -0.1258  0.3627  0.0020
 9134TIP3    H148893   3.329   6.434  14.346 -0.9625 -1.2138  0.3216
 9134TIP3    H248894   3.256   6.370  14.230 -1.7880  0.7126 -0.2659
 9135TIP3   OH248895   3.099   3.338  12.990 -0.7607 -0.0149 -0.4906
 9135TIP3    H148896   3.062   3.383  13.066  0.8267  0.8099 -0.1531
 9135TIP3    H248897   3.043   3.261  12.978  0.0110 -1.2381  2.7034
 9136TIP3   OH248898   3.225   5.337   5.205 -0.4748  0.2134 -1.0673
 9136TIP3    H148899   3.316   5.308   5.197  0.5346  2.0992  1.7771
 9136TIP3    H248900   3.176   5.257   5.223  0.8145 -0.7016 -1.4230
 9137TIP3   OH248901   6.102   4.356   3.889 -0.1814  0.2738 -0.2456
 9137TIP3    H148902   6.152   4.287   3.934 -1.5043 -0.3394  0.3353
 9137TIP3    H248903   6.011   4.336   3.909 -0.7771  0.5524 -2.4296
 9138TIP3   OH248904   6.740   2.592  14.269  0.5631  0.0214 -0.2170
 9138TIP3    H148905   6.673   2.542  14.316 -2.7365  2.4990 -1.8378
 9138TIP3    H248906   6.794   2.631  14.337 -0.3363 -1.1601  1.2248
 9139TIP3   OH248907   6.705   2.271  10.527  0.1930 -0.3931  0.0208
 9139TIP3    H148908   6.627   2.322  10.507  0.2394 -0.1909  0.3422
 9139TIP3    H248909   6.694   2.189  10.479  0.7076  0.4035 -1.5146
 9140TIP3   OH248910   0.066   4.008   4.224 -0.0477 -0.3662  0.0862
 9140TIP3    H148911   0.049   4.045   4.310 -1.0484  0.8220 -0.5890
 9140TIP3    H248912   0.028   4.070   4.163  2.4656 -0.0780 -1.3414
 9141TIP3   OH248913   3.084   5.729  13.813 -0.1139 -0.2632 -0.0327
 9141TIP3    H148914   3.158   5.783  13.840 -1.5736  1.7541  0.1766
 9141TIP3    H248915   3.041   5.780  13.743 -0.8723 -1.7372 -0.6893
 9142TIP3   OH248916   3.602   6.641  16.610 -0.2586  0.1862  0.2952
 9142TIP3    H148917   3.551   6.672  16.536 -2.4394 -1.0892  1.1763
 9142TIP3    H248918   3.566   6.687  16.686  0.3297 -0.2595  0.8592
 9143TIP3   OH248919   4.959   5.260   0.335 -0.8413  0.0571 -0.2387
 9143TIP3    H148920   4.895   5.207   0.382 -1.7068  1.3961  0.1339
 9143TIP3    H248921   5.044   5.222   0.360 -1.3385 -0.0380  1.4539
 9144TIP3   OH248922   0.188   3.619  13.199  0.3722 -0.5626  0.5608
 9144TIP3    H148923   0.160   3.679  13.267  1.8975 -0.0354  0.7532
 9144TIP3    H248924   0.138   3.646  13.121  0.3788  0.3620  0.8710
 9145TIP3   OH248925   4.883   1.968   2.588  0.1559 -0.0865  0.3265
 9145TIP3    H148926   4.963   1.949   2.636 -0.0511 -0.2442  0.6159
 9145TIP3    H248927   4.877   1.899   2.522 -0.9336 -1.4875  1.7892
 9146TIP3   OH248928   2.664   3.183   2.522  0.0107  0.0031  0.3696
 9146TIP3    H148929   2.704   3.263   2.487 -1.3381  0.4722 -0.1839
 9146TIP3    H248930   2.717   3.112   2.485  0.2918  0.5926 -0.4022
 9147TIP3   OH248931   3.797   6.090   0.798 -0.5539  0.0035 -0.0051
 9147TIP3    H148932   3.823   6.180   0.814  0.2597 -0.3402  0.6982
 9147TIP3    H248933   3.878   6.046   0.771 -1.0523 -0.3921 -0.9243
 9148TIP3   OH248934   2.071   5.251   2.520  0.2552 -0.0199  0.0631
 9148TIP3    H148935   2.068   5.296   2.435  0.1163 -0.1639 -0.0093
 9148TIP3    H248936   1.993   5.281   2.566  0.5146  0.3263  0.2789
 9149TIP3   OH248937   5.468   4.202   3.631 -0.1933 -0.1761 -0.5316
 9149TIP3    H148938   5.384   4.247   3.636 -0.0356  0.0765 -0.0827
 9149TIP3    H248939   5.515   4.244   3.559  0.3424  1.0607  0.5005
 9150TIP3   OH248940   2.440   6.462   3.257  0.3635 -0.1537  0.5695
 9150TIP3    H148941   2.512   6.484   3.317  1.0995  1.9559 -0.9676
 9150TIP3    H248942   2.373   6.528   3.275  0.5541  0.4528 -0.8263
 9151TIP3   OH248943   6.039   2.078  15.393  0.1965 -0.7272 -0.1390
 9151TIP3    H148944   6.090   2.156  15.414 -1.1447 -0.1834  1.2805
 9151TIP3    H248945   6.076   2.010  15.449  0.5254 -0.7891 -0.4288
 9152TIP3   OH248946   1.151   4.376  11.653  0.5186 -0.4671  0.3523
 9152TIP3    H148947   1.210   4.366  11.578  0.1374 -1.0163  0.1249
 9152TIP3    H248948   1.064   4.382  11.614  0.4661  1.0319  0.6407
 9153TIP3   OH248949   6.056   5.318  15.702 -0.4395 -0.2805 -0.0726
 9153TIP3    H148950   6.121   5.362  15.757 -0.0989 -0.7596 -0.0868
 9153TIP3    H248951   5.973   5.356  15.729 -0.1366  0.4968 -0.2077
 9154TIP3   OH248952   2.547   1.595  15.508  0.4425 -0.3084 -0.3667
 9154TIP3    H148953   2.612   1.591  15.438  1.1412  0.0968  0.2552
 9154TIP3    H248954   2.532   1.503  15.531  1.6860 -0.3611  0.3004
 9155TIP3   OH248955   6.159   4.517   2.527 -0.4125  0.0543 -0.3899
 9155TIP3    H148956   6.247   4.552   2.540 -0.5659  0.1767  0.3523
 9155TIP3    H248957   6.167   4.460   2.450  0.3460 -0.0475 -0.2415
 9156TIP3   OH248958   1.238   6.575  11.846  0.0533  0.3049  0.0542
 9156TIP3    H148959   1.243   6.662  11.887  0.9172  0.2697  0.0393
 9156TIP3    H248960   1.276   6.587  11.759  0.4306 -0.1522  0.1549
 9157TIP3   OH248961   2.173   5.397   3.679  0.3973 -0.2548 -0.3926
 9157TIP3    H148962   2.106   5.465   3.674  0.6544 -0.0849 -2.0573
 9157TIP3    H248963   2.252   5.443   3.708 -0.1897 -0.4875  1.7510
 9158TIP3   OH248964   4.434   5.274  13.691 -0.6627 -0.4182 -0.0278
 9158TIP3    H148965   4.408   5.281  13.783  0.7219 -2.6856  0.6280
 9158TIP3    H248966   4.458   5.363  13.666 -1.3538  0.2994  1.7237
 9159TIP3   OH248967   5.978   5.895  16.217  0.3010 -0.0587 -0.0993
 9159TIP3    H148968   6.042   5.841  16.169 -1.9689 -0.7445 -2.6051
 9159TIP3    H248969   5.922   5.831  16.261  0.3491  0.4845  0.7748
 9160TIP3   OH248970   2.764   2.526  15.696 -0.4937 -0.5429  0.4027
 9160TIP3    H148971   2.735   2.613  15.721  1.3227  0.2813 -0.1784
 9160TIP3    H248972   2.754   2.523  15.601  0.8739 -0.3676  0.2324
 9161TIP3   OH248973   3.132   1.957  13.921  0.5266 -0.1007 -0.3173
 9161TIP3    H148974   3.056   1.899  13.922 -0.5409  1.2435 -0.8419
 9161TIP3    H248975   3.107   2.030  13.979  0.6180  1.2912 -1.9511
 9162TIP3   OH248976   3.395   6.774   2.230  0.7468  0.1195  0.0028
 9162TIP3    H148977   3.479   6.802   2.194  0.1601  0.2980 -1.3024
 9162TIP3    H248978   3.336   6.848   2.215  0.3296 -0.0397  0.8001
 9163TIP3   OH248979   1.126   1.718  13.725  0.1411  0.3432 -0.6017
 9163TIP3    H148980   1.114   1.773  13.648 -1.7381  0.4615 -0.2683
 9163TIP3    H248981   1.160   1.635  13.690  0.8773  0.9368 -1.3453
 9164TIP3   OH248982   0.060   4.880   1.995 -0.2745  0.7228 -0.0723
 9164TIP3    H148983   0.007   4.949   1.956  1.4432  0.7466 -2.6738
 9164TIP3    H248984   0.078   4.910   2.084 -1.4524  2.4972 -0.3851
 9165TIP3   OH248985   3.549   0.251   1.026 -0.2990 -0.0174 -0.6623
 9165TIP3    H148986   3.627   0.222   1.072 -0.9862 -2.1000 -0.7073
 9165TIP3    H248987   3.494   0.173   1.019 -1.9606  1.1477 -1.5028
 9166TIP3   OH248988   6.389   1.903  11.261  0.1186  0.0047 -0.5070
 9166TIP3    H148989   6.445   1.960  11.314 -2.2936  2.2435 -0.1458
 9166TIP3    H248990   6.355   1.838  11.323  0.8468 -0.1977 -0.3199
 9167TIP3   OH248991   6.394   6.308   0.905 -0.0256  0.0349  0.2205
 9167TIP3    H148992   6.368   6.386   0.856 -0.1555 -1.4893 -2.2855
 9167TIP3    H248993   6.475   6.333   0.950 -1.7774  2.6004  2.2850
 9168TIP3   OH248994   3.330   3.866  15.048 -0.5462  0.2163  0.2398
 9168TIP3    H148995   3.301   3.820  15.126 -1.8671  1.8051  0.7504
 9168TIP3    H248996   3.266   3.843  14.981 -1.8883  2.0342  0.7904
 9169TIP3   OH248997   0.511   1.552  14.883  0.4413  0.1096 -0.0358
 9169TIP3    H148998   0.520   1.633  14.832 -0.2309  0.2665  0.0780
 9169TIP3    H248999   0.599   1.516  14.887  0.7782  0.9273  0.0626
 9170TIP3   OH249000   1.684   0.571  12.667 -0.0059  0.5025  0.2190
 9170TIP3    H149001   1.635   0.503  12.711 -0.4601  0.7237  0.0676
 9170TIP3    H249002   1.688   0.543  12.575 -1.3942  1.3166 -0.1338
 9171TIP3   OH249003   1.707   1.759  16.822 -0.4407  0.6026  0.5140
 9171TIP3    H149004   1.764   1.730  16.752 -0.7428  1.0128  0.0857
 9171TIP3    H249005   1.640   1.692  16.829 -1.2433  1.2533 -0.5961
 9172TIP3   OH249006   5.179   1.224   1.494  0.8485  0.3054 -0.0922
 9172TIP3    H149007   5.232   1.301   1.472  0.1930  0.7434 -0.1880
 9172TIP3    H249008   5.146   1.241   1.582 -1.4986  1.4529 -1.0930
 9173TIP3   OH249009   3.109   5.238   6.335  0.1564  0.4877 -0.7782
 9173TIP3    H149010   3.170   5.309   6.315  0.6108  0.0240 -1.0996
 9173TIP3    H249011   3.159   5.158   6.315  0.1918  0.0221  1.0190
 9174TIP3   OH249012   2.344   5.458  10.971  0.3650 -0.0078 -0.2101
 9174TIP3    H149013   2.317   5.375  10.932 -1.4468 -1.0808  2.9211
 9174TIP3    H249014   2.269   5.516  10.957  0.3466  0.0790  0.2104
 9175TIP3   OH249015   2.852   5.103  16.472  0.0624 -0.3928 -0.2690
 9175TIP3    H149016   2.799   5.161  16.416  0.7412  0.3586 -0.1511
 9175TIP3    H249017   2.835   5.134  16.561  0.6680 -0.1641 -0.2291
 9176TIP3   OH249018   5.729   3.260   1.580 -0.0301  1.2090  0.2641
 9176TIP3    H149019   5.655   3.209   1.611 -1.6033  3.4818  0.5041
 9176TIP3    H249020   5.796   3.248   1.648 -0.8262  0.5158  0.9572
 9177TIP3   OH249021   0.056   5.719   3.366 -0.4106  0.0622  0.1907
 9177TIP3    H149022   0.103   5.794   3.330  0.6448 -0.1056  1.1408
 9177TIP3    H249023   0.011   5.753   3.443  0.8648 -0.4310  1.2026
 9178TIP3   OH249024   3.686   1.380  12.325  0.1421 -0.2200 -0.1810
 9178TIP3    H149025   3.755   1.440  12.354  1.1301 -0.5066 -1.8503
 9178TIP3    H249026   3.673   1.322  12.401  2.4157 -0.7488 -0.1015
 9179TIP3   OH249027   0.158   6.108   4.988  0.1227 -0.1537 -0.1826
 9179TIP3    H149028   0.125   6.191   4.952 -1.2489 -0.2097  0.8886
 9179TIP3    H249029   0.139   6.113   5.081 -0.0093 -1.6960 -0.1086
 9180TIP3   OH249030   5.880   2.144  16.575 -0.0504 -0.0524 -0.5000
 9180TIP3    H149031   5.923   2.138  16.660  0.3272  1.0463 -0.5986
 9180TIP3    H249032   5.926   2.215  16.529  0.7604 -1.6149 -2.2249
 9181TIP3   OH249033   3.754   2.104   4.723 -0.4194 -0.4271 -0.5705
 9181TIP3    H149034   3.825   2.096   4.660  0.2745 -0.5647  0.2071
 9181TIP3    H249035   3.724   2.194   4.713  0.2875 -0.1710 -0.4799
 9182TIP3   OH249036   1.338   5.296  12.795  0.5374 -0.0139 -0.0318
 9182TIP3    H149037   1.389   5.367  12.835 -0.9141 -0.1674  2.2771
 9182TIP3    H249038   1.253   5.335  12.777  0.3618 -0.6567 -0.6226
 9183TIP3   OH249039   6.070   6.583  11.029  0.2814 -0.3243 -0.3749
 9183TIP3    H149040   6.039   6.647  10.965  0.0570  0.7822  0.8027
 9183TIP3    H249041   6.105   6.511  10.976 -1.1263 -0.0534 -1.7260
 9184TIP3   OH249042   4.545   5.141   4.836 -0.5456 -0.2847 -0.5772
 9184TIP3    H149043   4.617   5.080   4.823 -0.6746 -0.8505  1.1008
 9184TIP3    H249044   4.519   5.168   4.748  1.8624  0.1463 -1.2043
 9185TIP3   OH249045   2.692   1.828  13.098 -0.2615  0.2433  0.4234
 9185TIP3    H149046   2.629   1.898  13.111  0.5415  1.2281 -0.6974
 9185TIP3    H249047   2.767   1.871  13.056  1.2595 -0.8278  1.8995
 9186TIP3   OH249048   1.367   1.256  12.852 -0.0218 -0.0409  0.1742
 9186TIP3    H149049   1.374   1.316  12.927 -0.5854  0.3009 -0.0416
 9186TIP3    H249050   1.283   1.211  12.866  0.5203 -1.0036  0.4889
 9187TIP3   OH249051   1.052   1.207   5.488 -0.2889 -0.0689  0.3970
 9187TIP3    H149052   1.057   1.236   5.397 -1.7053 -0.0853  0.2915
 9187TIP3    H249053   1.012   1.121   5.483  1.7519 -1.1055  0.8891
 9188TIP3   OH249054   3.891   4.260   0.129 -0.6398 -0.1951 -0.2639
 9188TIP3    H149055   3.948   4.279   0.204  1.6227  0.0080 -1.9149
 9188TIP3    H249056   3.824   4.328   0.133  0.5018  0.9519  0.5599
 9189TIP3   OH249057   1.110   2.216  15.461 -0.3317 -0.1480 -0.6004
 9189TIP3    H149058   1.193   2.179  15.491 -0.3824 -0.1273 -0.4339
 9189TIP3    H249059   1.061   2.141  15.428 -0.7228 -0.3426  0.4024
 9190TIP3   OH249060   1.145   3.269   4.962 -0.0437  0.6471  0.9932
 9190TIP3    H149061   1.157   3.299   4.872  1.8265 -0.9826  0.6463
 9190TIP3    H249062   1.095   3.187   4.954  0.7469  0.1179  1.3565
 9191TIP3   OH249063   0.892   0.584  16.782  0.2763 -0.2433  0.0131
 9191TIP3    H149064   0.947   0.653  16.746 -0.4030  0.4666  0.3015
 9191TIP3    H249065   0.816   0.580  16.724 -0.4265  0.3344  0.8731
 9192TIP3   OH249066   3.683   2.445   2.055  0.0707  0.0966  0.2961
 9192TIP3    H149067   3.633   2.377   2.099 -0.4126  0.8173  0.8711
 9192TIP3    H249068   3.701   2.510   2.123 -0.7029  1.2347 -0.5608
 9193TIP3   OH249069   2.208   3.441   5.057 -0.3089 -0.2305  0.6074
 9193TIP3    H149070   2.173   3.529   5.042 -1.4750 -0.5687  1.2570
 9193TIP3    H249071   2.190   3.422   5.149  1.0476 -0.6812  0.8085
 9194TIP3   OH249072   1.444   6.042  13.073 -0.2227 -0.5705 -0.1716
 9194TIP3    H149073   1.455   6.038  13.168 -0.6964 -0.6195 -0.1178
 9194TIP3    H249074   1.437   5.950  13.046 -0.4186 -0.5435 -0.2128
 9195TIP3   OH249075   3.500   6.013  15.317  0.2934 -0.0745  0.2362
 9195TIP3    H149076   3.491   5.938  15.258  0.1091 -1.3048  1.7758
 9195TIP3    H249077   3.498   6.089  15.259  1.5382 -1.2768 -1.4830
 9196TIP3   OH249078   5.667   2.275   4.776  0.1996  0.5181  0.7811
 9196TIP3    H149079   5.606   2.341   4.743  1.9287  1.9868  0.3963
 9196TIP3    H249080   5.711   2.242   4.698 -0.2740 -0.7443  1.0274
 9197TIP3   OH249081   5.683   4.497  15.024  0.6145  0.3256  0.4717
 9197TIP3    H149082   5.709   4.450  14.945  3.1577  2.1824  0.0764
 9197TIP3    H249083   5.729   4.452  15.095 -0.9441 -0.7818  0.8169
 9198TIP3   OH249084   3.819   0.208  12.147  0.6428  0.6403  0.1540
 9198TIP3    H149085   3.910   0.234  12.156  0.4830  1.1216  0.4438
 9198TIP3    H249086   3.795   0.175  12.233 -0.0857  2.6156  0.7737
 9199TIP3   OH249087   4.732   3.468  11.088 -0.1387 -0.3272  0.0135
 9199TIP3    H149088   4.811   3.512  11.058 -0.5173  1.3311  1.2866
 9199TIP3    H249089   4.700   3.419  11.012  1.9616 -0.8653 -0.5806
 9200TIP3   OH249090   5.152   2.360   2.956  0.2596 -0.0228  0.2873
 9200TIP3    H149091   5.178   2.312   2.878 -3.3792 -1.3160 -0.3081
 9200TIP3    H249092   5.220   2.338   3.021  2.4211 -0.2984 -1.9110
 9201TIP3   OH249093   1.908   1.277  12.564 -0.6582 -0.4470  0.0464
 9201TIP3    H149094   1.967   1.225  12.509  0.5587  1.3994 -0.4829
 9201TIP3    H249095   1.906   1.363  12.523 -1.4242  0.3819  1.7163
 9202TIP3   OH249096   0.123   5.429  14.780  0.1093  0.4909  0.0815
 9202TIP3    H149097   0.051   5.393  14.831 -0.7569  1.2400 -0.5909
 9202TIP3    H249098   0.198   5.426  14.840 -0.4633 -0.2979  0.7899
 9203TIP3   OH249099   1.802   4.672   5.864 -0.0860  0.4574 -0.3156
 9203TIP3    H149100   1.777   4.580   5.857 -2.3823  0.9078  1.0124
 9203TIP3    H249101   1.722   4.717   5.890  1.1377  2.7575 -0.2510
 9204TIP3   OH249102   1.215   4.114   4.681  0.1038 -0.1004 -0.2628
 9204TIP3    H149103   1.224   4.046   4.749  1.5147  0.4063  0.0849
 9204TIP3    H249104   1.192   4.193   4.730  1.7973  0.4269 -0.2457
 9205TIP3   OH249105   5.195   5.128   0.271  0.3623  0.4711 -0.6575
 9205TIP3    H149106   5.239   5.047   0.297  0.0325 -0.2360 -2.1776
 9205TIP3    H249107   5.255   5.169   0.209  0.4965  1.3827  0.0549
 9206TIP3   OH249108   0.015   0.145  14.985 -0.2537 -0.1175  0.2448
 9206TIP3    H149109  -0.034   0.115  15.062  0.0222  1.6438  1.1662
 9206TIP3    H249110  -0.024   0.230  14.963  1.0357  0.3744 -0.2625
 9207TIP3   OH249111   3.393   5.754   3.546  0.0497  0.3276 -0.4920
 9207TIP3    H149112   3.352   5.672   3.518 -0.5491 -0.6356  2.7376
 9207TIP3    H249113   3.320   5.814   3.563  0.3966  0.9850 -1.2746
 9208TIP3   OH249114   0.612   4.403  14.966  0.1656  0.2276 -0.8521
 9208TIP3    H149115   0.671   4.449  15.026  1.0542  1.6817 -2.7146
 9208TIP3    H249116   0.610   4.314  14.999 -1.0289  1.3467  2.4976
 9209TIP3   OH249117   3.674   6.363  15.264  0.5161 -0.2777  0.2259
 9209TIP3    H149118   3.642   6.442  15.307  0.2082 -1.0402  1.4623
 9209TIP3    H249119   3.640   6.369  15.174 -0.0934  0.6480  0.5040
 9210TIP3   OH249120   5.445   3.235  16.673 -0.3023  0.0073 -0.3882
 9210TIP3    H149121   5.509   3.294  16.714  0.4234  0.0033 -1.4832
 9210TIP3    H249122   5.363   3.254  16.719  0.2955  0.6272  0.4571
 9211TIP3   OH249123   3.616   0.597  14.987  0.0865 -0.8942  0.0885
 9211TIP3    H149124   3.611   0.505  14.960 -1.9957 -0.5561 -0.8437
 9211TIP3    H249125   3.567   0.600  15.069 -1.4847 -0.3051 -0.8510
 9212TIP3   OH249126   5.571   4.602  12.736  0.6519  0.0231  0.5463
 9212TIP3    H149127   5.506   4.545  12.778  1.1578 -0.9914  0.0034
 9212TIP3    H249128   5.638   4.615  12.803 -0.0138  0.9517  1.0578
 9213TIP3   OH249129   5.428   0.881  14.283  0.2656 -0.2260  0.6443
 9213TIP3    H149130   5.452   0.918  14.368 -1.3132 -0.0141  1.0316
 9213TIP3    H249131   5.374   0.949  14.242  1.0050 -0.3333 -0.5329
 9214TIP3   OH249132   1.570   3.012  12.745  0.0591  0.0548 -0.1354
 9214TIP3    H149133   1.574   3.099  12.785 -1.8930  0.1902 -0.1756
 9214TIP3    H249134   1.509   3.022  12.672 -0.2797 -1.3838 -0.0689
 9215TIP3   OH249135   0.599   5.531  11.394 -0.0276  0.2313 -0.8589
 9215TIP3    H149136   0.593   5.464  11.326  0.6182  0.0668 -0.7586
 9215TIP3    H249137   0.687   5.522  11.429 -0.1895  0.6398 -0.3301
 9216TIP3   OH249138   1.447   4.473   4.651 -0.6937 -0.3518  0.3221
 9216TIP3    H149139   1.403   4.410   4.708  1.6757 -2.2321  0.2589
 9216TIP3    H249140   1.494   4.531   4.711 -1.8576  0.5888  0.3481
 9217TIP3   OH249141   6.682   1.328  15.401  0.2939  0.2357 -0.5085
 9217TIP3    H149142   6.761   1.336  15.454  0.3718  0.2895 -0.6345
 9217TIP3    H249143   6.620   1.389  15.442 -0.4289 -1.3809  0.9487
 9218TIP3   OH249144   6.163   6.210   0.704  0.0475 -0.4215  0.4785
 9218TIP3    H149145   6.246   6.242   0.737  0.4268 -0.5372 -0.3485
 9218TIP3    H249146   6.148   6.128   0.751 -0.1797  0.1904  1.4846
 9219TIP3   OH249147   6.398   1.176   3.124  0.0468 -0.4600  0.6981
 9219TIP3    H149148   6.470   1.207   3.179 -0.2377 -1.0645  1.4266
 9219TIP3    H249149   6.386   1.085   3.150 -0.8684 -0.4137  0.4636
 9220TIP3   OH249150   6.522   4.673  14.081 -0.1761  0.3903  0.0530
 9220TIP3    H149151   6.468   4.599  14.053 -1.4820  0.9079  1.1275
 9220TIP3    H249152   6.461   4.746  14.089  0.9604  1.4031 -0.2119
 9221TIP3   OH249153   0.861   2.774  15.111 -0.4471 -0.4508 -0.1813
 9221TIP3    H149154   0.912   2.839  15.062 -0.7672 -0.5119 -0.6033
 9221TIP3    H249155   0.926   2.723  15.159 -0.0311 -1.0771 -1.3610
 9222TIP3   OH249156   6.497   6.128  13.970  1.3784 -0.0352 -0.3313
 9222TIP3    H149157   6.403   6.121  13.952  1.2837  0.9188 -0.2871
 9222TIP3    H249158   6.526   6.038  13.984  0.2754 -0.2740  0.6041
 9223TIP3   OH249159   5.821   4.202  16.660 -0.5557  0.0200 -0.1954
 9223TIP3    H149160   5.846   4.174  16.748  0.1720  0.8233 -0.1377
 9223TIP3    H249161   5.741   4.253  16.673 -1.0297 -0.7256 -0.1289
 9224TIP3   OH249162   5.528   3.700   6.229 -0.1188 -0.4376  0.2586
 9224TIP3    H149163   5.500   3.677   6.318 -1.2694  0.4022  0.1419
 9224TIP3    H249164   5.612   3.744   6.241  0.2555 -1.2982  0.8289
 9225TIP3   OH249165   1.219   1.010   2.345  0.0485 -0.2397 -0.0356
 9225TIP3    H149166   1.257   1.021   2.432  1.0228  0.0693 -0.4836
 9225TIP3    H249167   1.125   1.002   2.360  0.3163 -1.4913  1.1520
 9226TIP3   OH249168   2.352   4.958  15.126 -0.3580  0.4224 -0.0467
 9226TIP3    H149169   2.428   4.918  15.082  0.8110  0.9509  1.3937
 9226TIP3    H249170   2.390   5.028  15.179 -2.1406  2.3196 -1.1137
 9227TIP3   OH249171   0.424   0.882  12.493  0.2947 -0.1998  0.5961
 9227TIP3    H149172   0.400   0.842  12.577 -1.4994 -2.2477 -0.8072
 9227TIP3    H249173   0.434   0.808  12.433 -1.9888  1.3126 -1.8622
 9228TIP3   OH249174   2.711   5.246  13.616  0.1722 -0.8439  0.2623
 9228TIP3    H149175   2.739   5.251  13.707  0.0193  0.0585  0.2715
 9228TIP3    H249176   2.680   5.335  13.595  0.7329 -0.8796 -0.8278
 9229TIP3   OH249177   5.105   1.957   2.268  0.1437  0.0200  0.1793
 9229TIP3    H149178   5.122   1.896   2.340  3.3901 -0.2178 -0.6446
 9229TIP3    H249179   5.140   1.914   2.191 -1.1995  1.2418 -1.1780
 9230TIP3   OH249180   4.312   5.051  13.544 -0.3143  0.4023  0.0058
 9230TIP3    H149181   4.289   5.010  13.627  0.0868  0.1316 -0.0139
 9230TIP3    H249182   4.334   5.141  13.567 -1.3225  0.6497  0.0323
 9231TIP3   OH249183   4.174   1.319   5.260  0.7353  0.7654 -0.2034
 9231TIP3    H149184   4.253   1.373   5.256  1.4290 -0.2539 -1.0058
 9231TIP3    H249185   4.182   1.272   5.343  1.0153  0.6247 -0.3059
 9232TIP3   OH249186   0.424   3.287  14.184  0.5278  1.1430 -0.2010
 9232TIP3    H149187   0.516   3.310  14.178  1.2665 -0.5855  2.6415
 9232TIP3    H249188   0.423   3.192  14.194 -1.7280  0.8972 -1.7740
 9233TIP3   OH249189   2.565   0.403  13.133  0.3725 -0.3559 -0.3071
 9233TIP3    H149190   2.506   0.374  13.203 -1.0587  0.5603 -1.0734
 9233TIP3    H249191   2.518   0.383  13.053 -1.8485  5.5803 -1.0220
 9234TIP3   OH249192   2.853   4.879   0.376  0.2663 -0.4892  0.4234
 9234TIP3    H149193   2.783   4.876   0.310 -0.8081  0.3770  1.4695
 9234TIP3    H249194   2.930   4.911   0.328 -0.4739  0.0523 -0.4425
 9235TIP3   OH249195   0.008   5.604  12.477 -0.6815 -0.4383  0.3069
 9235TIP3    H149196  -0.076   5.589  12.520 -0.0153  1.6701  2.5654
 9235TIP3    H249197   0.014   5.699  12.467  0.7631 -0.6430 -1.2963
 9236TIP3   OH249198   1.081   5.813   1.618  0.1795  0.4928  0.4836
 9236TIP3    H149199   1.008   5.871   1.641 -0.2930 -0.3354  1.1494
 9236TIP3    H249200   1.123   5.794   1.702  0.7583  0.4267  0.1813
 9237TIP3   OH249201   0.475   0.906  13.987  0.6745 -0.3768 -0.5954
 9237TIP3    H149202   0.418   0.958  14.043  0.2324 -1.4689 -0.0050
 9237TIP3    H249203   0.518   0.845  14.046 -0.1713 -1.8842 -1.4512
 9238TIP3   OH249204   2.539   2.575  15.975 -0.0595 -0.0173 -0.0582
 9238TIP3    H149205   2.587   2.651  15.942 -0.9282 -0.5499 -2.7682
 9238TIP3    H249206   2.453   2.581  15.932  0.3987 -3.3757 -1.7640
 9239TIP3   OH249207   1.510   5.738  13.056  0.1654  0.1102 -0.5627
 9239TIP3    H149208   1.456   5.758  12.980  0.4054 -0.9064 -1.0245
 9239TIP3    H249209   1.450   5.744  13.131 -0.5498 -0.7873 -1.0406
 9240TIP3   OH249210   2.396   3.482  11.825  0.2082  0.2125 -0.1231
 9240TIP3    H149211   2.482   3.507  11.792 -0.4803  2.8775 -0.1174
 9240TIP3    H249212   2.388   3.389  11.803  2.4039  0.2923 -1.5688
 9241TIP3   OH249213   2.592   5.336   2.353 -0.2664  0.1014  0.4289
 9241TIP3    H149214   2.506   5.303   2.328  0.4459 -1.1183 -0.4850
 9241TIP3    H249215   2.572   5.412   2.408 -1.9485  2.1498 -2.6920
 9242TIP3   OH249216   1.507   3.050   1.651  0.0443 -0.2198  0.5732
 9242TIP3    H149217   1.525   3.117   1.585  1.1952 -0.6023  0.4810
 9242TIP3    H249218   1.469   2.977   1.602  1.9693 -0.9638  0.1058
 9243TIP3   OH249219   5.900   0.734   1.029  0.5228 -0.1409  0.2612
 9243TIP3    H149220   5.911   0.757   1.121  0.0093  0.3980  0.1902
 9243TIP3    H249221   5.816   0.688   1.026 -0.1769  1.1235 -0.1590
 9244TIP3   OH249222   2.242   4.619  15.779 -0.1222 -0.4287  0.1805
 9244TIP3    H149223   2.168   4.560  15.797  0.8712 -1.4650  1.0294
 9244TIP3    H249224   2.256   4.610  15.685  0.3336 -1.9916  0.3669
 9245TIP3   OH249225   4.835   4.909   0.766  0.8171 -0.2118  0.4162
 9245TIP3    H149226   4.870   4.970   0.831  1.3942  0.0850 -0.1618
 9245TIP3    H249227   4.745   4.892   0.795  0.0683  2.1537 -0.2551
 9246TIP3   OH249228   3.634   6.175   4.751  0.3207 -0.0626 -0.1043
 9246TIP3    H149229   3.729   6.175   4.756  0.3762 -0.9305 -0.8624
 9246TIP3    H249230   3.605   6.168   4.843  1.0313 -1.6855  0.0319
 9247TIP3   OH249231   4.048   4.506   3.561 -0.6442 -0.6176 -0.0763
 9247TIP3    H149232   4.037   4.574   3.493  0.9882  0.3814  0.6073
 9247TIP3    H249233   4.126   4.458   3.534 -0.3781 -0.6482  0.7206
 9248TIP3   OH249234   1.477   5.641  13.330 -0.2712 -0.2297 -0.0770
 9248TIP3    H149235   1.489   5.724  13.376 -0.8413 -0.4538  0.4892
 9248TIP3    H249236   1.544   5.583  13.367  1.0203  0.3430 -1.4195
 9249TIP3   OH249237   1.264   1.329  10.245  0.0637  0.0643  0.2321
 9249TIP3    H149238   1.196   1.394  10.262  1.3824  2.1802 -1.9392
 9249TIP3    H249239   1.334   1.350  10.307  0.4605  0.6929 -0.4213
 9250TIP3   OH249240   5.326   0.102   5.399  0.0282 -0.0521  0.1760
 9250TIP3    H149241   5.378   0.125   5.322  1.5095 -1.9994  0.5103
 9250TIP3    H249242   5.280   0.183   5.422 -0.4887  0.6006 -2.7109
 9251TIP3   OH249243   5.726   3.486   0.128  0.3002  0.1815  0.0007
 9251TIP3    H149244   5.753   3.476   0.219 -1.1813  1.3557  0.6153
 9251TIP3    H249245   5.794   3.543   0.089  0.0742  1.0533  0.8412
 9252TIP3   OH249246   5.111   0.389   5.229 -0.1150 -0.1765 -0.6185
 9252TIP3    H149247   5.040   0.333   5.259 -2.0444  1.7219 -1.4495
 9252TIP3    H249248   5.153   0.338   5.160 -0.3524 -1.4948  0.1654
 9253TIP3   OH249249   5.786   6.353   4.235  0.2454 -0.1493  0.0170
 9253TIP3    H149250   5.700   6.330   4.270  0.5617 -1.1380  0.1616
 9253TIP3    H249251   5.809   6.281   4.177  1.0002  0.0878  0.0069
 9254TIP3   OH249252   1.726   0.913   5.921 -0.1582  0.2984 -0.1168
 9254TIP3    H149253   1.683   0.888   6.003  0.7441 -1.9710 -0.2702
 9254TIP3    H249254   1.685   0.859   5.855  0.2981  0.8852 -0.8958
 9255TIP3   OH249255   2.799   3.871   3.283 -0.5247  0.3953 -0.5200
 9255TIP3    H149256   2.789   3.870   3.378 -1.6324  0.1685 -0.6254
 9255TIP3    H249257   2.879   3.820   3.266  0.4116  1.5132  0.3465
 9256TIP3   OH249258   1.189   3.346   4.668 -0.1741 -0.3560 -0.1792
 9256TIP3    H149259   1.191   3.442   4.675 -4.6998 -0.1477  2.0386
 9256TIP3    H249260   1.117   3.328   4.608  0.5040 -2.4319 -0.4382
 9257TIP3   OH249261   5.527   3.742  11.725 -0.7306 -0.0702  0.5554
 9257TIP3    H149262   5.611   3.757  11.767 -0.0083 -0.5704 -0.6476
 9257TIP3    H249263   5.549   3.712  11.636 -2.1873  1.2911 -0.3196
 9258TIP3   OH249264   3.901   0.783  14.672 -0.5678 -0.3632 -0.2194
 9258TIP3    H149265   3.915   0.730  14.593 -1.1819  0.1835 -0.7066
 9258TIP3    H249266   3.817   0.752  14.707 -1.0848  0.4871 -0.6809
 9259TIP3   OH249267   4.966   5.334   4.243  0.7658 -0.1765 -0.2117
 9259TIP3    H149268   4.973   5.239   4.258  0.4592  0.0825  1.8090
 9259TIP3    H249269   4.978   5.373   4.329  1.6801  1.7042 -1.1271
 9260TIP3   OH249270   0.922   0.984  16.459  0.2826 -0.3542 -0.2577
 9260TIP3    H149271   0.956   1.067  16.428 -0.9208  0.2890  0.0859
 9260TIP3    H249272   0.966   0.970  16.543 -0.3018  0.4757  0.1967
 9261TIP3   OH249273   4.295   2.549  14.713 -0.5434  0.0512 -0.3746
 9261TIP3    H149274   4.316   2.468  14.760 -0.7859  0.8359  1.1741
 9261TIP3    H249275   4.337   2.539  14.628 -0.3288 -1.5762 -0.1199
 9262TIP3   OH249276   4.550   2.547   3.866 -0.5448 -0.6229 -0.0674
 9262TIP3    H149277   4.553   2.458   3.900 -0.4138 -0.4359  0.4194
 9262TIP3    H249278   4.465   2.553   3.823  0.3650 -1.7119 -2.1675
 9263TIP3   OH249279   4.543   1.253  15.488 -0.7552  0.1029  0.1287
 9263TIP3    H149280   4.573   1.338  15.454 -0.2014  0.3918  1.2899
 9263TIP3    H249281   4.450   1.251  15.468 -0.5038  0.3463 -1.1905
 9264TIP3   OH249282   4.087   3.462   1.455 -0.2052  0.2234  0.0343
 9264TIP3    H149283   4.047   3.436   1.538  1.7180 -0.9847  0.6546
 9264TIP3    H249284   4.112   3.380   1.414  1.5074  0.8967 -0.3455
 9265TIP3   OH249285   4.410   1.258   0.364 -0.1363 -0.2470  0.3052
 9265TIP3    H149286   4.462   1.214   0.431 -0.3259  1.9247  1.9752
 9265TIP3    H249287   4.463   1.251   0.284  1.1293 -0.9988  1.1774
 9266TIP3   OH249288   4.841   0.995  12.980 -0.1422 -0.0470 -0.0568
 9266TIP3    H149289   4.885   1.037  13.055 -1.0896 -0.8755  1.0010
 9266TIP3    H249290   4.864   1.050  12.905  1.7852  0.1605  0.6231
 9267TIP3   OH249291   2.525   2.069  14.434  0.3781 -0.3824 -0.1143
 9267TIP3    H149292   2.443   2.034  14.399  0.9132 -1.5347 -0.2439
 9267TIP3    H249293   2.593   2.033  14.377  1.2727 -2.2278  1.9718
 9268TIP3   OH249294   5.835   5.472  15.705 -0.3954 -0.5164  0.5151
 9268TIP3    H149295   5.841   5.564  15.732 -0.3770 -0.3995  0.1202
 9268TIP3    H249296   5.746   5.463  15.670  0.0472 -0.2928 -0.7142
 9269TIP3   OH249297   2.070   0.292  13.924 -0.0723  0.3038  0.3042
 9269TIP3    H149298   2.149   0.241  13.943  0.0472  0.5050  0.3622
 9269TIP3    H249299   2.058   0.284  13.830  1.1757  1.8962 -0.0396
 9270TIP3   OH249300   5.664   6.044   6.092 -0.6244 -0.1576  0.2555
 9270TIP3    H149301   5.613   6.028   6.171 -0.9608  1.1202  0.3108
 9270TIP3    H249302   5.617   6.113   6.046 -0.1059 -0.4682 -0.7710
 9271TIP3   OH249303   4.189   3.144  14.140  0.1134 -0.3333 -0.0699
 9271TIP3    H149304   4.098   3.149  14.166 -0.0062 -0.2761 -0.4903
 9271TIP3    H249305   4.236   3.123  14.220 -0.4437 -2.0263 -0.1391
 9272TIP3   OH249306   0.662   5.285   0.283  0.2905  0.1279 -0.5055
 9272TIP3    H149307   0.590   5.247   0.234 -0.6349 -0.1068  0.9821
 9272TIP3    H249308   0.708   5.210   0.321  0.9500  0.3049 -0.9446
 9273TIP3   OH249309   5.538   5.370  13.488  0.2502 -0.0351  0.3693
 9273TIP3    H149310   5.446   5.379  13.461  0.2247 -0.6646  0.2369
 9273TIP3    H249311   5.588   5.405  13.414  0.1147  0.7343  0.6275
 9274TIP3   OH249312   2.977   4.184   5.473 -0.0722  0.2740  0.1549
 9274TIP3    H149313   3.033   4.107   5.476 -1.6061 -0.9294 -0.6861
 9274TIP3    H249314   3.029   4.250   5.428  1.1756 -0.3266  0.6667
 9275TIP3   OH249315   2.064   0.089   5.458 -0.0208  0.0947 -0.1176
 9275TIP3    H149316   2.005   0.014   5.467  0.0285 -0.0152 -0.6631
 9275TIP3    H249317   2.102   0.100   5.545  0.3926 -0.8593 -0.1578
 9276TIP3   OH249318   5.664   4.669   3.323  0.2908 -0.2408  0.1857
 9276TIP3    H149319   5.571   4.683   3.302  0.2668  1.1910  1.1502
 9276TIP3    H249320   5.696   4.614   3.251 -1.2330 -0.5320 -0.3096
 9277TIP3   OH249321   1.583   2.338   4.387  0.0450 -0.6256  0.4680
 9277TIP3    H149322   1.626   2.377   4.463  0.1102 -0.4784  0.3549
 9277TIP3    H249323   1.641   2.358   4.314  0.0553 -0.8907  0.4016
 9278TIP3   OH249324   0.011   5.206  12.824 -0.8198 -0.0757 -0.1283
 9278TIP3    H149325  -0.037   5.288  12.840 -0.9960  0.2477 -2.1229
 9278TIP3    H249326   0.043   5.214  12.734  6.9217  1.7392  2.0351
 9279TIP3   OH249327   4.527   4.541  13.211 -0.5611  0.0049  0.3272
 9279TIP3    H149328   4.485   4.468  13.166 -2.2125  0.2949  1.2947
 9279TIP3    H249329   4.484   4.619  13.177 -0.1120  0.3955  0.6347
 9280TIP3   OH249330   0.532   1.230  10.245 -0.3916 -0.2141 -0.4140
 9280TIP3    H149331   0.535   1.325  10.231 -1.0033 -0.0366  0.5729
 9280TIP3    H249332   0.617   1.199  10.216  0.5665  0.8946  1.0612
 9281TIP3   OH249333   3.161   5.865  14.665 -0.3134 -0.1970 -0.0411
 9281TIP3    H149334   3.206   5.792  14.707  1.9175  0.1369 -1.6531
 9281TIP3    H249335   3.140   5.926  14.736 -1.4084 -1.9448  1.1974
 9282TIP3   OH249336   2.588   5.636  16.932  0.4549  1.0155 -0.5735
 9282TIP3    H149337   2.654   5.672  16.873  0.2193 -0.6256 -1.9263
 9282TIP3    H249338   2.637   5.578  16.991  0.3942  0.7148 -0.8122
 9283TIP3   OH249339   5.781   6.201   0.537  0.2022  0.5787 -0.0655
 9283TIP3    H149340   5.805   6.292   0.524  1.9639  0.0771 -0.5314
 9283TIP3    H249341   5.696   6.205   0.581 -0.4320  2.4143 -1.3413
 9284TIP3   OH249342   2.387   6.470  12.643 -0.8504  0.3505 -0.1899
 9284TIP3    H149343   2.377   6.443  12.734 -0.3043 -0.9248 -0.4723
 9284TIP3    H249344   2.377   6.388  12.593  1.5871  0.4871 -1.0776
 9285TIP3   OH249345   3.787   5.065   6.540  0.1486  0.6679 -0.4002
 9285TIP3    H149346   3.708   5.079   6.487  0.8384  1.2581 -1.3066
 9285TIP3    H249347   3.805   5.150   6.579  1.0290  0.8653 -1.1993
 9286TIP3   OH249348   4.601   3.728  13.771 -0.0592  0.1209 -0.6267
 9286TIP3    H149349   4.595   3.706  13.678 -3.9312  1.5162 -0.9344
 9286TIP3    H249350   4.639   3.816  13.772  0.9474 -0.3038 -0.7711
 9287TIP3   OH249351   6.195   4.827   4.071 -0.0287 -0.5203  0.0298
 9287TIP3    H149352   6.125   4.767   4.097 -0.0935 -0.1873  0.6500
 9287TIP3    H249353   6.213   4.878   4.150 -1.8927  2.1617 -1.1095
 9288TIP3   OH249354   5.872   6.839  14.957  0.1669 -0.5688  0.2402
 9288TIP3    H149355   5.892   6.752  14.922  0.8964 -0.5083  0.4951
 9288TIP3    H249356   5.950   6.864  15.005  0.3582  0.6458 -0.6420
 9289TIP3   OH249357   1.736   1.624   3.101  0.2636  0.0453 -0.0101
 9289TIP3    H149358   1.772   1.612   3.013 -0.7745  0.9427 -0.5833
 9289TIP3    H249359   1.709   1.536   3.127  2.7293 -0.6584  0.4272
 9290TIP3   OH249360   2.275   0.094  15.271  0.2258  0.0510 -0.5223
 9290TIP3    H149361   2.200   0.112  15.215 -0.1792 -0.9109 -0.2945
 9290TIP3    H249362   2.312   0.012  15.239  0.7530  0.1426 -0.1791
 9291TIP3   OH249363   3.706   2.810   2.618 -0.1303 -0.5088  0.1902
 9291TIP3    H149364   3.788   2.828   2.572  1.3521  0.4655  2.9545
 9291TIP3    H249365   3.700   2.715   2.620  1.1031 -0.6030  0.1833
 9292TIP3   OH249366   0.003   5.662  15.707  0.0729 -0.6603 -0.4685
 9292TIP3    H149367  -0.006   5.679  15.801 -0.5484 -1.4913 -0.3734
 9292TIP3    H249368   0.047   5.741  15.673 -0.5830  0.0819  0.3526
 9293TIP3   OH249369   0.218   6.740  14.449  0.0364 -0.2827  0.4095
 9293TIP3    H149370   0.144   6.679  14.457  0.3677 -0.6460  0.7902
 9293TIP3    H249371   0.178   6.827  14.447 -0.3596 -0.4151  1.5982
 9294TIP3   OH249372   0.021   0.494   4.268 -0.2896  0.9101  0.2734
 9294TIP3    H149373   0.052   0.498   4.358 -1.5444 -0.6419  0.8226
 9294TIP3    H249374  -0.027   0.575   4.255 -1.1167  0.6228  1.4278
 9295TIP3   OH249375   3.274   4.294  16.131 -0.3147 -0.5029 -0.1167
 9295TIP3    H149376   3.268   4.228  16.200  0.3872 -0.1862  0.2653
 9295TIP3    H249377   3.368   4.305  16.117 -0.4470 -1.0073 -1.5668
 9296TIP3   OH249378   1.781   2.287   5.463  0.0612 -0.2883 -0.2364
 9296TIP3    H149379   1.794   2.255   5.552 -0.3246 -0.7545 -0.3422
 9296TIP3    H249380   1.841   2.236   5.410  1.7596  1.3567 -0.0018
 9297TIP3   OH249381   2.154   1.066  14.589 -0.1951  0.1625  0.4936
 9297TIP3    H149382   2.144   1.161  14.592 -1.4825  0.0545  0.0689
 9297TIP3    H249383   2.248   1.053  14.574 -0.2450  1.4102 -1.2616
 9298TIP3   OH249384   4.331   5.735  11.954  0.5017 -0.1543 -0.2472
 9298TIP3    H149385   4.284   5.742  11.871 -1.7650  1.5052  1.0627
 9298TIP3    H249386   4.306   5.649  11.989 -0.8710  0.3210 -0.0106
 9299TIP3   OH249387   5.342   1.663   3.698 -0.2500 -0.7981 -0.2894
 9299TIP3    H149388   5.293   1.725   3.645 -1.2105 -0.7225  0.6671
 9299TIP3    H249389   5.392   1.611   3.634 -0.6414 -0.0921 -1.1905
 9300TIP3   OH249390   1.685   6.055  17.110 -0.3258  0.0902  0.3898
 9300TIP3    H149391   1.760   6.031  17.164  0.0701 -2.2507 -1.0381
 9300TIP3    H249392   1.654   6.138  17.146  0.3527 -0.9564  3.7022
 9301TIP3   OH249393   3.681   1.756   5.706  0.0652  0.0645  0.6395
 9301TIP3    H149394   3.716   1.683   5.756  1.7018 -0.9840 -1.8688
 9301TIP3    H249395   3.755   1.816   5.696 -0.2539  0.2950 -0.4103
 9302TIP3   OH249396   3.942   5.745  13.912  0.1730  0.5837 -0.0282
 9302TIP3    H149397   3.867   5.750  13.972 -0.4672 -0.0828 -0.7449
 9302TIP3    H249398   3.946   5.653  13.887 -0.0763  0.9745 -1.6151
 9303TIP3   OH249399   2.042   2.634  14.809  0.0617 -0.1079 -0.1851
 9303TIP3    H149400   2.051   2.702  14.742 -0.4369  0.5026  0.3554
 9303TIP3    H249401   2.095   2.562  14.777  0.0223  0.2664 -1.1239
 9304TIP3   OH249402   0.439   2.902  15.931  0.6014  0.6975  0.2672
 9304TIP3    H149403   0.430   2.906  15.836  3.4940 -0.2408 -0.1330
 9304TIP3    H249404   0.407   2.987  15.962 -1.3381  0.6533 -1.3802
 9305TIP3   OH249405   2.412   1.057  14.558 -0.9306 -0.5090  0.5541
 9305TIP3    H149406   2.395   1.072  14.651 -0.5501  0.3396  0.4972
 9305TIP3    H249407   2.477   0.986  14.557  1.9403  1.9229  1.1496
 9306TIP3   OH249408   5.907   1.651   0.455 -0.0172 -0.0797  0.0756
 9306TIP3    H149409   5.951   1.715   0.398 -1.9891  0.3044 -1.0768
 9306TIP3    H249410   5.956   1.570   0.442  1.9528  0.9148  0.8500
 9307TIP3   OH249411   5.191   2.739  12.230 -0.0541  0.1726  0.1733
 9307TIP3    H149412   5.117   2.798  12.215 -1.2802 -1.3373  0.0756
 9307TIP3    H249413   5.184   2.714  12.322  0.9799  0.8324  0.4496
 9308TIP3   OH249414   0.490   0.470   0.791 -0.2552  0.4245 -0.1909
 9308TIP3    H149415   0.494   0.494   0.883 -1.5443 -1.3198  0.3656
 9308TIP3    H249416   0.407   0.424   0.781  0.6222 -0.9265 -1.8418
 9309TIP3   OH249417   5.661   4.969   2.757  0.3159 -0.3473  0.2062
 9309TIP3    H149418   5.595   4.927   2.702  1.8362 -1.0491 -1.1624
 9309TIP3    H249419   5.640   4.940   2.846  0.3034 -2.7038 -0.4971
 9310TIP3   OH249420   3.985   1.312  16.298  0.1033  0.7584 -0.2435
 9310TIP3    H149421   4.000   1.358  16.380  0.3874  0.7800 -0.3086
 9310TIP3    H249422   3.956   1.381  16.237 -2.9972  0.3561  0.5840
 9311TIP3   OH249423   1.912   6.538  17.008  0.0005  0.3557 -0.4656
 9311TIP3    H149424   1.888   6.594  17.081 -1.5401 -0.8030 -0.0274
 9311TIP3    H249425   1.956   6.463  17.048 -2.3880 -1.1585 -0.4113
 9312TIP3   OH249426   4.885   4.427   5.163  0.2261 -0.2440  0.0020
 9312TIP3    H149427   4.841   4.400   5.243  0.2792 -2.0261 -0.5194
 9312TIP3    H249428   4.815   4.434   5.098  0.3197  0.1145 -0.0622
 9313TIP3   OH249429   5.849   4.138  16.915  0.0133  0.2005 -0.0450
 9313TIP3    H149430   5.925   4.084  16.934  1.3446  1.6368 -0.9960
 9313TIP3    H249431   5.789   4.122  16.988  1.0672 -1.2384  0.5503
 9314TIP3   OH249432   5.042   4.868  10.411  0.3953  0.4898 -0.1249
 9314TIP3    H149433   4.966   4.888  10.356  0.1169  0.8424  0.3804
 9314TIP3    H249434   5.017   4.788  10.458  1.4373 -1.0105 -2.0127
 9315TIP3   OH249435   4.013   4.101  13.784 -0.4686 -0.2215 -0.1378
 9315TIP3    H149436   4.029   4.009  13.803  1.3449  0.0421 -0.2433
 9315TIP3    H249437   4.021   4.108  13.689 -0.5689  0.0530 -0.1274
 9316TIP3   OH249438   6.053   2.291   3.614  0.5776  0.0506  0.4167
 9316TIP3    H149439   6.022   2.201   3.603  1.1705 -0.1707  0.4626
 9316TIP3    H249440   6.034   2.312   3.705 -0.1100  0.1942  0.2452
 9317TIP3   OH249441   1.859   0.512  15.054 -0.0691  0.6228 -0.0568
 9317TIP3    H149442   1.805   0.433  15.044  0.9175 -0.1031  0.3020
 9317TIP3    H249443   1.855   0.533  15.147 -1.3452  1.7526 -0.3276
 9318TIP3   OH249444   2.277   5.637   5.985  0.6626  0.1978  0.1056
 9318TIP3    H149445   2.289   5.729   5.959 -1.1895  0.4847  0.0970
 9318TIP3    H249446   2.234   5.596   5.910 -0.9357  0.0065  1.0797
 9319TIP3   OH249447   5.076   6.428  12.294 -0.3306  0.1694 -0.2489
 9319TIP3    H149448   5.041   6.356  12.242 -0.7922  1.6874 -2.1463
 9319TIP3    H249449   5.002   6.458  12.347 -1.2979  1.7028 -2.3502
 9320TIP3   OH249450   1.412   5.027  14.875 -0.3196  0.2588 -0.5359
 9320TIP3    H149451   1.328   5.059  14.842  0.7725  2.7047 -1.1740
 9320TIP3    H249452   1.389   4.949  14.926 -3.2749  2.1146  1.3009
 9321TIP3   OH249453   2.742   2.838  14.159 -0.2478  0.1894 -0.0255
 9321TIP3    H149454   2.762   2.794  14.076 -0.6106  2.0094 -1.1396
 9321TIP3    H249455   2.770   2.776  14.226  0.9406 -0.9641 -1.5000
 9322TIP3   OH249456   4.353   2.712  13.582 -0.7313 -0.2902  0.5098
 9322TIP3    H149457   4.359   2.708  13.677 -1.4438  2.7950  0.7939
 9322TIP3    H249458   4.435   2.672  13.551 -0.3225 -1.0164  2.3822
 9323TIP3   OH249459   2.012   3.333  14.876  0.6536  0.1248  0.3471
 9323TIP3    H149460   2.003   3.237  14.880 -0.4805  0.2484  2.6282
 9323TIP3    H249461   2.071   3.354  14.948 -0.7771  1.2402  1.2715
 9324TIP3   OH249462   0.006   3.650  12.988 -0.2805  0.4872 -0.3557
 9324TIP3    H149463  -0.066   3.594  12.961 -0.3581  0.4262 -0.0264
 9324TIP3    H249464  -0.017   3.737  12.955 -1.4820  0.9024  1.3964
 9325TIP3   OH249465   2.492   3.960   0.552 -0.3582  0.0937 -0.1728
 9325TIP3    H149466   2.512   3.949   0.645 -1.5614  2.2719  0.4017
 9325TIP3    H249467   2.529   3.881   0.511  1.8995 -0.0403  1.8454
 9326TIP3   OH249468   4.511   0.958  14.549  0.0973 -0.7298  0.4634
 9326TIP3    H149469   4.456   0.904  14.605 -2.9842  0.8688 -0.7820
 9326TIP3    H249470   4.477   1.047  14.560  2.1244  0.2827 -0.8165
 9327TIP3   OH249471   6.733   3.735   4.069 -0.9044 -0.6462  0.0601
 9327TIP3    H149472   6.652   3.782   4.090 -1.3489 -2.0081  1.5766
 9327TIP3    H249473   6.774   3.720   4.154  1.5156  0.9105 -0.7181
 9328TIP3   OH249474   5.001   6.325   1.400  0.3027 -0.0061  0.5164
 9328TIP3    H149475   4.977   6.352   1.489 -1.4116  0.0457  0.0602
 9328TIP3    H249476   4.919   6.324   1.352  1.2599  0.4105 -1.2045
 9329TIP3   OH249477   5.482   6.153  13.382  0.4954 -0.3670 -0.1312
 9329TIP3    H149478   5.486   6.151  13.286 -1.6027 -1.8239 -0.2343
 9329TIP3    H249479   5.404   6.203  13.402  1.0092  0.0672  0.8538
 9330TIP3   OH249480   4.661   2.954  16.031 -0.1395 -0.2326 -0.2196
 9330TIP3    H149481   4.695   2.975  16.118  1.5732  0.1902 -0.9520
 9330TIP3    H249482   4.583   2.900  16.048  0.2780 -0.3388  1.5548
 9331TIP3   OH249483   6.715   5.389   1.335  0.2174 -0.7444 -0.0969
 9331TIP3    H149484   6.640   5.359   1.284  0.8599  0.5419 -1.9376
 9331TIP3    H249485   6.791   5.365   1.282  0.9435  0.4212  0.3587
 9332TIP3   OH249486   4.130   2.737   4.357 -0.1860  0.2305  0.0898
 9332TIP3    H149487   4.099   2.822   4.387  0.2173  0.4246 -0.0375
 9332TIP3    H249488   4.221   2.732   4.387  0.4901  0.7670 -1.7517
 9333TIP3   OH249489   2.050   5.418   6.300  0.4461 -0.5126 -0.2996
 9333TIP3    H149490   2.026   5.506   6.274  0.2400 -0.9946 -1.8713
 9333TIP3    H249491   1.968   5.368   6.297  0.6689 -0.8989 -0.1047
 9334TIP3   OH249492   0.222   0.454  13.032 -1.0294 -0.5919 -0.2918
 9334TIP3    H149493   0.180   0.456  12.946  0.0609 -2.5986 -0.9262
 9334TIP3    H249494   0.255   0.364  13.041 -3.2247 -1.2582  3.2455
 9335TIP3   OH249495   5.388   5.440  15.194 -0.1513 -0.2409 -0.2267
 9335TIP3    H149496   5.452   5.379  15.158 -0.1238 -1.6039  1.9190
 9335TIP3    H249497   5.434   5.523  15.200  0.9915 -0.8616 -0.0263
 9336TIP3   OH249498   3.196   2.228  11.904  0.4573  0.3309 -0.2781
 9336TIP3    H149499   3.137   2.183  11.843 -1.9318  0.6456  1.6318
 9336TIP3    H249500   3.266   2.262  11.849  0.0658 -1.9729 -2.3893
 9337TIP3   OH249501   0.450   2.718   0.637  0.2704 -0.2962 -0.0027
 9337TIP3    H149502   0.456   2.813   0.627  1.7462 -0.4386 -0.6485
 9337TIP3    H249503   0.517   2.683   0.579 -0.5884 -1.7691 -0.1621
 9338TIP3   OH249504   1.147   2.007  12.807 -0.6632  0.6363  0.1375
 9338TIP3    H149505   1.234   2.026  12.773 -1.2913  0.9160 -1.3991
 9338TIP3    H249506   1.144   1.911  12.815 -0.6856  0.5135 -1.1777
 9339TIP3   OH249507   2.624   3.902   6.109  0.0709  0.3962  0.0020
 9339TIP3    H149508   2.593   3.976   6.162 -1.5460  0.6373 -1.1764
 9339TIP3    H249509   2.559   3.833   6.123  0.3390 -0.0015 -0.6312
 9340TIP3   OH249510   3.144   0.352   1.805 -0.2217 -0.4790  0.7533
 9340TIP3    H149511   3.088   0.282   1.837  0.8048 -2.0631 -0.7259
 9340TIP3    H249512   3.092   0.394   1.735 -0.2901 -0.7072  0.6657
 9341TIP3   OH249513   5.637   2.567   0.022  0.2643  0.1140  0.4492
 9341TIP3    H149514   5.672   2.599  -0.061  1.0356  0.7220  0.9974
 9341TIP3    H249515   5.698   2.499   0.049  0.8637  0.9427  1.2404
 9342TIP3   OH249516   0.747   0.275  15.316 -0.3328  0.3828 -0.3619
 9342TIP3    H149517   0.705   0.194  15.288 -0.2224  0.2895 -0.2631
 9342TIP3    H249518   0.812   0.294  15.249 -0.0799  0.1686 -0.1784
 9343TIP3   OH249519   0.020   0.261  16.553 -0.7893  0.1668 -0.1048
 9343TIP3    H149520   0.006   0.272  16.647  0.5446  1.1218  0.0013
 9343TIP3    H249521  -0.035   0.186  16.530  0.1296 -1.1584  1.7584
 9344TIP3   OH249522   1.068   1.130  16.214 -0.0912  0.2931  0.0225
 9344TIP3    H149523   0.988   1.119  16.162 -0.3150  0.6122  0.2934
 9344TIP3    H249524   1.130   1.171  16.154 -0.3650  0.7047  0.0187
 9345TIP3   OH249525   5.405   0.710   5.585  0.3477 -0.3711  0.5517
 9345TIP3    H149526   5.338   0.662   5.536  2.3212 -1.0832 -1.7079
 9345TIP3    H249527   5.385   0.802   5.571 -0.2144 -0.5752 -0.0228
 9346TIP3   OH249528   0.412   2.148   3.587  0.1795  0.2177  0.2844
 9346TIP3    H149529   0.450   2.061   3.569 -0.0136  0.1831  0.0333
 9346TIP3    H249530   0.470   2.186   3.653  0.7355  0.2210 -0.1879
 9347TIP3   OH249531   0.881   0.446  12.294  0.5192 -1.3040  0.4106
 9347TIP3    H149532   0.860   0.354  12.313 -0.7000 -0.8674  1.2939
 9347TIP3    H249533   0.929   0.476  12.370 -0.4353 -0.8039  0.8418
 9348TIP3   OH249534   5.248   5.105  12.870  0.0877 -0.3017  0.5734
 9348TIP3    H149535   5.209   5.158  12.800 -0.4652 -2.9424 -1.2805
 9348TIP3    H249536   5.342   5.123  12.864 -0.0900  0.4915  0.0054
 9349TIP3   OH249537   1.680   5.933   0.315  0.2652 -0.2573 -0.3341
 9349TIP3    H149538   1.585   5.939   0.322  0.1382 -0.3292 -1.8329
 9349TIP3    H249539   1.711   6.019   0.346 -0.2331 -0.4164  0.6552
 9350TIP3   OH249540   4.262   0.326   5.026  0.0348 -0.6929  0.1668
 9350TIP3    H149541   4.232   0.243   4.989 -0.9220 -0.1239 -0.3931
 9350TIP3    H249542   4.195   0.348   5.092  0.2640 -0.3507  0.2869
 9351TIP3   OH249543   2.440   5.492  15.506 -0.0032 -0.2353  0.0873
 9351TIP3    H149544   2.507   5.441  15.551  0.6813  1.3015  0.9188
 9351TIP3    H249545   2.485   5.573  15.481 -0.2546 -1.0463 -3.6386
 9352TIP3   OH249546   0.358   6.560   6.065  0.3693 -0.1679 -0.1479
 9352TIP3    H149547   0.404   6.486   6.104 -1.2911 -1.3802 -0.3310
 9352TIP3    H249548   0.410   6.583   5.988  1.8738  0.0569  0.9137
 9353TIP3   OH249549   3.192   3.808  14.830 -0.5283 -0.1017 -0.2157
 9353TIP3    H149550   3.222   3.887  14.785 -2.1044  0.4976 -0.2744
 9353TIP3    H249551   3.104   3.793  14.795 -0.3277 -1.7918 -0.0690
 9354TIP3   OH249552   1.380   5.109   2.451 -0.3838 -0.5543  0.0279
 9354TIP3    H149553   1.302   5.053   2.450 -0.8428  0.0301  1.3167
 9354TIP3    H249554   1.447   5.056   2.493  0.1273 -1.2834 -1.6221
 9355TIP3   OH249555   6.524   1.217   0.635  0.2599  0.1430  0.6489
 9355TIP3    H149556   6.523   1.124   0.659  0.7869  0.2289  1.0340
 9355TIP3    H249557   6.615   1.234   0.610 -0.0782  0.2847 -0.5297
 9356TIP3   OH249558   5.435   1.311  14.308  0.0324 -0.8501 -0.3730
 9356TIP3    H149559   5.478   1.261  14.239 -0.3600 -1.0813 -0.4534
 9356TIP3    H249560   5.475   1.280  14.389  1.0387 -0.0339 -0.5400
 9357TIP3   OH249561   5.141   4.705   5.432 -0.1736  0.1480  0.2303
 9357TIP3    H149562   5.098   4.643   5.491  1.3980 -1.2107  0.0365
 9357TIP3    H249563   5.116   4.677   5.344  0.0732  0.1326  0.1627
 9358TIP3   OH249564   4.726   2.328   6.414 -0.2099 -0.5461  0.1528
 9358TIP3    H149565   4.644   2.376   6.403 -0.8442 -1.6912 -0.2562
 9358TIP3    H249566   4.794   2.389   6.385 -0.8086  0.7622  1.3952
 9359TIP3   OH249567   1.088   6.326   5.477  0.0275  0.4910  0.5098
 9359TIP3    H149568   1.135   6.402   5.443  2.1092  0.4494  2.9433
 9359TIP3    H249569   1.030   6.362   5.544 -0.4780  0.1120  0.2853
 9360TIP3   OH249570   5.835   2.341   3.341  0.6992  0.0328 -0.3135
 9360TIP3    H149571   5.854   2.407   3.408  0.4164 -0.0302 -0.1692
 9360TIP3    H249572   5.799   2.268   3.390  0.0518  0.1663 -0.5902
 9361TIP3   OH249573   3.301   6.849  14.645 -0.3264  0.2664 -0.1492
 9361TIP3    H149574   3.211   6.841  14.675 -0.4372  0.7655 -0.3428
 9361TIP3    H249575   3.310   6.779  14.579 -0.4607 -0.0114  0.1261
 9362TIP3   OH249576   0.773   2.730   1.640  0.0640  0.5533 -0.0888
 9362TIP3    H149577   0.861   2.733   1.604 -0.1041 -1.5042 -0.8248
 9362TIP3    H249578   0.765   2.810   1.691  2.1203  1.0920 -0.5167
 9363TIP3   OH249579   3.096   5.420   3.039  0.4569 -0.2015  0.3001
 9363TIP3    H149580   3.037   5.345   3.031 -0.1253  0.2846 -0.1902
 9363TIP3    H249581   3.039   5.491   3.068  1.3571 -0.3881  2.7103
 9364TIP3   OH249582   2.927   2.757   3.722 -0.3686  0.4331 -0.3934
 9364TIP3    H149583   2.991   2.813   3.680  0.7074  0.4117  1.1521
 9364TIP3    H249584   2.846   2.808   3.722 -0.2140  0.7247 -1.7391
 9365TIP3   OH249585   0.786   4.280  17.080 -0.2089 -0.0050 -0.5100
 9365TIP3    H149586   0.810   4.344  17.147 -0.2107  0.9562 -1.3978
 9365TIP3    H249587   0.725   4.327  17.023 -3.8157 -2.1218  1.2390
 9366TIP3   OH249588   5.552   2.124   6.358 -0.1043 -0.0369 -0.1761
 9366TIP3    H149589   5.474   2.150   6.408  0.5965  0.7545  0.5190
 9366TIP3    H249590   5.556   2.187   6.286 -0.9365 -0.9901 -1.1077
 9367TIP3   OH249591   1.859   0.381  15.305 -0.0461  0.0061  0.0911
 9367TIP3    H149592   1.857   0.299  15.255  0.1489 -0.5342  0.9531
 9367TIP3    H249593   1.903   0.358  15.387  1.6194  1.3746 -0.3611
 9368TIP3   OH249594   3.218   6.326   6.645 -0.2342 -0.0732  0.0742
 9368TIP3    H149595   3.246   6.408   6.686 -1.1647 -0.6568  1.9786
 9368TIP3    H249596   3.299   6.283   6.619  0.4006  0.4037  1.2026
 9369TIP3   OH249597   4.367   5.279   0.410 -0.1171 -0.0425 -0.2114
 9369TIP3    H149598   4.442   5.308   0.358  0.8242  0.0336  1.1062
 9369TIP3    H249599   4.292   5.326   0.373  0.4527 -0.2160 -1.6385
 9370TIP3   OH249600   3.170   0.692  14.621  0.7752 -0.1342  0.2806
 9370TIP3    H149601   3.176   0.597  14.632 -1.7373 -0.3563  0.3748
 9370TIP3    H249602   3.154   0.726  14.709  0.8887  0.2900  0.1393
 9371TIP3   OH249603   6.750   0.357  15.535 -0.3464  0.1020 -0.2746
 9371TIP3    H149604   6.718   0.445  15.518 -0.0068  0.5032  1.0286
 9371TIP3    H249605   6.676   0.300  15.512 -0.3260  0.6405 -1.7982
 9372TIP3   OH249606   6.068   4.393  13.209  0.0322  0.7647  0.1732
 9372TIP3    H149607   6.126   4.348  13.270  0.4625 -0.8090 -1.3251
 9372TIP3    H249608   6.096   4.485  13.213  0.4815  0.5963  1.7980
 9373TIP3   OH249609   1.436   3.314   1.977 -0.0536 -0.5016  0.1148
 9373TIP3    H149610   1.353   3.343   2.016 -0.1720 -0.2893 -0.2920
 9373TIP3    H249611   1.493   3.390   1.985  0.9748 -1.4298  2.7802
 9374TIP3   OH249612   6.423   1.084  10.428  0.2793 -0.4249  0.0543
 9374TIP3    H149613   6.495   1.146  10.438 -0.4183  0.5245 -0.6360
 9374TIP3    H249614   6.354   1.119  10.484 -0.0501 -0.7070 -0.1723
 9375TIP3   OH249615   1.128   6.015  13.170  0.4835  0.3083  0.0820
 9375TIP3    H149616   1.163   5.932  13.202  0.4259  0.1164 -0.3463
 9375TIP3    H249617   1.145   6.013  13.076 -0.3326  0.3764 -0.0728
 9376TIP3   OH249618   2.147   3.219   4.774 -0.4746  0.0272 -0.0845
 9376TIP3    H149619   2.113   3.287   4.716 -1.3265  0.4758  0.9102
 9376TIP3    H249620   2.233   3.251   4.803 -1.0958  0.9540  0.7911
 9377TIP3   OH249621   4.430   2.653  13.206  0.4857  0.2644 -0.3285
 9377TIP3    H149622   4.512   2.614  13.237  1.6585  1.2240 -2.1035
 9377TIP3    H249623   4.426   2.738  13.249 -0.2421 -0.2366  0.6777
 9378TIP3   OH249624   2.431   4.228   5.634 -0.3190  0.2130 -0.0733
 9378TIP3    H149625   2.438   4.303   5.693 -1.4797 -0.2814  0.7243
 9378TIP3    H249626   2.486   4.160   5.675 -1.8489 -0.4391  0.9784
 9379TIP3   OH249627   3.540   3.801   0.205 -0.3223  0.1467  0.3825
 9379TIP3    H149628   3.462   3.807   0.261  0.2038 -1.0879  1.2982
 9379TIP3    H249629   3.613   3.811   0.266  0.2977 -2.4273  0.1511
 9380TIP3   OH249630   5.267   0.887   3.070  0.7034  0.0648  0.5978
 9380TIP3    H149631   5.350   0.850   3.041  0.9267  0.8459  0.2144
 9380TIP3    H249632   5.202   0.819   3.052  0.4074  1.2757 -3.9890
 9381TIP3   OH249633   3.840   5.106   0.821 -0.4467  0.0964 -0.4054
 9381TIP3    H149634   3.923   5.064   0.845 -0.2378 -1.4505 -3.3701
 9381TIP3    H249635   3.859   5.200   0.823  0.8972 -0.1592  0.4298
 9382TIP3   OH249636   4.486   6.648   0.559 -0.2785  0.0179  1.0008
 9382TIP3    H149637   4.402   6.658   0.515 -0.4228 -1.5173  0.8851
 9382TIP3    H249638   4.542   6.715   0.519 -0.7743 -0.4679 -0.5965
 9383TIP3   OH249639   3.837   1.836  15.449 -0.4990 -0.4995  0.1676
 9383TIP3    H149640   3.859   1.792  15.367  0.5649 -2.1087  1.2536
 9383TIP3    H249641   3.741   1.843  15.447 -0.6691 -2.4025 -0.3314
 9384TIP3   OH249642   1.829   1.577  15.228  0.3278 -0.0653  0.5892
 9384TIP3    H149643   1.787   1.573  15.143  0.8608 -1.8217  0.3739
 9384TIP3    H249644   1.917   1.541  15.213  0.8339  0.6713  1.6500
 9385TIP3   OH249645   2.239   5.259  11.505  0.3732 -0.2561 -0.3378
 9385TIP3    H149646   2.328   5.233  11.480  1.2170  2.1561 -0.1325
 9385TIP3    H249647   2.194   5.274  11.421  0.2656 -1.1090 -0.4388
 9386TIP3   OH249648   5.633   2.639  10.639 -0.2735  0.2642  0.1750
 9386TIP3    H149649   5.707   2.645  10.699  1.9565 -1.7436 -2.1454
 9386TIP3    H249650   5.578   2.570  10.676 -1.2096  1.8953  2.0092
 9387TIP3   OH249651   3.937   2.089   4.479 -0.5022 -0.0823 -0.7234
 9387TIP3    H149652   3.981   2.014   4.519  0.0647 -0.7924 -2.5500
 9387TIP3    H249653   3.853   2.054   4.449  0.2776 -0.4160 -2.7309
 9388TIP3   OH249654   1.168   1.073  15.091  0.2555 -0.1175  0.1497
 9388TIP3    H149655   1.202   1.146  15.040  1.9806  0.2086  1.6323
 9388TIP3    H249656   1.245   1.041  15.140 -0.7758 -1.9708  0.6467
 9389TIP3   OH249657   3.836   1.840  10.428 -0.5591  0.1109 -0.5213
 9389TIP3    H149658   3.827   1.902  10.355 -0.1185  1.0907  0.2334
 9389TIP3    H249659   3.833   1.895  10.506  0.3566 -0.7589  0.1528
 9390TIP3   OH249660   3.763   3.177  12.060 -0.3021  0.6865  0.2746
 9390TIP3    H149661   3.809   3.096  12.083 -1.5340  0.6387  3.0177
 9390TIP3    H249662   3.726   3.161  11.974  2.4246 -0.2858 -0.8146
 9391TIP3   OH249663   2.441   1.979   1.104  0.2089 -0.2879  0.2485
 9391TIP3    H149664   2.351   1.948   1.108  1.0330 -2.7494  2.9174
 9391TIP3    H249665   2.475   1.944   1.022 -0.6771 -1.1657  0.2423
 9392TIP3   OH249666   4.321   2.491  11.660  0.0456  0.0123  0.1178
 9392TIP3    H149667   4.235   2.522  11.689  0.5135 -0.7507  2.5620
 9392TIP3    H249668   4.373   2.570  11.649 -0.4979  0.3898  0.2202
 9393TIP3   OH249669   2.456   4.334   1.486  0.3155 -0.7135  0.3374
 9393TIP3    H149670   2.411   4.346   1.403  0.8592 -0.9075  0.0086
 9393TIP3    H249671   2.436   4.245   1.513 -0.0991 -0.5531  0.5617
 9394TIP3   OH249672   3.942   3.990   2.651  0.1673  0.4726  0.1578
 9394TIP3    H149673   4.004   3.962   2.718 -0.9801  1.5885  1.7541
 9394TIP3    H249674   3.884   3.915   2.639  0.3306  0.2985  0.4515
 9395TIP3   OH249675   4.187   5.225   1.054 -0.0350  0.0333 -0.2386
 9395TIP3    H149676   4.204   5.151   1.112 -0.3789 -0.4206 -0.7051
 9395TIP3    H249677   4.150   5.293   1.110 -0.5348 -0.4654  0.0361
 9396TIP3   OH249678   3.727   0.744  16.785  0.5077 -0.0513 -0.6454
 9396TIP3    H149679   3.718   0.808  16.715  1.0968  0.1688 -0.5264
 9396TIP3    H249680   3.797   0.686  16.756  0.7347  0.0241 -0.2474
 9397TIP3   OH249681   4.840   0.631   5.496 -0.2929  0.4715 -0.1451
 9397TIP3    H149682   4.883   0.717   5.498  0.7487 -0.0451  1.2099
 9397TIP3    H249683   4.880   0.586   5.421  1.6697 -0.0102  1.0993
 9398TIP3   OH249684   0.139   4.128  13.765  0.1228  0.3514  0.4242
 9398TIP3    H149685   0.094   4.179  13.833  1.1715 -0.6680  1.9662
 9398TIP3    H249686   0.182   4.193  13.711 -0.0931  1.1851  1.2292
 9399TIP3   OH249687   3.565   2.341  16.169 -0.9943 -0.3186 -0.0284
 9399TIP3    H149688   3.566   2.427  16.211  1.5900 -0.3374  0.1102
 9399TIP3    H249689   3.502   2.290  16.219  0.8036  0.1352  2.9219
 9400TIP3   OH249690   2.176   5.995   2.144  0.0017  0.2549 -0.4475
 9400TIP3    H149691   2.103   5.955   2.098  1.2371 -2.1398 -0.5319
 9400TIP3    H249692   2.136   6.042   2.217 -1.6718 -0.0672 -1.1114
 9401TIP3   OH249693   3.434   3.342   2.121 -0.6494 -0.3052  0.1106
 9401TIP3    H149694   3.495   3.347   2.195  1.6299 -0.1433 -1.6486
 9401TIP3    H249695   3.380   3.420   2.130 -0.8926 -0.6275  1.9304
 9402TIP3   OH249696   0.010   2.449  15.714  0.4151 -0.4443 -0.2767
 9402TIP3    H149697   0.076   2.380  15.708  0.9843  0.2163 -2.5818
 9402TIP3    H249698   0.051   2.526  15.676 -0.4438  1.0571  1.5957
 9403TIP3   OH249699   1.525   2.944   3.907 -0.9138  0.3354 -1.3094
 9403TIP3    H149700   1.440   2.912   3.936 -0.2647  0.1071  0.4759
 9403TIP3    H249701   1.517   3.039   3.911 -0.5775  0.3327  0.6448
 9404TIP3   OH249702   6.666   5.169   5.143  0.2109 -0.1749  0.1392
 9404TIP3    H149703   6.622   5.223   5.078 -1.1107 -0.4531  0.7659
 9404TIP3    H249704   6.755   5.160   5.111  0.3220  1.9195 -0.2465
 9405TIP3   OH249705   5.068   3.980  15.347  0.0896 -0.0936  0.1512
 9405TIP3    H149706   5.073   4.037  15.270 -0.4746 -0.6592 -0.3050
 9405TIP3    H249707   5.032   3.898  15.315 -0.0423 -0.3792  0.9980
 9406TIP3   OH249708   6.333   1.849  13.072 -0.4921  0.0671  0.3823
 9406TIP3    H149709   6.423   1.860  13.041 -1.2964  1.5820 -1.5601
 9406TIP3    H249710   6.341   1.844  13.168  1.5588  1.0424  0.3040
 9407TIP3   OH249711   3.164   1.716   3.445 -0.7281 -0.2115  1.0372
 9407TIP3    H149712   3.255   1.706   3.419 -1.3015 -3.5342 -0.2418
 9407TIP3    H249713   3.135   1.797   3.402  1.2156  0.0882  0.2135
 9408TIP3   OH249714   2.212   3.351  11.302 -0.1526  0.0724  0.5437
 9408TIP3    H149715   2.124   3.373  11.270  0.0828  2.5763  1.3792
 9408TIP3    H249716   2.234   3.422  11.362  1.9853 -1.1278  1.3021
 9409TIP3   OH249717   6.051   0.833   4.994 -0.2757 -0.3330 -0.4840
 9409TIP3    H149718   6.138   0.864   5.022 -0.6051 -1.0683  1.5317
 9409TIP3    H249719   6.041   0.748   5.038 -1.2914 -1.1262 -2.1608
 9410TIP3   OH249720   3.078   1.908   3.253 -0.2511  0.1659  0.2437
 9410TIP3    H149721   3.126   1.978   3.295  2.6278 -2.4550  1.7240
 9410TIP3    H249722   3.127   1.889   3.173 -1.8756  0.7491 -0.9538
 9411TIP3   OH249723   1.323   6.787  14.128 -0.4326  0.4112  0.1301
 9411TIP3    H149724   1.321   6.758  14.219  0.0188 -0.3441 -0.0986
 9411TIP3    H249725   1.329   6.883  14.135 -0.3204  0.3607  0.8870
 9412TIP3   OH249726   4.797   1.269  13.946  0.6679 -0.0237 -0.1897
 9412TIP3    H149727   4.714   1.254  13.993  1.3775 -3.3120  0.2184
 9412TIP3    H249728   4.862   1.279  14.016  0.9451  0.6118 -0.5262
 9413TIP3   OH249729   4.706   0.532   3.835  0.4227  0.1967 -0.1193
 9413TIP3    H149730   4.780   0.471   3.840 -1.6952 -2.5173  0.7853
 9413TIP3    H249731   4.725   0.599   3.900  2.4159  0.0434 -0.4707
 9414TIP3   OH249732   4.407   4.279   2.131  0.0351  0.0715 -0.3108
 9414TIP3    H149733   4.313   4.262   2.128  0.3731 -2.6075  1.2899
 9414TIP3    H249734   4.446   4.213   2.073  0.9574  1.1516 -0.9644
 9415TIP3   OH249735   0.706   1.732  13.582 -0.2658 -1.1801 -0.3222
 9415TIP3    H149736   0.620   1.761  13.613 -0.4165 -3.4064  1.5891
 9415TIP3    H249737   0.768   1.790  13.626 -0.7038 -1.1252  0.2273
 9416TIP3   OH249738   4.477   0.224  15.286  0.7763 -0.1324  0.1384
 9416TIP3    H149739   4.557   0.231  15.338  1.6477 -0.4976 -1.1023
 9416TIP3    H249740   4.467   0.130  15.270  2.2295  0.1162 -2.8233
 9417TIP3   OH249741   1.383   5.990   4.173  0.1332 -0.4163 -0.7453
 9417TIP3    H149742   1.381   6.066   4.115 -0.2040 -0.4785 -0.8182
 9417TIP3    H249743   1.348   5.919   4.120  1.0989 -0.7866 -0.9045
 9418TIP3   OH249744   4.482   0.360  12.087  0.0605 -0.3810  0.2491
 9418TIP3    H149745   4.577   0.372  12.087  0.1629 -1.1263  0.0246
 9418TIP3    H249746   4.447   0.441  12.050  0.6902 -0.6151 -0.8937
 9419TIP3   OH249747   1.206   0.334   5.632  0.8279  0.3935  0.1324
 9419TIP3    H149748   1.221   0.411   5.687 -1.6745  0.5200  0.7580
 9419TIP3    H249749   1.162   0.271   5.690 -0.4256 -0.0886 -1.2825
 9420TIP3   OH249750   2.108   2.372  15.283 -0.3031 -0.3550  0.8581
 9420TIP3    H149751   2.185   2.339  15.238 -1.6349 -0.9234 -1.1825
 9420TIP3    H249752   2.098   2.316  15.360  0.9703 -0.6367  0.8373
 9421TIP3   OH249753   1.071   6.088  16.373  0.0351 -0.2941  0.1888
 9421TIP3    H149754   1.114   6.006  16.397 -0.5516 -0.6086  0.2008
 9421TIP3    H249755   1.079   6.092  16.277  1.6348  0.5405  0.3251
 9422TIP3   OH249756   2.753   0.031   1.181 -0.0385  0.2175  0.2562
 9422TIP3    H149757   2.753  -0.020   1.100  0.3175 -0.2334  0.5364
 9422TIP3    H249758   2.687   0.098   1.167 -1.0017 -0.7376  0.1577
 9423TIP3   OH249759   3.216   1.661  14.553 -0.2721  0.3942  0.0743
 9423TIP3    H149760   3.278   1.589  14.538  0.3231  0.6245  1.2971
 9423TIP3    H249761   3.249   1.733  14.499  0.5282  0.5065  0.6925
 9424TIP3   OH249762   0.219   2.847  12.179 -0.0049  0.3502 -0.0226
 9424TIP3    H149763   0.286   2.883  12.121  3.6460 -1.5672  2.6246
 9424TIP3    H249764   0.205   2.758  12.146  0.4117  0.0164  0.6859
 9425TIP3   OH249765   5.857   6.026   0.313  0.3405  0.5562 -0.5370
 9425TIP3    H149766   5.767   5.994   0.311  0.4273  0.3297 -1.0580
 9425TIP3    H249767   5.862   6.079   0.392 -0.4269  1.0745 -0.8287
 9426TIP3   OH249768   1.844   2.533  17.118 -0.2229  0.2370 -0.8899
 9426TIP3    H149769   1.919   2.478  17.097  0.2466  0.5097  0.0159
 9426TIP3    H249770   1.819   2.507  17.207 -0.0182  1.4489 -0.4575
 9427TIP3   OH249771   0.232   4.395   1.710 -0.5266  0.0541  0.2612
 9427TIP3    H149772   0.156   4.336   1.704 -0.2205 -0.5594  1.7803
 9427TIP3    H249773   0.195   4.483   1.706 -1.2033 -0.2438 -0.1326
 9428TIP3   OH249774   6.284   1.256   1.564 -0.4141  0.7770 -0.1614
 9428TIP3    H149775   6.191   1.271   1.545 -2.0087 -3.5527  2.6259
 9428TIP3    H249776   6.307   1.181   1.510  0.0184 -0.9673  2.3154
 9429TIP3   OH249777   5.930   5.985   4.355  0.4125 -0.6262  0.3004
 9429TIP3    H149778   5.977   6.065   4.331 -2.7439  0.6918 -2.3581
 9429TIP3    H249779   5.969   5.918   4.298 -0.3565  0.2936 -1.4095
 9430TIP3   OH249780   6.593   0.784  13.715 -0.5390  0.3579 -0.0052
 9430TIP3    H149781   6.639   0.752  13.793 -0.3539 -2.1179 -1.0201
 9430TIP3    H249782   6.663   0.817  13.658 -0.3915 -0.1473 -0.1213
 9431TIP3   OH249783   3.303   4.958   4.991  0.3075  0.0877  0.2839
 9431TIP3    H149784   3.248   4.918   4.924 -0.0019 -1.5185  1.4273
 9431TIP3    H249785   3.377   4.899   5.000  0.8792  0.8414  0.6104
 9432TIP3   OH249786   4.641   0.960   6.572  0.8214 -0.0698  0.0661
 9432TIP3    H149787   4.657   1.053   6.557 -1.7943  0.2525 -1.5159
 9432TIP3    H249788   4.631   0.952   6.667  3.3077  0.7578  0.4695
 9433TIP3   OH249789   3.645   2.634   4.207  0.0585  0.1856 -0.1515
 9433TIP3    H149790   3.674   2.721   4.237  1.4418 -0.3174  0.0313
 9433TIP3    H249791   3.643   2.581   4.287  0.4064 -0.2735 -0.4480
 9434TIP3   OH249792   0.905   3.121   3.095 -0.6961 -0.1815 -0.1899
 9434TIP3    H149793   0.830   3.063   3.081 -2.2591  1.4595  1.0897
 9434TIP3    H249794   0.928   3.151   3.007  1.1028 -3.6888 -1.1341
 9435TIP3   OH249795   2.656   2.992  17.086 -0.7256  0.3884 -0.4751
 9435TIP3    H149796   2.608   3.072  17.065  1.3118  1.0787 -3.1876
 9435TIP3    H249797   2.724   3.020  17.147 -1.6176  0.1355  0.6550
 9436TIP3   OH249798   3.680   5.539   0.914 -0.6696  0.6090  0.4112
 9436TIP3    H149799   3.676   5.610   0.850  1.2688  0.0170 -0.4172
 9436TIP3    H249800   3.687   5.583   0.999  1.6018  1.4760 -0.1608
 9437TIP3   OH249801   1.018   3.595  15.462  0.2183 -0.2677 -0.2600
 9437TIP3    H149802   0.972   3.514  15.439  2.0092 -2.1287  2.1325
 9437TIP3    H249803   1.110   3.574  15.452  0.7402  1.4737  0.5122
 9438TIP3   OH249804   1.953   1.673   4.100  0.3764 -0.0312  0.4377
 9438TIP3    H149805   1.909   1.718   4.028 -0.5818 -0.0882  0.9617
 9438TIP3    H249806   1.953   1.581   4.073  0.7464  0.0480  0.1571
 9439TIP3   OH249807   4.829   0.370   4.229  0.2930  0.2523 -0.5686
 9439TIP3    H149808   4.836   0.414   4.314  0.5040  1.8375 -1.3599
 9439TIP3    H249809   4.736   0.372   4.209  0.3798  1.0693 -0.9426
 9440TIP3   OH249810   1.598   5.131   0.811  0.0389 -0.1836  0.4545
 9440TIP3    H149811   1.669   5.193   0.826 -0.4711  0.9012 -1.2675
 9440TIP3    H249812   1.632   5.048   0.842  0.6968  0.9265  3.0058
 9441TIP3   OH249813   6.646   3.734   3.601 -0.1213  0.2159 -0.2234
 9441TIP3    H149814   6.667   3.826   3.584 -1.5992  0.9265  1.4960
 9441TIP3    H249815   6.617   3.700   3.517  2.6167  0.6211 -1.4579
 9442TIP3   OH249816   0.565   3.877  15.023 -0.7139 -0.2515 -0.3004
 9442TIP3    H149817   0.624   3.852  15.094 -0.7879 -1.4104 -0.6266
 9442TIP3    H249818   0.478   3.861  15.058 -0.9310  2.1208  0.4367
 9443TIP3   OH249819   1.224   1.601   3.378 -0.4077  0.2930  0.6056
 9443TIP3    H149820   1.149   1.604   3.437 -0.5770  2.6387  0.3723
 9443TIP3    H249821   1.186   1.610   3.290  0.1029  1.1859  0.4656
 9444TIP3   OH249822   3.747   2.836   3.789 -0.2062  0.3774  0.2205
 9444TIP3    H149823   3.652   2.842   3.782 -0.2358  0.3837  0.6313
 9444TIP3    H249824   3.768   2.873   3.875  0.0750 -0.4963  0.5398
 9445TIP3   OH249825   6.177   3.740   2.427  0.4684 -0.1800  0.5635
 9445TIP3    H149826   6.223   3.716   2.507 -1.1189  0.4575  1.7121
 9445TIP3    H249827   6.114   3.806   2.454  0.3855  0.5995 -1.3612
 9446TIP3   OH249828   0.858   6.208   2.967  0.2913  0.4557  0.3127
 9446TIP3    H149829   0.912   6.170   3.036 -1.6853 -0.5549  1.3969
 9446TIP3    H249830   0.907   6.193   2.886  0.6954 -2.2894  0.9878
 9447TIP3   OH249831   1.301   0.027   1.043 -0.2400 -0.7560  0.2380
 9447TIP3    H149832   1.284   0.107   0.994 -1.3132 -1.0274  0.1544
 9447TIP3    H249833   1.392   0.005   1.022  0.4660  1.0677  1.1751
 9448TIP3   OH249834   2.370   5.704   0.539  0.0926 -0.0417  0.0302
 9448TIP3    H149835   2.404   5.666   0.620  0.6568  0.1503 -0.1141
 9448TIP3    H249836   2.447   5.713   0.482 -0.3450 -0.4454 -0.6377
 9449TIP3   OH249837   1.062   0.011  12.666 -0.5716  0.5891 -0.1621
 9449TIP3    H149838   1.148   0.051  12.670 -0.1136 -0.4379  1.6134
 9449TIP3    H249839   1.017   0.055  12.594  0.5671  2.8442  0.4267
 9450TIP3   OH249840   5.523   6.371  11.485  0.1348  0.1938  0.2922
 9450TIP3    H149841   5.615   6.359  11.509  0.5285  1.5832 -0.3722
 9450TIP3    H249842   5.506   6.303  11.420  1.2290  0.9529 -0.8499
 9451TIP3   OH249843   6.584   1.056   0.208 -0.0778  0.2633  0.0288
 9451TIP3    H149844   6.601   0.962   0.216  0.3068  0.1836 -1.4512
 9451TIP3    H249845   6.666   1.097   0.233 -0.5088  0.2733  1.5391
 9452TIP3   OH249846   4.313   2.954   4.151  0.0971  0.1651 -0.0493
 9452TIP3    H149847   4.347   2.869   4.123 -0.1179 -0.6108  1.9095
 9452TIP3    H249848   4.378   2.987   4.213 -2.3982 -1.2937  3.6772
 9453TIP3   OH249849   0.255   1.031  12.329  0.1135  0.3272  0.1004
 9453TIP3    H149850   0.335   0.990  12.363  0.5278 -1.2355 -2.4485
 9453TIP3    H249851   0.207   0.959  12.288 -3.9817  0.6637  3.6020
 9454TIP3   OH249852   1.445   2.249  15.845 -0.0970  0.5972  0.1485
 9454TIP3    H149853   1.534   2.217  15.861  0.2396  1.3167 -0.2363
 9454TIP3    H249854   1.400   2.175  15.804 -0.3118 -0.4917  2.2497
 9455TIP3   OH249855   5.952   1.039   4.852 -0.0315  0.0844 -0.2472
 9455TIP3    H149856   5.983   0.957   4.891  0.2145 -0.3734 -1.3935
 9455TIP3    H249857   6.011   1.106   4.887 -0.3598 -0.1791  0.8549
 9456TIP3   OH249858   3.165   2.405   1.262  0.0973 -0.0434  0.0067
 9456TIP3    H149859   3.192   2.472   1.326  0.7678  0.7113 -1.0430
 9456TIP3    H249860   3.109   2.346   1.312  1.6686 -0.2402  1.6361
 9457TIP3   OH249861   5.531   1.312   3.386  0.2332  0.1939 -0.5181
 9457TIP3    H149862   5.447   1.351   3.363 -0.2360 -0.5235 -0.0372
 9457TIP3    H249863   5.517   1.272   3.472  1.3614  0.9757  0.0604
 9458TIP3   OH249864   4.741   0.956  13.549 -0.1558 -0.2934 -0.3808
 9458TIP3    H149865   4.717   0.919  13.464  0.6003 -0.7820 -0.3869
 9458TIP3    H249866   4.800   1.028  13.527 -1.7285  1.0466 -0.3779
 9459TIP3   OH249867   3.276   6.629   2.812  0.1145  0.3757 -0.6225
 9459TIP3    H149868   3.250   6.538   2.823  1.2101 -0.0625 -1.4775
 9459TIP3    H249869   3.372   6.627   2.811  0.1495  1.3155 -2.2536
 9460TIP3   OH249870   1.687   6.115  12.137  0.4460  0.0944  0.1963
 9460TIP3    H149871   1.600   6.104  12.174 -0.2134 -1.1571 -1.5881
 9460TIP3    H249872   1.741   6.145  12.210 -1.4345  0.7746  1.3632
 9461TIP3   OH249873   0.816   0.703   2.352  0.3599  0.1962 -0.5402
 9461TIP3    H149874   0.745   0.673   2.409  0.0911  0.4276 -0.7484
 9461TIP3    H249875   0.793   0.794   2.332  1.4002  0.7003  0.4590
 9462TIP3   OH249876   3.157   6.366  11.429 -0.4056  0.3513  0.3871
 9462TIP3    H149877   3.211   6.303  11.477 -0.2647  0.6321  0.6031
 9462TIP3    H249878   3.216   6.440  11.413 -0.0862 -0.2308 -1.3085
 9463TIP3   OH249879   0.105   6.374   6.336  0.1893 -0.5407 -0.3776
 9463TIP3    H149880   0.103   6.292   6.384 -1.5721 -0.0289  0.4983
 9463TIP3    H249881   0.124   6.440   6.403 -0.7606  0.0092 -0.6327
 9464TIP3   OH249882   5.254   6.244   1.436 -0.4344 -0.3140  0.0511
 9464TIP3    H149883   5.175   6.271   1.390  1.1357 -0.6098 -3.1434
 9464TIP3    H249884   5.260   6.150   1.421 -0.0658 -0.5013  1.2789
 9465TIP3   OH249885   4.600   3.519   2.213  0.0832 -0.1941  0.2191
 9465TIP3    H149886   4.532   3.473   2.164  0.4001 -0.9480  0.4606
 9465TIP3    H249887   4.582   3.497   2.304 -1.2029  2.1442  0.5917
 9466TIP3   OH249888   3.412   6.744   3.999 -0.2573  0.1003  0.2985
 9466TIP3    H149889   3.349   6.675   3.978 -0.3413 -0.1313  1.2826
 9466TIP3    H249890   3.477   6.701   4.055  1.1703  0.1603 -1.2439
 9467TIP3   OH249891   3.185   3.318  13.360 -0.4709 -0.2456 -0.3446
 9467TIP3    H149892   3.253   3.348  13.300 -0.5311  1.0111  0.1733
 9467TIP3    H249893   3.103   3.340  13.316 -0.5861 -2.0795 -1.1278
 9468TIP3   OH249894   6.430   6.243   0.621 -0.3463  0.8897 -0.6283
 9468TIP3    H149895   6.371   6.176   0.588 -0.7647 -0.0917  1.9423
 9468TIP3    H249896   6.515   6.223   0.581 -0.2778 -1.6714  0.6653
 9469TIP3   OH249897   4.575   3.677   4.325  0.3427 -0.0270  0.3084
 9469TIP3    H149898   4.568   3.715   4.237  0.2754  3.2162  1.5835
 9469TIP3    H249899   4.502   3.615   4.330 -1.0897  1.4336 -1.1661
 9470TIP3   OH249900   1.725   6.437  12.193 -0.5083 -1.1727  0.3847
 9470TIP3    H149901   1.654   6.442  12.258 -1.6386 -1.5959 -0.7818
 9470TIP3    H249902   1.788   6.503  12.222 -2.1076  0.3272  0.6068
 9471TIP3   OH249903   3.828   1.533  13.055 -0.1344 -0.3376  0.2217
 9471TIP3    H149904   3.832   1.438  13.041 -0.3597 -0.2163 -0.7183
 9471TIP3    H249905   3.909   1.553  13.103 -0.0083 -0.9829  0.2908
 9472TIP3   OH249906   3.625   0.370  13.386  0.0401 -0.0085  0.0140
 9472TIP3    H149907   3.654   0.287  13.350  1.5352 -0.5395  2.2302
 9472TIP3    H249908   3.550   0.348  13.441  1.5503 -0.3213  2.0993
 9473TIP3   OH249909   0.434   2.671   2.185 -0.1646  0.2623  0.1733
 9473TIP3    H149910   0.493   2.599   2.208  1.4528  1.0334 -1.2829
 9473TIP3    H249911   0.442   2.678   2.089 -2.0443  0.9295  0.0157
 9474TIP3   OH249912   1.202   0.313  11.368  0.8262 -0.2874  0.3474
 9474TIP3    H149913   1.250   0.393  11.391  0.5782 -0.1759  0.4796
 9474TIP3    H249914   1.118   0.344  11.336  0.1773 -0.5330  1.7214
 9475TIP3   OH249915   5.019   6.184   4.113 -0.4857 -0.0639  0.1501
 9475TIP3    H149916   5.036   6.147   4.200 -1.7764  0.0616  0.4717
 9475TIP3    H249917   4.932   6.152   4.090 -0.7681  1.0800 -0.4554
 9476TIP3   OH249918   5.266   1.171   4.254 -0.1101  0.3549 -0.3477
 9476TIP3    H149919   5.256   1.130   4.340 -0.3529 -0.4782 -0.7607
 9476TIP3    H249920   5.185   1.222   4.243 -0.0891  0.4448 -0.0922
 9477TIP3   OH249921   1.173   3.667   0.063  0.0366 -0.0062 -0.3809
 9477TIP3    H149922   1.131   3.692   0.146  0.4912  0.3843 -0.2634
 9477TIP3    H249923   1.124   3.717  -0.003 -0.2805 -0.2633 -0.3433
 9478TIP3   OH249924   4.188   4.403   6.241 -0.5654  0.0272  0.0117
 9478TIP3    H149925   4.194   4.486   6.193 -3.3298  0.5129  0.3346
 9478TIP3    H249926   4.094   4.391   6.255 -0.2741 -3.2972 -0.2088
 9479TIP3   OH249927   5.956   2.527  12.620 -0.3676  0.7225 -0.3568
 9479TIP3    H149928   6.007   2.576  12.555 -0.0979 -0.0347 -0.7236
 9479TIP3    H249929   6.007   2.447  12.635 -1.6047 -0.1953 -0.9641
 9480TIP3   OH249930   2.880   5.621   0.386  0.5019  0.0300 -0.7754
 9480TIP3    H149931   2.941   5.695   0.384 -0.2335  0.6474 -0.9147
 9480TIP3    H249932   2.899   5.573   0.306  1.3502 -0.2406 -0.4222
 9481TIP3   OH249933   0.002   0.377  13.283 -0.3234 -0.1491 -0.1198
 9481TIP3    H149934   0.035   0.342  13.199 -0.0464 -1.5751  0.5464
 9481TIP3    H249935  -0.057   0.309  13.315 -0.9816  0.7113  0.5123
 9482TIP3   OH249936   5.930   5.583   0.780  0.2864 -0.4641  0.1211
 9482TIP3    H149937   5.865   5.514   0.773 -2.4223  2.0562 -1.6322
 9482TIP3    H249938   5.925   5.611   0.871 -2.4118  0.7664 -0.3286
 9483TIP3   OH249939   5.823   5.851   5.532  0.1948  0.4389 -0.0636
 9483TIP3    H149940   5.830   5.803   5.615  0.2500  1.3016  0.4465
 9483TIP3    H249941   5.741   5.821   5.494 -0.4054  0.8672  0.8613
 9484TIP3   OH249942   4.203   4.047  15.581  0.5426 -0.0395  0.0126
 9484TIP3    H149943   4.144   4.017  15.511 -1.0723  0.5645  1.0436
 9484TIP3    H249944   4.290   4.019  15.553  0.0368  0.6408 -2.5023
 9485TIP3   OH249945   5.021   2.040   1.379  0.6518  0.6577  0.4701
 9485TIP3    H149946   5.042   2.027   1.287 -0.2455  0.2215  0.3157
 9485TIP3    H249947   5.080   2.109   1.408  1.3326  0.4051 -0.2835
 9486TIP3   OH249948   2.349   2.205  16.830  0.1638  0.4024 -0.0713
 9486TIP3    H149949   2.411   2.278  16.831  0.4689  0.1412  0.2278
 9486TIP3    H249950   2.277   2.236  16.775  0.6727  0.6085 -0.6267
 9487TIP3   OH249951   5.354   6.345  10.629  0.1047 -0.0563  0.3861
 9487TIP3    H149952   5.393   6.384  10.551  1.1046 -1.1621  0.3118
 9487TIP3    H249953   5.260   6.363  10.620  0.1051 -0.7020 -1.4160
 9488TIP3   OH249954   5.998   1.573  10.964  0.2908  0.9717 -0.2400
 9488TIP3    H149955   6.068   1.589  10.901  0.4430  1.6663  0.0911
 9488TIP3    H249956   6.016   1.486  10.999 -0.1258  0.3309 -1.5647
 9489TIP3   OH249957   1.499   2.104   2.886 -0.0271 -0.3681 -0.5512
 9489TIP3    H149958   1.439   2.061   2.947 -0.6892  1.9941  0.5840
 9489TIP3    H249959   1.565   2.037   2.865 -1.2551 -2.0354  0.7017
 9490TIP3   OH249960   1.726   4.715  13.272  0.1932  0.3068 -0.1422
 9490TIP3    H149961   1.734   4.620  13.268 -1.9627  0.0337  0.6617
 9490TIP3    H249962   1.666   4.737  13.201 -0.2637  0.9241  0.4252
 9491TIP3   OH249963   5.363   2.946  13.542 -0.5522  0.8239 -0.4776
 9491TIP3    H149964   5.382   2.912  13.629 -2.4998 -0.8570 -0.6270
 9491TIP3    H249965   5.441   2.926  13.491  1.0266  2.6980  1.0384
 9492TIP3   OH249966   6.249   5.071   0.551  0.2159 -0.1901 -0.4560
 9492TIP3    H149967   6.194   5.106   0.481  1.0245 -0.0492 -1.0378
 9492TIP3    H249968   6.303   5.146   0.578  0.4583 -0.4472 -0.2193
 9493TIP3   OH249969   6.132   1.108  13.092 -0.2059  0.2279  0.6437
 9493TIP3    H149970   6.143   1.202  13.103  1.2718  0.2864 -0.8576
 9493TIP3    H249971   6.167   1.069  13.172  1.7760  0.8945  0.1590
 9494TIP3   OH249972   2.675   4.207  16.933 -0.1260 -0.0616 -0.2018
 9494TIP3    H149973   2.645   4.116  16.935 -1.5833  0.3164 -1.7002
 9494TIP3    H249974   2.709   4.219  16.844 -0.4010  0.9709 -0.1856
 9495TIP3   OH249975   5.906   3.997  13.000  0.0756 -0.1049  0.0783
 9495TIP3    H149976   5.862   4.053  13.064  1.1441  1.1072 -0.2003
 9495TIP3    H249977   5.866   4.021  12.916  0.8487  0.6030 -0.1023
 9496TIP3   OH249978   0.969   3.980  12.453  0.0170 -0.8004 -0.3838
 9496TIP3    H149979   0.968   3.885  12.466 -3.1729 -0.7955  0.2380
 9496TIP3    H249980   0.995   4.016  12.538  0.3490 -1.1163 -0.3521
 9497TIP3   OH249981   6.332   2.799  10.916  0.3735  1.2580  0.2412
 9497TIP3    H149982   6.352   2.710  10.944 -0.1927  1.1741  0.3922
 9497TIP3    H249983   6.260   2.789  10.853 -0.3545  1.6683  0.9829
 9498TIP3   OH249984   1.110   1.501  10.867  0.0276 -0.1072  0.2346
 9498TIP3    H149985   1.033   1.519  10.814  1.1469  3.8540 -0.3840
 9498TIP3    H249986   1.180   1.487  10.803  0.7239  1.3983  0.6024
 9499TIP3   OH249987   4.595   5.160  15.369 -0.2066 -1.2154  0.5410
 9499TIP3    H149988   4.606   5.091  15.303 -1.0519 -0.8488  0.0091
 9499TIP3    H249989   4.502   5.178  15.370  0.2541  2.0166 -1.4611
 9500TIP3   OH249990   5.193   1.640  13.347 -0.6307  0.0816 -0.4494
 9500TIP3    H149991   5.247   1.568  13.379  0.2833  0.4941 -1.0192
 9500TIP3    H249992   5.210   1.711  13.409 -0.7500  0.1195 -0.4603
 9501TIP3   OH249993   2.913   1.903   5.249  0.2275 -0.1403 -0.2628
 9501TIP3    H149994   2.870   1.848   5.183  1.5184 -1.0624 -0.3841
 9501TIP3    H249995   2.842   1.956   5.285 -0.9401 -1.2864 -0.7412
 9502TIP3   OH249996   0.363   5.522   4.903 -0.2034  0.1702  0.0044
 9502TIP3    H149997   0.305   5.582   4.857 -3.1117  0.0482  3.0982
 9502TIP3    H249998   0.441   5.574   4.922 -0.8629  1.5977 -1.0525
 9503TIP3   OH249999   0.580   1.421   4.210  0.7274  0.3266 -0.5870
 9503TIP3    H150000   0.563   1.485   4.279  2.2615  0.5872 -0.4036
 9503TIP3    H250001   0.494   1.402   4.173 -0.0531  0.6956  0.9376
 9504TIP3   OH250002   5.933   5.150   3.418  0.0306  0.2612  0.3411
 9504TIP3    H150003   5.946   5.116   3.330  0.6353  0.0702  0.5003
 9504TIP3    H250004   5.969   5.083   3.476 -0.3114  0.4060  0.7364
 9505TIP3   OH250005   3.278   0.927  11.931 -0.1669 -0.4729 -0.2387
 9505TIP3    H150006   3.324   0.995  11.882 -0.2899 -2.1208 -2.8616
 9505TIP3    H250007   3.289   0.952  12.023  1.7213  1.8094 -0.9676
 9506TIP3   OH250008   2.510   1.638  14.639 -0.0480  0.2971 -0.5676
 9506TIP3    H150009   2.425   1.598  14.657  0.2077  0.0212  0.0486
 9506TIP3    H250010   2.528   1.691  14.717  1.2159 -1.1372  0.1516
 9507TIP3   OH250011   3.018   6.366  13.854  0.5944  0.1852 -0.1402
 9507TIP3    H150012   3.006   6.370  13.949  1.5491  0.4179 -0.0242
 9507TIP3    H250013   2.991   6.277  13.831  0.4159  0.1055  0.3534
 9508TIP3   OH250014   3.123   1.453   0.163 -0.1767  0.1762 -0.2420
 9508TIP3    H150015   3.102   1.386   0.098  2.6919 -0.6720 -0.4015
 9508TIP3    H250016   3.162   1.524   0.113 -2.3387  1.6602  0.0472
 9509TIP3   OH250017   1.805   3.832   3.140 -0.1434  0.1467  0.0924
 9509TIP3    H150018   1.828   3.843   3.048  1.5488  1.1580  0.5953
 9509TIP3    H250019   1.889   3.818   3.185 -0.9674 -0.7600  1.4427
 9510TIP3   OH250020   6.221   5.372   0.296  0.4639 -0.1460 -0.1303
 9510TIP3    H150021   6.272   5.397   0.219  0.6002  1.5224  0.4800
 9510TIP3    H250022   6.154   5.440   0.305  0.6231 -0.1543  1.3914
 9511TIP3   OH250023   2.943   2.132   2.631 -0.1657 -0.5157  0.2104
 9511TIP3    H150024   2.885   2.193   2.586  1.5138  0.8581 -0.2099
 9511TIP3    H250025   2.968   2.068   2.563  0.8994  0.4706 -0.3572
 9512TIP3   OH250026   2.205   6.585  12.925  0.1377 -0.8748 -0.0822
 9512TIP3    H150027   2.251   6.641  12.863 -0.2613 -2.2455 -1.6852
 9512TIP3    H250028   2.113   6.608  12.915  0.1070 -0.7908  0.3538
 9513TIP3   OH250029   2.862   2.202  13.121 -0.4160 -0.1510  0.2504
 9513TIP3    H150030   2.956   2.197  13.139 -0.2194  0.2949 -0.6071
 9513TIP3    H250031   2.852   2.168  13.032 -1.2888 -1.7121  0.9059
 9514TIP3   OH250032   2.233   4.631  12.906 -0.1573 -0.2362 -0.0378
 9514TIP3    H150033   2.216   4.725  12.908 -1.3185 -0.3320 -2.3104
 9514TIP3    H250034   2.190   4.596  12.984 -0.7062  0.9768  0.2156
 9515TIP3   OH250035   6.360   4.816   3.671  0.0765 -0.0813 -0.3438
 9515TIP3    H150036   6.293   4.765   3.716  0.3465 -0.7053 -0.6401
 9515TIP3    H250037   6.342   4.907   3.696  1.4829 -0.4993  2.7794
 9516TIP3   OH250038   4.651   0.602   6.204  0.0120  0.1281 -0.0401
 9516TIP3    H150039   4.636   0.616   6.298 -0.6166  2.1194 -0.3911
 9516TIP3    H250040   4.746   0.594   6.196  0.0845  0.0738  0.7608
 9517TIP3   OH250041   1.307   1.611   0.072 -0.1142  0.1673 -0.2151
 9517TIP3    H150042   1.257   1.659   0.138  0.1208 -1.1474  0.9653
 9517TIP3    H250043   1.293   1.519   0.094  1.3191 -0.2638 -0.9992
 9518TIP3   OH250044   3.640   2.637   5.291  0.2127  0.0380 -0.3436
 9518TIP3    H150045   3.581   2.682   5.230  0.1176 -0.6709 -0.7803
 9518TIP3    H250046   3.655   2.552   5.251 -3.2932 -2.2883  2.5993
 9519TIP3   OH250047   4.037   3.059  13.225  0.3558 -0.8482 -0.0899
 9519TIP3    H150048   4.063   3.036  13.315 -0.1758 -0.5655  0.1380
 9519TIP3    H250049   3.955   3.012  13.211  1.1410 -2.0287 -0.9441
 9520TIP3   OH250050   5.294   5.464   6.009  0.1257  0.2013 -0.2137
 9520TIP3    H150051   5.251   5.381   6.027  0.2359 -0.1275 -1.3405
 9520TIP3    H250052   5.383   5.453   6.041  0.5360 -0.6322 -1.5684
 9521TIP3   OH250053   3.026   0.055  15.201 -0.6948 -0.4400 -0.5270
 9521TIP3    H150054   2.975  -0.026  15.200 -0.1764 -0.9602  2.6300
 9521TIP3    H250055   2.978   0.113  15.261  0.3264  0.5564 -0.6309
 9522TIP3   OH250056   1.856   1.621  16.605 -0.4823  0.0880  0.5263
 9522TIP3    H150057   1.770   1.578  16.601  0.0625 -0.9745 -0.1853
 9522TIP3    H250058   1.917   1.551  16.624  0.3673  0.6564 -0.0382
 9523TIP3   OH250059   0.104   3.550  11.556 -0.3312  0.0910  0.1190
 9523TIP3    H150060   0.183   3.524  11.509  0.0681 -0.1323  0.8974
 9523TIP3    H250061   0.123   3.639  11.586 -0.0094 -0.2879  1.0706
 9524TIP3   OH250062   1.580   4.071  16.011  0.5457 -0.0328  0.0279
 9524TIP3    H150063   1.494   4.059  16.050  0.9791 -1.2078  0.6893
 9524TIP3    H250064   1.616   4.149  16.053 -0.0200  0.2117  0.0596
 9525TIP3   OH250065   3.687   1.084  11.655 -0.1279  0.5288  0.3191
 9525TIP3    H150066   3.660   0.992  11.662 -1.3474  0.9055  0.7522
 9525TIP3    H250067   3.746   1.086  11.580  0.0697 -0.6430  0.4243
 9526TIP3   OH250068   2.528   5.172  13.092  0.3103 -0.4401  0.1375
 9526TIP3    H150069   2.517   5.267  13.081  1.1958 -0.5278 -2.1191
 9526TIP3    H250070   2.623   5.160  13.097  0.2039 -1.2082  0.3775
 9527TIP3   OH250071   2.412   5.778  10.926  0.0594  0.3018  0.2007
 9527TIP3    H150072   2.396   5.837  10.852  0.1875 -1.7692 -1.5869
 9527TIP3    H250073   2.328   5.735  10.941  0.5929 -0.9689 -0.3229
 9528TIP3   OH250074   2.491   4.600  12.886 -0.0063 -0.4797 -0.0422
 9528TIP3    H150075   2.403   4.619  12.918  0.1162  2.3691 -1.0438
 9528TIP3    H250076   2.549   4.640  12.951  0.3097  2.5410 -1.9869
 9529TIP3   OH250077   2.490   1.908   0.844  0.3308 -0.2453 -0.1907
 9529TIP3    H150078   2.448   1.867   0.768  0.2551 -1.2068  0.3492
 9529TIP3    H250079   2.541   1.980   0.808 -0.0960 -0.3889 -1.0987
 9530TIP3   OH250080   1.808   4.838  15.739  0.4854  0.3540 -0.1072
 9530TIP3    H150081   1.796   4.865  15.830 -1.0901  0.5159 -0.3367
 9530TIP3    H250082   1.753   4.760  15.729  2.4334 -1.0726 -0.3292
 9531TIP3   OH250083   1.741   4.825  11.584  0.2838  0.3654 -0.0712
 9531TIP3    H150084   1.703   4.872  11.509  1.7545  1.7104 -0.0148
 9531TIP3    H250085   1.769   4.741  11.547 -0.8421  0.1706 -0.5471
 9532TIP3   OH250086   4.706   3.939   1.872 -0.8433 -0.0540 -0.4751
 9532TIP3    H150087   4.733   3.897   1.791  0.9133 -0.2436  0.1664
 9532TIP3    H250088   4.699   3.866   1.935  0.8228  0.3805  0.2804
 9533TIP3   OH250089   2.422   3.418   3.721 -0.4586  0.5502 -0.1517
 9533TIP3    H150090   2.488   3.473   3.762  0.1702 -0.5708  0.3837
 9533TIP3    H250091   2.463   3.332   3.716 -1.8418 -0.1444  0.0983
 9534TIP3   OH250092   0.275   1.876  16.707 -0.0759  0.0330 -0.1058
 9534TIP3    H150093   0.223   1.798  16.725 -0.4060  0.2632 -0.0701
 9534TIP3    H250094   0.363   1.854  16.739 -0.1445 -0.3579 -0.1825
 9535TIP3   OH250095   2.089   0.333   2.164  0.3301 -0.2153  0.5626
 9535TIP3    H150096   2.133   0.380   2.235 -0.2927  0.6315  0.4037
 9535TIP3    H250097   2.156   0.323   2.096  0.7535 -0.4787  1.0101
 9536TIP3   OH250098   0.332   1.241  11.067  0.4594 -0.9180  0.4963
 9536TIP3    H150099   0.320   1.253  10.973 -2.9000 -1.4158  0.7326
 9536TIP3    H250100   0.379   1.158  11.075  0.7556 -0.8793 -0.7129
 9537TIP3   OH250101   5.704   2.444  13.109 -0.4653  0.6441 -0.4033
 9537TIP3    H150102   5.786   2.482  13.141 -1.1260  0.6482  1.3996
 9537TIP3    H250103   5.667   2.512  13.053 -0.3873  1.6784  0.7403
 9538TIP3   OH250104   0.990   3.322  12.564  0.4239 -0.2755  0.3808
 9538TIP3    H150105   0.959   3.232  12.581 -0.9120  0.1463  0.3169
 9538TIP3    H250106   0.922   3.361  12.510  1.5762  0.4197 -0.6170
 9539TIP3   OH250107   3.278   6.177   2.385 -0.1871 -0.2047 -0.6777
 9539TIP3    H150108   3.233   6.166   2.301  0.2000  1.1197 -1.0859
 9539TIP3    H250109   3.208   6.176   2.450 -0.4954 -1.2194 -1.0165
 9540TIP3   OH250110   3.091   5.677   1.552 -0.0983 -0.0342  0.4521
 9540TIP3    H150111   3.126   5.642   1.470 -0.7353  0.1324  0.1046
 9540TIP3    H250112   3.155   5.650   1.618  0.3818 -0.2365 -0.0838
 9541TIP3   OH250113   2.591   4.419  16.678  0.1869 -0.0112 -0.1200
 9541TIP3    H150114   2.651   4.448  16.747  0.9869 -1.3629 -0.2000
 9541TIP3    H250115   2.645   4.421  16.598  0.4566 -2.1365 -0.0409
 9542TIP3   OH250116   0.175   0.135   2.284  0.1173 -0.1848 -0.2976
 9542TIP3    H150117   0.105   0.130   2.219 -1.6759 -1.1732  1.5801
 9542TIP3    H250118   0.235   0.064   2.261  0.0324  0.0710 -1.3778
 9543TIP3   OH250119   2.987   6.433   2.779  0.1400 -0.5462 -0.0668
 9543TIP3    H150120   2.920   6.455   2.844  2.1448  0.2405  1.8543
 9543TIP3    H250121   2.986   6.507   2.718 -1.2293 -0.9198 -0.5463
 9544TIP3   OH250122   6.828   4.975   4.731  0.0434  0.6088 -0.8643
 9544TIP3    H150123   6.778   4.981   4.813 -1.3375  0.4603 -1.6724
 9544TIP3    H250124   6.763   4.950   4.665  1.5457 -1.6712 -1.5806
 9545TIP3   OH250125   4.808   2.610   5.452 -0.8269 -0.2361  0.2080
 9545TIP3    H150126   4.747   2.671   5.493 -1.1765 -1.2846  1.3124
 9545TIP3    H250127   4.819   2.540   5.517  0.3951 -0.8079 -0.5804
 9546TIP3   OH250128   1.822   6.429  14.780  0.6615 -0.0851  0.1990
 9546TIP3    H150129   1.748   6.376  14.809  0.6489 -0.3457 -0.3041
 9546TIP3    H250130   1.872   6.446  14.860  0.1483 -0.0470  0.5128
 9547TIP3   OH250131   3.803   2.507  16.025 -0.2444 -0.6204  0.0509
 9547TIP3    H150132   3.826   2.432  16.080  0.5902  0.0424  0.6367
 9547TIP3    H250133   3.708   2.517  16.037 -0.6316 -2.4002 -1.1183
 9548TIP3   OH250134   4.662   2.283  16.294  0.3862 -0.2073  0.1727
 9548TIP3    H150135   4.582   2.251  16.334 -0.8413  1.5080 -0.7389
 9548TIP3    H250136   4.703   2.206  16.255  0.6019 -1.5763  2.8704
 9549TIP3   OH250137   4.180   2.755  12.081  0.5014  0.3222 -0.2471
 9549TIP3    H150138   4.258   2.737  12.028  0.7469  0.1036  0.1831
 9549TIP3    H250139   4.188   2.848  12.103  1.5680 -0.0757  1.2448
 9550TIP3   OH250140   6.092   6.488   5.816  0.0001  0.2133  0.4100
 9550TIP3    H150141   6.138   6.570   5.799  2.8177 -1.4525 -0.7267
 9550TIP3    H250142   6.135   6.450   5.892 -1.2104 -0.2787  0.8813
 9551TIP3   OH250143   3.873   2.875  16.769  0.3707 -0.0825  0.0992
 9551TIP3    H150144   3.858   2.817  16.844  0.3701 -0.4613 -0.1899
 9551TIP3    H250145   3.875   2.816  16.693 -1.0959  0.4606 -0.3817
 9552TIP3   OH250146   4.948   2.405   4.149 -0.0349  0.3041 -0.0321
 9552TIP3    H150147   4.890   2.477   4.123 -0.9558 -0.3987  0.0294
 9552TIP3    H250148   4.895   2.326   4.139  1.0067 -0.3939 -0.2315
 9553TIP3   OH250149   2.841   4.355   3.836  0.5889 -0.0034 -0.5082
 9553TIP3    H150150   2.785   4.366   3.759  0.9932  1.1558 -0.6527
 9553TIP3    H250151   2.792   4.294   3.892  0.7292 -1.6500 -2.0710
 9554TIP3   OH250152   1.304   3.414  12.945 -0.0264  0.2039  0.0720
 9554TIP3    H150153   1.276   3.375  12.862 -0.2772  0.1795  0.1684
 9554TIP3    H250154   1.252   3.494  12.953 -0.8841 -0.4106  0.7891
 9555TIP3   OH250155   5.633   1.616   1.467 -0.1422 -0.1969 -0.3255
 9555TIP3    H150156   5.538   1.617   1.476 -0.3082  0.3426 -1.8756
 9555TIP3    H250157   5.649   1.621   1.373  1.4115 -1.7688 -0.2121
 9556TIP3   OH250158   1.371   1.003  16.833  0.3339 -0.2232  0.1078
 9556TIP3    H150159   1.349   1.034  16.745  0.3303 -0.6860 -0.0568
 9556TIP3    H250160   1.415   1.077  16.875 -1.7005  0.8263  0.5228
 9557TIP3   OH250161   0.853   1.639  12.589  0.1271  0.1521  0.1119
 9557TIP3    H150162   0.799   1.619  12.665  1.0477 -0.8902  0.5212
 9557TIP3    H250163   0.813   1.588  12.518  1.5277 -2.0365  0.8004
 9558TIP3   OH250164   3.875   3.631  10.317 -0.4670  0.1992 -0.0696
 9558TIP3    H150165   3.880   3.624  10.221 -0.3893 -1.3316  0.0264
 9558TIP3    H250166   3.783   3.653  10.334 -0.5109  0.3580 -0.4814
 9559TIP3   OH250167   6.814   1.843  12.869  0.1261  0.2339  0.1415
 9559TIP3    H150168   6.833   1.937  12.871 -0.4482  0.3746  2.3186
 9559TIP3    H250169   6.879   1.804  12.927  0.2254 -0.7077 -0.5782
 9560TIP3   OH250170   3.185   1.275   3.471  0.0880  0.2173  0.0594
 9560TIP3    H150171   3.268   1.268   3.425  0.5416  0.2200  0.8526
 9560TIP3    H250172   3.208   1.310   3.557 -1.0112  2.5679 -0.5162
 9561TIP3   OH250173   3.452   4.732   5.031  0.0060 -0.5386  0.2898
 9561TIP3    H150174   3.498   4.709   5.112 -0.8197 -1.0353  0.6318
 9561TIP3    H250175   3.372   4.680   5.034 -0.1160 -0.4268 -0.7692
 9562TIP3   OH250176   5.248   6.265   3.136 -0.7253 -0.8043  0.2716
 9562TIP3    H150177   5.324   6.244   3.190  0.3681 -0.0829 -0.9293
 9562TIP3    H250178   5.244   6.360   3.136 -2.3662 -0.8234  1.2529
 9563TIP3   OH250179   1.507   0.621   2.526 -0.2522 -0.1487  0.0788
 9563TIP3    H150180   1.547   0.675   2.459 -1.3289  1.8266  0.9427
 9563TIP3    H250181   1.507   0.532   2.489  1.5725  0.4077 -1.3813
 9564TIP3   OH250182   2.908   5.657   3.116 -0.3313 -0.3634  0.0046
 9564TIP3    H150183   2.826   5.608   3.107  0.1409 -1.1542 -0.0534
 9564TIP3    H250184   2.926   5.690   3.028  0.0709 -1.2752 -0.2674
 9565TIP3   OH250185   0.675   0.482   3.650 -0.2209 -0.4516  0.7280
 9565TIP3    H150186   0.754   0.478   3.704 -0.8607  0.0921  1.7492
 9565TIP3    H250187   0.636   0.395   3.658 -0.4905 -0.2720  1.4366
 9566TIP3   OH250188   5.123   5.205  15.212  0.2077 -0.1717 -0.0476
 9566TIP3    H150189   5.218   5.202  15.201  0.2363  0.0864  0.1329
 9566TIP3    H250190   5.107   5.158  15.295  0.1392 -0.5988 -0.2995
 9567TIP3   OH250191   3.161   1.564  15.946 -0.0827  0.4108  0.0660
 9567TIP3    H150192   3.086   1.505  15.946  0.2536 -0.0271 -0.6231
 9567TIP3    H250193   3.237   1.507  15.936  0.2388  0.9561 -0.7096
 9568TIP3   OH250194   6.393   2.473  15.475 -0.2735 -0.0555  0.0974
 9568TIP3    H150195   6.366   2.553  15.520 -2.5927 -0.9733  0.4725
 9568TIP3    H250196   6.484   2.459  15.502 -0.4471  1.4128  1.5372
 9569TIP3   OH250197   2.436   0.553  14.048  0.1259 -0.0181  0.6130
 9569TIP3    H150198   2.491   0.477  14.026 -1.6952 -1.1611 -0.2598
 9569TIP3    H250199   2.454   0.616  13.978 -0.5022 -0.8692 -0.3513
 9570TIP3   OH250200   2.179   2.033   4.784 -0.1252  1.0832 -0.6038
 9570TIP3    H150201   2.217   1.945   4.783 -1.3534  0.5324 -0.9236
 9570TIP3    H250202   2.254   2.092   4.795  0.5490 -0.0796  1.5923
 9571TIP3   OH250203   5.592   5.187   1.941  0.3762 -0.0214 -0.0140
 9571TIP3    H150204   5.650   5.199   2.017  0.5842  0.5744 -0.2620
 9571TIP3    H250205   5.510   5.155   1.979  0.6849 -0.3445  0.3974
 9572TIP3   OH250206   6.509   2.328  11.992  0.0189 -0.0197  0.7394
 9572TIP3    H150207   6.486   2.422  11.992  1.1516  0.3203 -1.3926
 9572TIP3    H250208   6.450   2.290  11.928 -0.0509 -0.6750  1.1893
 9573TIP3   OH250209   4.240   0.157  13.631  0.3416 -0.0007 -0.5497
 9573TIP3    H150210   4.149   0.164  13.602  0.6360 -0.2902 -1.5851
 9573TIP3    H250211   4.275   0.083  13.582  1.0607 -0.0838  0.0633
 9574TIP3   OH250212   0.001   5.716  11.699  0.6151  0.3285 -0.4065
 9574TIP3    H150213  -0.026   5.786  11.758  1.0823 -0.0801  0.3078
 9574TIP3    H250214   0.035   5.762  11.622 -2.5716  0.8753 -1.6273
 9575TIP3   OH250215   0.445   3.959   0.770  0.2148 -0.1895 -0.3813
 9575TIP3    H150216   0.422   3.873   0.735 -1.8192  0.1951 -0.0827
 9575TIP3    H250217   0.416   3.957   0.861 -1.1371  1.2612 -0.7455
 9576TIP3   OH250218   4.663   3.604  14.045  0.2535 -0.0167 -0.1781
 9576TIP3    H150219   4.635   3.681  13.995  2.1765 -0.2092 -1.6957
 9576TIP3    H250220   4.606   3.533  14.015 -1.5666  0.7435  1.2643
 9577TIP3   OH250221   5.287   6.265  14.058  0.2573 -0.0974  0.2384
 9577TIP3    H150222   5.294   6.306  14.144 -0.9631  0.6371  0.0179
 9577TIP3    H250223   5.372   6.223  14.043  1.5125  2.2122  0.5507
 9578TIP3   OH250224   3.125   2.447  14.997  0.7209 -0.2792  0.4811
 9578TIP3    H150225   3.166   2.361  14.992  1.3031 -0.1221  2.0610
 9578TIP3    H250226   3.198   2.508  15.008  0.1730  0.1041  2.2997
 9579TIP3   OH250227   0.955   6.421   4.710  0.0332 -0.6779 -0.5801
 9579TIP3    H150228   0.860   6.429   4.709  0.1296  1.1048 -1.9961
 9579TIP3    H250229   0.985   6.488   4.648  2.2057 -1.2643 -0.2492
 9580TIP3   OH250230   4.146   5.346  14.092 -0.8509  0.0626 -0.2082
 9580TIP3    H150231   4.158   5.290  14.169 -1.3738  0.1082 -0.0851
 9580TIP3    H250232   4.051   5.345  14.077 -0.8001  0.4312 -0.5695
 9581TIP3   OH250233   1.963   3.232  16.958  0.0627 -0.6225 -0.1563
 9581TIP3    H150234   1.999   3.153  16.999  0.2424 -1.4140 -1.7743
 9581TIP3    H250235   1.917   3.201  16.881 -0.2245  0.8294 -0.6054
 9582TIP3   OH250236   6.718   3.399  13.253 -0.0158  0.3534  0.0406
 9582TIP3    H150237   6.675   3.484  13.249  0.4201  0.5307 -1.0096
 9582TIP3    H250238   6.793   3.412  13.311  1.0972  1.1700 -1.5375
 9583TIP3   OH250239   1.847   0.874  16.352  0.0517 -0.1717  0.3416
 9583TIP3    H150240   1.891   0.881  16.437 -2.0401  1.3644  1.3913
 9583TIP3    H250241   1.777   0.810  16.367 -0.1228 -0.1443 -0.3248
 9584TIP3   OH250242   5.126   5.351  12.778  0.6128 -0.7197  0.0935
 9584TIP3    H150243   5.185   5.385  12.845 -1.5546 -0.2367  1.8795
 9584TIP3    H250244   5.086   5.429  12.739 -0.9249 -1.0472  0.9349
 9585TIP3   OH250245   2.850   3.397   5.161  1.6380  0.1920 -0.7953
 9585TIP3    H150246   2.885   3.421   5.075  0.7410 -0.1665 -1.2745
 9585TIP3    H250247   2.818   3.308   5.150  1.2306  0.2578 -0.1748
 9586TIP3   OH250248   5.732   5.507  16.615 -0.0501  0.7112 -0.9549
 9586TIP3    H150249   5.781   5.465  16.545 -0.6108  0.0797 -0.9730
 9586TIP3    H250250   5.794   5.570  16.653  0.7594 -0.0319 -1.0128
 9587TIP3   OH250251   0.595   2.178  11.151 -0.1387 -0.3110 -0.1178
 9587TIP3    H150252   0.532   2.112  11.180  1.6592 -1.3140  1.7553
 9587TIP3    H250253   0.681   2.137  11.162  1.0221  2.0546  0.4024
 9588TIP3   OH250254   3.969   6.805  15.992 -0.2605 -0.5784 -0.4834
 9588TIP3    H150255   4.003   6.833  16.078 -1.2754 -1.8491  0.3667
 9588TIP3    H250256   3.922   6.882  15.960  0.7673  0.1700 -0.2750
 9589TIP3   OH250257   1.324   2.615   3.200 -0.3129 -0.1606 -0.1814
 9589TIP3    H150258   1.369   2.594   3.119  0.7796  0.3784  0.2600
 9589TIP3    H250259   1.393   2.617   3.266 -1.0186  0.4540  0.5630
 9590TIP3   OH250260   5.698   4.673  15.580 -0.4736 -0.3219 -0.0799
 9590TIP3    H150261   5.765   4.727  15.622 -0.1713  0.4660 -1.5158
 9590TIP3    H250262   5.675   4.607  15.646  1.9699 -0.8401  0.3296
 9591TIP3   OH250263   2.656   3.524  11.992  0.5627 -0.4417 -0.1529
 9591TIP3    H150264   2.689   3.465  12.061 -1.6949 -2.0666 -0.3556
 9591TIP3    H250265   2.656   3.470  11.913 -1.6047 -0.2489 -0.3437
 9592TIP3   OH250266   5.145   1.804  16.398 -0.2339 -0.3433 -0.0008
 9592TIP3    H150267   5.107   1.798  16.310  1.4437  0.5899 -0.8447
 9592TIP3    H250268   5.158   1.898  16.412  2.9038 -0.6060 -0.3611
 9593TIP3   OH250269   5.205   3.473   0.619  0.1267 -0.3834  0.0871
 9593TIP3    H150270   5.129   3.514   0.578 -0.2977  0.3775  1.5633
 9593TIP3    H250271   5.189   3.482   0.713  1.5351 -1.1710  0.4270
 9594TIP3   OH250272   1.900   1.179   2.237 -0.2758 -0.3340  0.5073
 9594TIP3    H150273   1.985   1.146   2.268  0.8000  1.6312 -0.1946
 9594TIP3    H250274   1.874   1.117   2.168  0.6545 -0.9001  0.6522
 9595TIP3   OH250275   1.011   6.578   2.393 -0.0050 -0.2813 -0.4143
 9595TIP3    H150276   1.097   6.610   2.420  0.2668  1.8272 -3.2885
 9595TIP3    H250277   0.950   6.615   2.458  0.9422  1.1735 -0.3056
 9596TIP3   OH250278   0.866   1.772  12.974  0.2165  0.4320 -0.1084
 9596TIP3    H150279   0.891   1.851  12.926  1.9421 -0.5971 -0.9854
 9596TIP3    H250280   0.797   1.732  12.921  0.4347  0.5450 -0.4770
 9597TIP3   OH250281   5.006   5.096   4.370 -0.0386  0.4378 -0.0162
 9597TIP3    H150282   5.067   5.062   4.305 -0.8594 -0.6533 -0.2457
 9597TIP3    H250283   4.970   5.018   4.413  0.3741  1.1235  1.6608
 9598TIP3   OH250284   3.267   2.497   4.573  0.3289 -0.3833  0.0318
 9598TIP3    H150285   3.225   2.512   4.658 -0.3934  1.1167 -0.5420
 9598TIP3    H250286   3.274   2.402   4.566 -3.2699 -0.7990  0.0616
 9599TIP3   OH250287   2.779   0.374   0.891  0.0665  0.0059 -0.5694
 9599TIP3    H150288   2.836   0.349   0.818  0.3104 -0.6175 -0.1750
 9599TIP3    H250289   2.709   0.425   0.850  0.2088 -0.3211 -1.2422
 9600TIP3   OH250290   5.808   4.834   6.161 -0.2994 -0.3315 -0.3723
 9600TIP3    H150291   5.756   4.758   6.187 -0.2385 -0.5316 -0.8271
 9600TIP3    H250292   5.817   4.826   6.066 -0.5201  0.3927 -0.4610
 9601TIP3   OH250293   0.218   6.447  12.222 -0.3987 -0.1572 -0.2272
 9601TIP3    H150294   0.286   6.414  12.279 -0.0938 -1.9461 -1.5238
 9601TIP3    H250295   0.137   6.409  12.256 -0.6769  1.2875  0.8107
 9602TIP3   OH250296   2.091   2.141   3.928  0.1914 -0.2211 -0.1639
 9602TIP3    H150297   2.125   2.223   3.891  0.4612  0.3097  1.1866
 9602TIP3    H250298   2.168   2.099   3.967  0.4067 -2.0276 -2.3625
 9603TIP3   OH250299   1.291   2.676   5.667 -0.4602  0.3613 -0.1846
 9603TIP3    H150300   1.330   2.744   5.612 -0.1687  1.1538  0.9679
 9603TIP3    H250301   1.224   2.636   5.611  0.6425  0.3056 -1.5235
 9604TIP3   OH250302   0.864   1.542   5.294 -0.3126  0.4037  0.1010
 9604TIP3    H150303   0.809   1.464   5.287  1.9382 -1.1909 -0.9641
 9604TIP3    H250304   0.806   1.613   5.266 -1.4812 -1.3698 -2.5160
 9605TIP3   OH250305   2.354   6.085   1.787 -0.0558  0.2485 -0.3761
 9605TIP3    H150306   2.395   6.128   1.713  0.1199  1.2247  0.2806
 9605TIP3    H250307   2.409   6.009   1.805 -0.5187 -0.4357 -1.7051
 9606TIP3   OH250308   0.706   2.746  11.866  0.3682  0.5662  0.4495
 9606TIP3    H150309   0.695   2.797  11.786  2.1188  2.6359  1.4139
 9606TIP3    H250310   0.619   2.744  11.906 -0.2082  0.7932 -0.7518
 9607TIP3   OH250311   6.664   4.704  11.769  0.5388 -0.4673  0.2705
 9607TIP3    H150312   6.754   4.735  11.762  0.5231 -0.4394  0.1911
 9607TIP3    H250313   6.640   4.679  11.680  0.0208  0.7636  0.0441
 9608TIP3   OH250314   1.590   5.320  14.259  0.0379  0.1378  0.0897
 9608TIP3    H150315   1.516   5.273  14.220 -1.4189  0.7965  1.8947
 9608TIP3    H250316   1.559   5.410  14.271  0.3557 -0.0001  2.6421
 9609TIP3   OH250317   0.223   3.936   0.283 -0.4799  0.2417  0.0357
 9609TIP3    H150318   0.206   3.966   0.194 -1.6409 -2.2430 -0.6861
 9609TIP3    H250319   0.208   4.013   0.338  0.5768  1.9143 -1.8910
 9610TIP3   OH250320   0.467   5.770   3.523  0.0675  0.4892  0.0690
 9610TIP3    H150321   0.494   5.742   3.435 -1.9815  1.6280 -1.0064
 9610TIP3    H250322   0.479   5.865   3.522  0.2653  0.4826  1.1313
 9611TIP3   OH250323   1.495   1.843   5.514  0.4475 -1.0845  0.7951
 9611TIP3    H150324   1.520   1.889   5.435  1.1431 -0.1528  1.5310
 9611TIP3    H250325   1.414   1.886   5.543 -0.8745 -2.6553 -0.3919
 9612TIP3   OH250326   0.021   2.890   2.490 -0.4116 -0.0371  0.0974
 9612TIP3    H150327   0.009   2.853   2.403 -3.3387  0.9882 -0.0279
 9612TIP3    H250328   0.095   2.951   2.480  0.4123 -1.1885 -1.1810
 9613TIP3   OH250329   3.853   4.459  13.174  0.1422 -0.2667  0.0619
 9613TIP3    H150330   3.831   4.446  13.267  0.4301 -1.1714  0.0109
 9613TIP3    H250331   3.945   4.488  13.175  0.4635 -1.2594  0.0117
 9614TIP3   OH250332   1.138   0.311  12.459 -0.4340 -0.2926  0.0463
 9614TIP3    H150333   1.198   0.365  12.510  0.5811 -0.2664 -1.1103
 9614TIP3    H250334   1.060   0.302  12.514 -0.2119  1.4423  0.7211
 9615TIP3   OH250335   6.287   2.453   2.801 -0.0243 -0.4578 -0.1588
 9615TIP3    H150336   6.327   2.536   2.776  0.2403 -0.6650 -0.4336
 9615TIP3    H250337   6.221   2.436   2.733 -0.0396 -0.5019 -0.1335
 9616TIP3   OH250338   0.579   6.280  16.087  0.3312  0.7235 -1.0672
 9616TIP3    H150339   0.661   6.328  16.101 -0.0660  0.9397  0.8061
 9616TIP3    H250340   0.552   6.306  15.999  1.8650  1.2548 -1.4300
 9617TIP3   OH250341   4.256   2.286  16.604  0.5325  0.0576  0.3080
 9617TIP3    H150342   4.167   2.290  16.638  0.4856 -0.3015  0.2264
 9617TIP3    H250343   4.311   2.316  16.677  0.3862 -0.1729  0.5152
 9618TIP3   OH250344   0.930   4.341   2.647 -0.5093  0.0072  0.1078
 9618TIP3    H150345   0.917   4.279   2.576  1.0743 -0.1821 -0.0423
 9618TIP3    H250346   1.022   4.331   2.672 -0.3858  1.8342  0.5085
 9619TIP3   OH250347   3.091   2.429  12.683  0.4841  0.4328  0.7529
 9619TIP3    H150348   3.087   2.354  12.742 -0.2873 -1.1470 -1.2030
 9619TIP3    H250349   3.009   2.476  12.699 -0.2777 -0.6534  0.1277
 9620TIP3   OH250350   0.816   5.933   1.659 -0.2885 -0.7525 -0.2705
 9620TIP3    H150351   0.723   5.929   1.681  0.0573  1.8055  2.2859
 9620TIP3    H250352   0.828   6.019   1.619  1.1899 -0.4183  0.8107
 9621TIP3   OH250353   1.360   4.118  13.306  0.5633  0.5557  0.2799
 9621TIP3    H150354   1.423   4.148  13.241 -0.2906  3.6844  0.7288
 9621TIP3    H250355   1.276   4.120  13.261  0.3973 -0.8696  0.4778
 9622TIP3   OH250356   3.643   2.328   0.132  0.1237 -0.5544  0.2087
 9622TIP3    H150357   3.722   2.364   0.091  1.4095 -0.9107  2.2422
 9622TIP3    H250358   3.640   2.237   0.103  0.5577 -0.5856  0.2586
 9623TIP3   OH250359   0.160   6.604   2.890  0.6525  0.8858 -0.1815
 9623TIP3    H150360   0.172   6.692   2.925  2.0643  0.7131 -0.1572
 9623TIP3    H250361   0.240   6.557   2.915  0.5585  0.0154 -1.4013
 9624TIP3   OH250362   5.164   2.605  12.482  0.0845 -0.8367  0.4514
 9624TIP3    H150363   5.247   2.557  12.477  0.7498  0.3171  0.0733
 9624TIP3    H250364   5.098   2.542  12.453  0.8773 -1.6306  0.3144
 9625TIP3   OH250365   0.629   5.119  15.855  0.6303  0.3998  0.4502
 9625TIP3    H150366   0.612   5.161  15.771  1.4751  1.8345  0.9507
 9625TIP3    H250367   0.574   5.168  15.917 -0.4946 -1.0717  0.6614
 9626TIP3   OH250368   3.106   5.847  15.333 -0.3381 -0.2551 -0.4381
 9626TIP3    H150369   3.114   5.835  15.239 -0.4001 -2.3415 -0.2185
 9626TIP3    H250370   3.193   5.828  15.367 -0.4306  0.0334 -0.0369
 9627TIP3   OH250371   3.202   6.503   1.485 -0.1661 -0.6989  0.0993
 9627TIP3    H150372   3.134   6.439   1.468 -1.4526  0.7541 -0.3882
 9627TIP3    H250373   3.167   6.558   1.555  0.0085  0.7446 -0.8981
 9628TIP3   OH250374   1.292   0.107   2.327  0.0200 -0.1362 -0.2059
 9628TIP3    H150375   1.360   0.149   2.275  0.1124 -0.8653 -0.6995
 9628TIP3    H250376   1.209   0.135   2.287  0.0355  0.5163  0.2118
 9629TIP3   OH250377   3.632   5.471   3.033  0.0383  0.1115 -0.3285
 9629TIP3    H150378   3.566   5.424   2.981 -0.3260 -0.6014  0.7472
 9629TIP3    H250379   3.602   5.562   3.031 -0.5602 -0.0765 -0.4844
 9630TIP3   OH250380   3.055   4.639  11.617  0.2626 -0.1258 -0.1278
 9630TIP3    H150381   3.028   4.635  11.525  1.0339 -1.8449 -0.3251
 9630TIP3    H250382   3.151   4.637  11.613  0.2913 -1.1063  0.7244
 9631TIP3   OH250383   3.061   2.807   5.317 -0.1667 -0.2346 -0.0954
 9631TIP3    H150384   3.085   2.722   5.356 -0.1596 -0.2881 -0.2177
 9631TIP3    H250385   3.051   2.865   5.393 -0.3946 -0.4017  0.0028
 9632TIP3   OH250386   0.652   5.204  10.311  0.1606  0.0877 -0.2729
 9632TIP3    H150387   0.729   5.234  10.263  1.0437 -1.4165  0.1414
 9632TIP3    H250388   0.687   5.143  10.375 -1.1971  0.7018  1.1092
 9633TIP3   OH250389   4.625   4.093  12.257 -0.2349 -0.0460 -0.1246
 9633TIP3    H150390   4.545   4.057  12.220 -0.1800 -0.7544  0.4211
 9633TIP3    H250391   4.602   4.183  12.281 -0.2621  0.4480 -1.8514
 9634TIP3   OH250392   6.131   6.460  11.364 -0.2556  0.3662 -0.2677
 9634TIP3    H150393   6.216   6.503  11.371 -0.6036  1.0014  0.1950
 9634TIP3    H250394   6.068   6.526  11.393 -0.7087 -0.8864  1.8319
 9635TIP3   OH250395   3.347   1.888  11.819  0.6421  0.3786  0.6140
 9635TIP3    H150396   3.394   1.827  11.762 -1.6260 -0.3458 -0.5999
 9635TIP3    H250397   3.350   1.847  11.906 -0.8520 -1.5489 -0.1748
 9636TIP3   OH250398   6.851   5.841  11.418  0.0597  0.1069  0.1846
 9636TIP3    H150399   6.764   5.837  11.457  0.1328  0.4480  0.3887
 9636TIP3    H250400   6.887   5.925  11.448 -0.2907  0.8887 -1.4793
 9637TIP3   OH250401   1.748   5.728   4.598 -0.5612 -0.3881 -0.0124
 9637TIP3    H150402   1.777   5.790   4.665 -0.1934 -1.1392  0.5415
 9637TIP3    H250403   1.679   5.773   4.551 -0.6454  0.2497  0.7101
 9638TIP3   OH250404   4.194   4.573   3.811 -0.3030  0.0329  0.0677
 9638TIP3    H150405   4.132   4.604   3.877 -1.5979 -0.5173 -0.8572
 9638TIP3    H250406   4.152   4.593   3.727  0.9533  0.0041 -0.5873
 9639TIP3   OH250407   0.279   6.482   5.069  0.2569  0.2755 -0.2906
 9639TIP3    H150408   0.304   6.561   5.117 -0.0632 -0.3999  1.0605
 9639TIP3    H250409   0.239   6.426   5.136  1.2626 -1.3831 -1.0289
 9640TIP3   OH250410   3.398   6.395  15.313 -0.0830  0.5653 -0.0640
 9640TIP3    H150411   3.487   6.423  15.334 -0.1651  0.5512  0.3113
 9640TIP3    H250412   3.402   6.367  15.222  0.5545 -0.5283  0.2821
 9641TIP3   OH250413   2.599   1.677  12.356 -0.4122  0.3531  0.0395
 9641TIP3    H150414   2.519   1.627  12.337 -2.2445  2.1265  2.5324
 9641TIP3    H250415   2.603   1.743  12.287 -2.6687  1.8832  1.2406
 9642TIP3   OH250416   6.139   3.709  15.099  0.8373  0.0525  0.0257
 9642TIP3    H150417   6.096   3.634  15.058  1.7276 -0.6116  0.2698
 9642TIP3    H250418   6.228   3.708  15.064  1.2343  0.2273  0.9933
 9643TIP3   OH250419   6.843   3.153   4.101  0.0604  0.5143  0.5436
 9643TIP3    H150420   6.776   3.085   4.100  0.5653 -0.0119  1.2677
 9643TIP3    H250421   6.796   3.234   4.080 -1.1226  0.4101  2.5570
 9644TIP3   OH250422   2.688   2.312   3.409 -0.2684  0.2811  0.2231
 9644TIP3    H150423   2.631   2.274   3.342 -0.1210  0.6873 -0.1400
 9644TIP3    H250424   2.628   2.355   3.470 -0.4704 -0.9983  0.9457
 9645TIP3   OH250425   1.905   0.223  11.564  0.0798 -0.4076  0.1660
 9645TIP3    H150426   1.838   0.155  11.569 -1.1194  0.8001  2.3365
 9645TIP3    H250427   1.988   0.175  11.564 -0.7437 -1.8910  0.4537
 9646TIP3   OH250428   3.954   4.696   5.761  0.4530  0.2271 -0.0121
 9646TIP3    H150429   3.966   4.759   5.832 -0.0581  1.3158 -0.8602
 9646TIP3    H250430   3.942   4.750   5.683 -0.8875 -0.9024 -0.6318
 9647TIP3   OH250431   2.026   2.574   5.931  0.3117  0.2827  0.1758
 9647TIP3    H150432   2.039   2.498   5.875  1.3009  0.4905  0.1087
 9647TIP3    H250433   2.024   2.648   5.870 -0.2461  0.3612  0.2795
 9648TIP3   OH250434   3.607   0.016  16.043 -0.3515 -0.3495 -0.4381
 9648TIP3    H150435   3.645   0.038  15.959  0.3001 -1.0758 -0.3331
 9648TIP3    H250436   3.598  -0.079  16.043  1.2263 -0.5519  0.9481
 9649TIP3   OH250437   2.392   6.847  17.014  0.6428  0.3417 -0.1793
 9649TIP3    H150438   2.305   6.822  17.044 -0.1382  2.6895 -0.3145
 9649TIP3    H250439   2.429   6.766  16.979  0.0335 -1.6343  3.2851
 9650TIP3   OH250440   0.268   1.026  14.991 -0.2613 -0.3987 -0.0306
 9650TIP3    H150441   0.348   1.018  14.939 -0.4525 -1.3026 -0.2001
 9650TIP3    H250442   0.294   1.079  15.067 -0.0021  1.0177 -1.0819
 9651TIP3   OH250443   2.705   4.363   0.968 -0.0293 -0.2912  0.7148
 9651TIP3    H150444   2.715   4.451   1.005  0.5697  0.0666 -0.2562
 9651TIP3    H250445   2.719   4.304   1.043 -2.8671  0.4241  1.9244
 9652TIP3   OH250446   1.062   1.107   4.380 -0.0361 -0.1772  0.1171
 9652TIP3    H150447   1.028   1.186   4.337  0.2479 -0.0893  0.0467
 9652TIP3    H250448   1.157   1.121   4.383  0.0711 -0.7355 -0.3519
 9653TIP3   OH250449   5.611   0.586   2.420  0.3565  0.2602 -0.0055
 9653TIP3    H150450   5.616   0.575   2.515  0.9587 -1.4054 -0.1971
 9653TIP3    H250451   5.566   0.507   2.389 -0.5368  1.1526 -1.0420
 9654TIP3   OH250452   1.197   3.049  12.712  1.2987  0.1431 -0.0394
 9654TIP3    H150453   1.106   3.035  12.738  1.0226  2.4826  0.4173
 9654TIP3    H250454   1.239   3.086  12.789  2.1536  0.8754 -0.8273
 9655TIP3   OH250455   5.315   6.177   0.775  0.2539 -0.0998  0.5930
 9655TIP3    H150456   5.332   6.221   0.859 -0.9161  0.5435  0.5208
 9655TIP3    H250457   5.387   6.204   0.719  0.5777  0.1813  1.1348
 9656TIP3   OH250458   3.135   0.816  14.307 -0.0015 -0.3923 -0.2054
 9656TIP3    H150459   3.069   0.837  14.241  0.3685 -1.5657 -0.9823
 9656TIP3    H250460   3.131   0.721  14.316  1.0692 -0.4120  0.2604
 9657TIP3   OH250461   0.124   4.429   0.975 -0.3638 -0.0228  0.0031
 9657TIP3    H150462   0.037   4.445   1.012 -1.5086  0.0364 -2.4861
 9657TIP3    H250463   0.127   4.334   0.962  0.3778 -0.1487  0.9863
 9658TIP3   OH250464   3.026   3.837  13.873  0.3410  0.3206 -0.5985
 9658TIP3    H150465   3.099   3.899  13.871 -0.3554  1.1688 -0.3662
 9658TIP3    H250466   2.992   3.838  13.783  0.8248 -0.3382 -0.7928
 9659TIP3   OH250467   1.619   4.016   3.224 -0.3988 -0.1769  0.0454
 9659TIP3    H150468   1.633   4.096   3.174 -1.2225 -1.0113 -1.6123
 9659TIP3    H250469   1.694   3.961   3.203  0.2203  0.1859  1.2646
 9660TIP3   OH250470   3.950   2.231  16.451 -0.1140  0.1270  0.0510
 9660TIP3    H150471   4.012   2.159  16.445  1.3270  1.4014 -0.7965
 9660TIP3    H250472   3.956   2.259  16.543  0.1703 -0.0808  0.0984
 9661TIP3   OH250473   4.271   4.264  15.216  0.1191  0.1988  0.0071
 9661TIP3    H150474   4.195   4.321  15.226 -0.0711 -0.0690  0.0984
 9661TIP3    H250475   4.272   4.242  15.122 -1.4330 -1.8590  0.4030
 9662TIP3   OH250476   3.753   2.208  14.331  0.5147 -0.2618 -0.0635
 9662TIP3    H150477   3.658   2.195  14.336  0.4703 -0.1020 -0.4723
 9662TIP3    H250478   3.788   2.157  14.404  0.1747 -0.9232 -0.3532
 9663TIP3   OH250479   2.522   3.466   4.153 -0.6968  0.3653  0.3661
 9663TIP3    H150480   2.547   3.503   4.068 -2.6795 -0.3856 -0.6164
 9663TIP3    H250481   2.543   3.373   4.145 -1.6774  0.1380  0.3564
 9664TIP3   OH250482   5.304   2.381   5.480  0.0881  0.0897 -0.3717
 9664TIP3    H150483   5.305   2.472   5.511 -2.8545  0.4886 -1.1083
 9664TIP3    H250484   5.280   2.329   5.557  0.9279  0.0248 -0.1467
 9665TIP3   OH250485   6.403   5.612  14.958  0.3666  0.1084 -0.5326
 9665TIP3    H150486   6.372   5.693  14.998  1.1439 -0.4465  1.3037
 9665TIP3    H250487   6.475   5.640  14.901  0.3605  0.7530 -0.2361
 9666TIP3   OH250488   6.142   4.868  15.091 -0.3027  0.0320 -0.1597
 9666TIP3    H150489   6.231   4.835  15.080  0.0560  0.6386  0.7514
 9666TIP3    H250490   6.153   4.954  15.131 -1.2584  0.6937 -1.2523
 9667TIP3   OH250491   0.184   4.443   5.434  0.2640 -0.3526  0.5433
 9667TIP3    H150492   0.278   4.462   5.429  0.3260  0.2128  2.7712
 9667TIP3    H250493   0.145   4.496   5.365  1.2957  1.9082  1.5954
 9668TIP3   OH250494   3.630   3.338   5.806  0.6857 -0.4284  0.5900
 9668TIP3    H150495   3.672   3.423   5.818  1.8040 -0.9651  0.6509
 9668TIP3    H250496   3.592   3.341   5.718  0.4153  0.2499  0.7269
 9669TIP3   OH250497   1.720   5.548   2.710  0.5312 -0.1351  0.3195
 9669TIP3    H150498   1.764   5.622   2.752  0.2566 -0.2860  0.8738
 9669TIP3    H250499   1.628   5.556   2.735  0.2882  0.0104 -0.5986
 9670TIP3   OH250500   4.087   5.706   4.777  0.5123 -0.2733  0.3851
 9670TIP3    H150501   4.017   5.644   4.798 -1.0408  1.3646  0.3176
 9670TIP3    H250502   4.053   5.791   4.804  0.9342  1.1323 -2.9523
 9671TIP3   OH250503   0.114   0.031   2.693 -0.2448  0.4805  0.5400
 9671TIP3    H150504   0.209   0.039   2.695 -0.1615 -0.1743 -0.3019
 9671TIP3    H250505   0.092  -0.008   2.778  0.1987  0.9160  0.8641
 9672TIP3   OH250506   0.164   0.681  14.480 -0.7499 -0.2441 -0.5846
 9672TIP3    H150507   0.083   0.726  14.458 -1.4384 -0.3558  1.5726
 9672TIP3    H250508   0.151   0.648  14.569  2.2448  1.2022  0.5184
 9673TIP3   OH250509   5.655   0.105  12.261  0.3614  0.2416 -0.4705
 9673TIP3    H150510   5.575   0.056  12.245  0.0444  1.4133 -2.8065
 9673TIP3    H250511   5.646   0.137  12.351 -1.3039 -0.5056 -0.3400
 9674TIP3   OH250512   4.587   2.772   2.426 -0.3055  0.3072 -0.2343
 9674TIP3    H150513   4.568   2.780   2.332  1.7975  0.6538 -0.6850
 9674TIP3    H250514   4.637   2.690   2.433 -0.7301  0.1100  0.6484
 9675TIP3   OH250515   2.189   5.416   4.887 -0.0790 -0.0352 -0.3226
 9675TIP3    H150516   2.146   5.502   4.883 -0.7748 -0.3027  0.8838
 9675TIP3    H250517   2.145   5.364   4.820 -0.3573  0.2405 -0.3563
 9676TIP3   OH250518   0.384   5.985  14.951 -0.0396 -0.2728  0.1155
 9676TIP3    H150519   0.394   6.009  14.859  0.8241 -0.4538  0.1572
 9676TIP3    H250520   0.292   5.957  14.959 -0.7592  1.7799 -0.2144
 9677TIP3   OH250521   1.512   0.765  16.904 -0.5579 -0.6669 -0.4935
 9677TIP3    H150522   1.435   0.815  16.878 -0.3475 -0.0009  0.1494
 9677TIP3    H250523   1.581   0.830  16.914 -0.3279 -1.0587  0.5264
 9678TIP3   OH250524   1.514   1.320   0.148  0.1452 -0.2015  0.1004
 9678TIP3    H150525   1.531   1.381   0.076  0.4488 -0.4034  0.0005
 9678TIP3    H250526   1.422   1.335   0.171  0.5271  1.1651  0.8917
 9679TIP3   OH250527   2.947   2.858  13.221  0.7653  0.7931 -0.0160
 9679TIP3    H150528   2.932   2.829  13.131  0.3648 -1.7043  0.7831
 9679TIP3    H250529   2.978   2.780  13.267  0.7286  1.9371  2.0835
 9680TIP3   OH250530   0.299   5.204  14.356  0.5295 -0.2227  0.7402
 9680TIP3    H150531   0.362   5.135  14.377  0.5428 -0.3010  0.4456
 9680TIP3    H250532   0.278   5.190  14.264  0.1730 -0.1209  0.8035
 9681TIP3   OH250533   4.378   6.851   2.399  0.3691 -0.4742 -0.0203
 9681TIP3    H150534   4.347   6.885   2.483 -0.3363 -1.5081  0.1489
 9681TIP3    H250535   4.328   6.899   2.334 -0.6874 -1.2342  0.2167
 9682TIP3   OH250536   2.171   1.288  10.893 -0.3350  0.0372  0.2278
 9682TIP3    H150537   2.202   1.324  10.809 -0.2500 -1.0414 -0.2166
 9682TIP3    H250538   2.242   1.307  10.954  0.6386 -1.1961 -0.4733
 9683TIP3   OH250539   3.591   2.866  12.407 -0.0996  1.0745 -0.1324
 9683TIP3    H150540   3.599   2.961  12.416 -0.7232  1.0557  0.7575
 9683TIP3    H250541   3.560   2.853  12.317  1.2672  1.6189 -0.7140
 9684TIP3   OH250542   3.958   5.770   4.101  0.3659  0.2045  0.2178
 9684TIP3    H150543   3.958   5.749   4.194 -0.9428  0.7547  0.3633
 9684TIP3    H250544   3.971   5.685   4.058 -0.0554 -0.2136  0.8856
 9685TIP3   OH250545   4.521   2.687  15.445  0.0643  0.3448 -0.0729
 9685TIP3    H150546   4.468   2.609  15.463 -0.7888  1.0271  0.4677
 9685TIP3    H250547   4.533   2.687  15.350  3.0675 -2.3220  0.1499
 9686TIP3   OH250548   6.603   3.562   4.629 -0.4270  0.1139  0.0203
 9686TIP3    H150549   6.612   3.635   4.689  0.8727  0.5554 -0.6745
 9686TIP3    H250550   6.546   3.594   4.559 -0.4669  0.2096  0.0976
 9687TIP3   OH250551   5.413   1.479   0.101 -0.2380  0.4534 -0.1921
 9687TIP3    H150552   5.385   1.507   0.188  0.3673  1.2901 -0.2653
 9687TIP3    H250553   5.372   1.393   0.090 -0.3826  0.3734  0.8814
 9688TIP3   OH250554   6.316   4.410   2.819 -0.4070  0.1928 -0.9218
 9688TIP3    H150555   6.340   4.369   2.735  0.9269 -0.6265 -0.1837
 9688TIP3    H250556   6.400   4.430   2.860 -0.9515 -1.3979  1.1398
 9689TIP3   OH250557   0.684   2.232  16.198 -0.0766  0.1331 -0.2321
 9689TIP3    H150558   0.703   2.159  16.256  0.6545  0.5969  0.1213
 9689TIP3    H250559   0.641   2.297  16.253 -1.2306 -0.2402 -0.6660
 9690TIP3   OH250560   1.621   3.849  12.621 -0.0664 -0.3348  0.5037
 9690TIP3    H150561   1.580   3.819  12.702  1.5647 -2.3455  0.6926
 9690TIP3    H250562   1.577   3.931  12.600 -0.2475  0.5241  3.6574
 9691TIP3   OH250563   1.887   5.509  11.687  0.2459 -0.1392 -0.0224
 9691TIP3    H150564   1.839   5.498  11.769  0.3449 -3.0786 -0.2326
 9691TIP3    H250565   1.820   5.505  11.619  0.4143 -0.5384 -0.1693
 9692TIP3   OH250566   1.227   4.335  10.898  0.7603 -0.4743 -0.0142
 9692TIP3    H150567   1.196   4.404  10.840  1.3232  0.0843  0.3357
 9692TIP3    H250568   1.297   4.291  10.849 -0.0690 -1.2819 -0.5220
 9693TIP3   OH250569   4.766   5.969   0.329 -0.1528 -0.5513 -0.2864
 9693TIP3    H150570   4.829   5.902   0.357 -0.7178 -1.8992 -2.0334
 9693TIP3    H250571   4.819   6.035   0.285  0.4910  0.5665  2.0301
 9694TIP3   OH250572   2.530   2.462  16.787  0.3391 -0.0356  0.4445
 9694TIP3    H150573   2.563   2.431  16.702 -1.0961  0.8180 -0.4607
 9694TIP3    H250574   2.588   2.534  16.810  1.8633 -1.4097  1.1225
 9695TIP3   OH250575   0.082   4.657   1.558  0.3796 -0.2653  0.0017
 9695TIP3    H150576   0.052   4.723   1.621  0.7207  0.2163 -0.3268
 9695TIP3    H250577   0.002   4.629   1.513  0.3982  1.2149 -1.0662
 9696TIP3   OH250578   6.124   6.199   3.689  0.8479  0.1437 -0.4238
 9696TIP3    H150579   6.159   6.208   3.777  0.1146  0.4163 -0.1484
 9696TIP3    H250580   6.098   6.107   3.682 -1.5874  0.6604  0.6473
 9697TIP3   OH250581   1.896   0.767   3.923  0.1994 -0.0729  0.5151
 9697TIP3    H150582   1.896   0.677   3.956 -0.2020  0.6798  2.7058
 9697TIP3    H250583   1.987   0.785   3.901  0.5612 -0.4969  1.6161
 9698TIP3   OH250584   3.794   2.623   2.256  0.2240 -0.9020  0.0384
 9698TIP3    H150585   3.741   2.625   2.335 -1.4645 -2.2980 -1.0010
 9698TIP3    H250586   3.836   2.710   2.253 -0.4236 -0.4850  1.9218
 9699TIP3   OH250587   6.740   6.476  15.103 -0.4920  0.5267  0.0621
 9699TIP3    H150588   6.788   6.496  15.184  1.7246 -0.0871 -1.0144
 9699TIP3    H250589   6.780   6.534  15.038  0.1911 -1.3665 -1.2935
 9700TIP3   OH250590   5.327   1.489   3.375  0.5290  0.3138  0.5810
 9700TIP3    H150591   5.337   1.490   3.279 -0.1382  1.2184  0.5020
 9700TIP3    H250592   5.241   1.450   3.389  0.1526  1.1754  0.7430
 9701TIP3   OH250593   2.971   1.474   1.335 -0.3445 -0.0498 -1.3139
 9701TIP3    H150594   3.031   1.521   1.277  0.6755  0.5886  0.2239
 9701TIP3    H250595   2.968   1.526   1.415 -0.4142 -1.7584 -0.1557
 9702TIP3   OH250596   4.828   2.114  12.505  0.8116  0.6039 -0.7532
 9702TIP3    H150597   4.807   2.022  12.488  1.1611  0.0128  1.6975
 9702TIP3    H250598   4.873   2.143  12.426  0.1331 -1.1304 -1.8305
 9703TIP3   OH250599   0.053   4.578  14.277  0.1191 -0.1277 -0.7561
 9703TIP3    H150600   0.007   4.657  14.248  1.4286  0.4206 -1.4899
 9703TIP3    H250601   0.099   4.548  14.198 -1.6525 -2.6280 -0.9465
 9704TIP3   OH250602   3.488   6.558  13.141 -0.3000 -0.8681  0.0281
 9704TIP3    H150603   3.408   6.597  13.105 -0.4935 -0.4911  0.8334
 9704TIP3    H250604   3.465   6.467  13.159 -0.2911 -0.9794 -0.5095
 9705TIP3   OH250605   2.072   1.235  11.471  0.0454  0.4277 -0.2411
 9705TIP3    H150606   2.058   1.298  11.543 -1.9368 -0.2312  0.0214
 9705TIP3    H250607   2.068   1.149  11.513  1.9444  0.0683 -0.7198
 9706TIP3   OH250608   1.674   4.719  14.501 -0.4717  0.5363 -0.2609
 9706TIP3    H150609   1.633   4.733  14.587  0.7269 -0.5755  0.5214
 9706TIP3    H250610   1.749   4.778  14.501 -0.7770  0.9386 -0.7943
 9707TIP3   OH250611   2.516   4.133   2.495 -0.0134  0.3155  0.4119
 9707TIP3    H150612   2.487   4.045   2.519  0.3262  0.0154 -0.2472
 9707TIP3    H250613   2.490   4.188   2.569  0.8700 -0.5501  1.3943
 9708TIP3   OH250614   0.445   2.159  12.869  0.2354 -0.2671  0.4263
 9708TIP3    H150615   0.351   2.161  12.888  0.0002 -0.6547 -0.6505
 9708TIP3    H250616   0.480   2.237  12.913 -0.3143 -0.9596  2.1596
 9709TIP3   OH250617   0.740   2.140   0.534 -0.1964 -0.2780  0.1869
 9709TIP3    H150618   0.708   2.215   0.485 -1.9382 -0.4627  0.9617
 9709TIP3    H250619   0.823   2.117   0.492  0.5902  2.2874  0.1710
 9710TIP3   OH250620   4.998   1.353  13.729 -0.0581  0.0564  0.1863
 9710TIP3    H150621   4.953   1.438  13.733  0.4480  0.3092  0.7771
 9710TIP3    H250622   4.979   1.313  13.814 -1.8852 -1.2783 -0.7676
 9711TIP3   OH250623   5.674   0.388  16.134  0.2524  0.0264 -1.1447
 9711TIP3    H150624   5.628   0.469  16.155 -1.9137 -0.8301 -2.1514
 9711TIP3    H250625   5.611   0.339  16.080  0.9841 -2.8384  0.4160
 9712TIP3   OH250626   4.312   0.186   1.188 -0.6020 -0.8222  0.9170
 9712TIP3    H150627   4.316   0.281   1.175 -0.1052 -0.8131  1.1132
 9712TIP3    H250628   4.299   0.151   1.100 -0.0018 -0.6133  0.7403
 9713TIP3   OH250629   4.818   0.983  12.280  0.0877  0.2087  0.2375
 9713TIP3    H150630   4.855   0.910  12.230 -0.5585 -1.0632  1.5345
 9713TIP3    H250631   4.894   1.026  12.319  0.4958  0.3971 -0.7240
 9714TIP3   OH250632   5.718   1.961  11.670 -0.2916  0.3266  0.0272
 9714TIP3    H150633   5.643   1.921  11.714 -0.9226 -0.5213 -1.7409
 9714TIP3    H250634   5.788   1.957  11.735 -1.1970 -0.8215  0.9807
 9715TIP3   OH250635   1.478   2.472  11.213  0.3784  0.5544  0.5221
 9715TIP3    H150636   1.534   2.508  11.144 -1.0584  1.4514 -0.2334
 9715TIP3    H250637   1.403   2.532  11.217 -1.1818 -1.2874  0.5639
 9716TIP3   OH250638   2.962   5.486  11.848 -0.2451  0.2308 -0.1634
 9716TIP3    H150639   2.954   5.396  11.816 -0.5780  0.0192  0.5021
 9716TIP3    H250640   3.056   5.506  11.841 -0.1138 -0.3045  0.0463
 9717TIP3   OH250641   4.975   3.461   5.347 -0.2792  0.4786  0.1236
 9717TIP3    H150642   4.987   3.554   5.331 -0.3499  0.4121 -0.3220
 9717TIP3    H250643   4.992   3.450   5.441 -1.1742  1.0942  0.3748
 9718TIP3   OH250644   4.675   5.258  11.696 -0.9995 -0.1692  0.1822
 9718TIP3    H150645   4.640   5.347  11.703 -0.9406 -0.0524 -0.9140
 9718TIP3    H250646   4.724   5.257  11.614  0.3492 -0.7580  0.9589
 9719TIP3   OH250647   0.893   0.682  14.689 -0.2094  0.2935  0.1678
 9719TIP3    H150648   0.877   0.620  14.760 -0.9527 -2.4116 -2.1602
 9719TIP3    H250649   0.926   0.761  14.733 -1.0511 -1.0236  3.4893
 9720TIP3   OH250650   5.819   0.380   3.960  0.5686  0.0615 -0.1933
 9720TIP3    H150651   5.820   0.371   3.864 -0.7812  0.5930 -0.2738
 9720TIP3    H250652   5.839   0.473   3.975 -0.1091  0.1814 -0.0048
 9721TIP3   OH250653   5.626   4.878  12.156 -0.6213 -0.2524  0.8789
 9721TIP3    H150654   5.587   4.883  12.068 -3.1106 -0.3380  1.8733
 9721TIP3    H250655   5.687   4.951  12.160 -1.4186  0.5330 -0.4972
 9722TIP3   OH250656   5.765   3.912   0.141 -0.8347 -0.2017  0.0479
 9722TIP3    H150657   5.685   3.894   0.092 -1.4788 -0.4106  1.1337
 9722TIP3    H250658   5.750   3.999   0.180 -0.0637  0.2525 -0.6417
 9723TIP3   OH250659   2.013   5.857   2.667  0.3596  0.3447  0.4490
 9723TIP3    H150660   2.070   5.903   2.729  1.0534 -0.1679  0.2050
 9723TIP3    H250661   1.935   5.836   2.718  0.7581  0.2702  1.0456
 9724TIP3   OH250662   2.516   2.017  15.805 -0.5427 -0.1830  0.1946
 9724TIP3    H150663   2.570   1.939  15.789  0.1290  0.3320 -0.0628
 9724TIP3    H250664   2.561   2.062  15.877  0.4580  1.2296 -1.2440
 9725TIP3   OH250665   1.629   0.117  11.531 -0.0593  0.0205  0.1538
 9725TIP3    H150666   1.655   0.176  11.460 -0.0309  0.0969  0.2274
 9725TIP3    H250667   1.616   0.174  11.607 -0.7746  0.0252  0.0340
 9726TIP3   OH250668   0.735   6.458   1.216 -0.0881  0.2762 -0.1017
 9726TIP3    H150669   0.777   6.390   1.164  2.9268  1.3076  0.7930
 9726TIP3    H250670   0.698   6.411   1.292 -1.6702 -0.7869 -1.4472
 9727TIP3   OH250671   4.614   0.892  17.008 -0.3419 -0.1896  0.6800
 9727TIP3    H150672   4.555   0.834  16.960 -1.0024  1.3854 -0.5097
 9727TIP3    H250673   4.559   0.964  17.036  0.6511  0.3706  1.2387
 9728TIP3   OH250674   1.440   0.854   0.625 -1.0469 -0.0015  0.3540
 9728TIP3    H150675   1.443   0.820   0.715  0.5930 -0.6764  0.0851
 9728TIP3    H250676   1.473   0.782   0.572 -1.5533  0.5587 -0.7367
 9729TIP3   OH250677   3.603   0.041  11.745  0.4229 -0.2023  0.1232
 9729TIP3    H150678   3.589   0.041  11.840 -0.7895 -1.4364 -0.0459
 9729TIP3    H250679   3.699   0.036  11.736  0.5547 -0.1221  1.2704
 9730TIP3   OH250680   2.957   4.641  15.732  0.0797  0.5608 -0.5893
 9730TIP3    H150681   2.907   4.684  15.662  1.7795  1.3380 -1.3769
 9730TIP3    H250682   3.021   4.587  15.686 -0.0951 -0.5363  0.4021
 9731TIP3   OH250683   4.931   2.647  16.120  0.0377 -0.5933 -0.1365
 9731TIP3    H150684   4.894   2.583  16.060 -3.2791  1.4184 -0.4852
 9731TIP3    H250685   4.962   2.595  16.194 -0.5158 -2.7414 -1.3242
 9732TIP3   OH250686   5.488   4.933   5.397 -0.1156  0.2740  0.6763
 9732TIP3    H150687   5.572   4.978   5.394  0.4660 -0.6866  1.7982
 9732TIP3    H250688   5.503   4.850   5.352 -0.2587 -0.1895  1.4532
 9733TIP3   OH250689   6.848   3.753  17.015 -0.9407  0.0135  0.1227
 9733TIP3    H150690   6.823   3.826  17.071 -0.5814  0.5178 -0.3689
 9733TIP3    H250691   6.889   3.690  17.075  0.9691  1.2600  0.2117
 9734TIP3   OH250692   4.724   1.240  12.641 -0.3943 -0.0693 -0.3848
 9734TIP3    H150693   4.678   1.156  12.640 -1.1291  0.2917  0.6633
 9734TIP3    H250694   4.785   1.235  12.568  0.2094 -1.8724  0.1933
 9735TIP3   OH250695   0.677   0.764  13.059 -0.6242 -0.2430 -0.4582
 9735TIP3    H150696   0.757   0.720  13.088 -1.0222  0.1246  1.3183
 9735TIP3    H250697   0.612   0.695  13.050 -0.8296 -0.2246  0.7974
 9736TIP3   OH250698   1.886   4.735   4.934  0.0662 -0.2197 -0.0172
 9736TIP3    H150699   1.964   4.767   4.979  0.7413  1.7540 -2.3837
 9736TIP3    H250700   1.815   4.791   4.966  0.2679  0.1679 -0.2295
 9737TIP3   OH250701   1.024   6.184   4.571  0.0774  0.7017  0.2583
 9737TIP3    H150702   0.965   6.180   4.496  0.5801 -0.7661 -0.0858
 9737TIP3    H250703   0.999   6.265   4.617 -4.1302 -1.1884  1.7682
 9738TIP3   OH250704   1.913   3.834  12.642  0.4529  0.2776  0.2840
 9738TIP3    H150705   1.818   3.828  12.650  0.3026 -1.6386 -1.9709
 9738TIP3    H250706   1.947   3.767  12.701  0.2464 -0.6273 -0.5886
 9739TIP3   OH250707   1.123   6.281   3.776 -0.3091  0.2489  0.3544
 9739TIP3    H150708   1.183   6.251   3.708 -1.9370 -0.6678 -0.7561
 9739TIP3    H250709   1.117   6.375   3.763  1.1848  0.4244  0.7713
 9740TIP3   OH250710   4.741   5.880  13.565 -0.3669  0.0644 -0.3313
 9740TIP3    H150711   4.836   5.879  13.575 -0.4486  0.4942  0.6296
 9740TIP3    H250712   4.727   5.915  13.477  0.3605  2.2582  0.3309
 9741TIP3   OH250713   3.482   3.238  16.019  0.2205  0.0197 -0.5915
 9741TIP3    H150714   3.575   3.255  16.034  0.4345 -0.9241 -0.8080
 9741TIP3    H250715   3.480   3.169  15.954 -0.6472  0.2386 -0.8122
 9742TIP3   OH250716   2.845   4.338   4.341 -0.3851  0.0632  0.0992
 9742TIP3    H150717   2.934   4.359   4.313 -0.4442 -1.9349 -1.8046
 9742TIP3    H250718   2.791   4.357   4.264 -1.3998 -0.2163  0.7314
 9743TIP3   OH250719   5.978   3.469   2.475 -0.0877 -0.1821 -0.5375
 9743TIP3    H150720   5.899   3.415   2.484  0.5324 -1.0200  0.0550
 9743TIP3    H250721   5.951   3.557   2.500 -0.7676 -0.5198 -0.0753
 9744TIP3   OH250722   4.866   5.658  15.131  0.3873  0.1678 -0.4989
 9744TIP3    H150723   4.886   5.565  15.139  0.1578  0.1819  0.2916
 9744TIP3    H250724   4.938   5.694  15.080  0.0821 -0.5800 -1.4907
 9745TIP3   OH250725   3.132   2.200  13.120  0.2572 -0.6885  0.0575
 9745TIP3    H150726   3.201   2.265  13.124  0.8850 -1.2170 -1.5413
 9745TIP3    H250727   3.174   2.119  13.150  0.3588 -1.0260 -0.9827
 9746TIP3   OH250728   6.613   3.049  11.003 -0.4821 -0.0260 -0.7785
 9746TIP3    H150729   6.580   2.960  11.008  0.3564 -0.5115 -2.9456
 9746TIP3    H250730   6.602   3.074  10.912  0.6816  1.5480 -0.5289
 9747TIP3   OH250731   6.796   2.857   1.886  0.4997  0.2740  0.2111
 9747TIP3    H150732   6.890   2.868   1.871  0.6394 -0.5527  0.4191
 9747TIP3    H250733   6.757   2.941   1.861  1.2716  0.5568 -0.0547
 9748TIP3   OH250734   2.638   0.623   5.390  0.6303 -0.2876  0.2824
 9748TIP3    H150735   2.648   0.609   5.484 -0.9221 -0.5556  0.4290
 9748TIP3    H250736   2.562   0.681   5.383  0.0453 -1.1675 -0.8530
 9749TIP3   OH250737   5.254   5.392   5.099  0.2521 -0.0384 -0.3000
 9749TIP3    H150738   5.172   5.426   5.063 -0.6580 -1.8682 -0.1273
 9749TIP3    H250739   5.301   5.357   5.023 -0.0834 -0.8139 -0.1587
 9750TIP3   OH250740   2.595   5.426   0.254  0.3452 -0.6715 -0.0662
 9750TIP3    H150741   2.544   5.497   0.216 -0.1132 -0.8659  0.1795
 9750TIP3    H250742   2.686   5.448   0.234  0.1106 -0.8657 -1.4455
 9751TIP3   OH250743   3.451   5.529  12.636 -0.1575 -0.1138 -0.0821
 9751TIP3    H150744   3.390   5.546  12.565 -0.0777 -0.6887 -0.2932
 9751TIP3    H250745   3.398   5.490  12.705 -0.1252 -0.1012 -0.0492
 9752TIP3   OH250746   0.605   6.041   1.108 -0.9243  0.4427  0.1191
 9752TIP3    H150747   0.588   6.013   1.198  0.0504  1.3275  0.6148
 9752TIP3    H250748   0.611   5.960   1.058 -0.8298 -0.1012  0.9836
 9753TIP3   OH250749   2.984   4.391   6.649  0.0577  0.6474  0.3067
 9753TIP3    H150750   2.980   4.434   6.563 -0.2807  1.1592  0.5718
 9753TIP3    H250751   2.898   4.406   6.688 -0.1108 -0.4042  0.3549
 9754TIP3   OH250752   0.506   3.333   2.198 -0.7044 -0.3525  0.0669
 9754TIP3    H150753   0.541   3.248   2.224 -0.0728  0.0455  0.5525
 9754TIP3    H250754   0.478   3.373   2.280 -1.5390 -0.3256 -0.2271
 9755TIP3   OH250755   5.180   3.958  14.771 -0.6963  0.0895  0.2094
 9755TIP3    H150756   5.157   3.868  14.796 -1.0648 -0.0164 -0.5042
 9755TIP3    H250757   5.170   3.960  14.676  0.5298  0.5480  0.0739
 9756TIP3   OH250758   3.443   3.185   2.949  0.4239 -0.2142 -0.2141
 9756TIP3    H150759   3.488   3.101   2.937  0.5347 -0.3446  0.9550
 9756TIP3    H250760   3.365   3.163   3.000  0.7426  0.4551  0.5896
 9757TIP3   OH250761   0.692   1.771   0.189 -0.0306 -0.3312  0.1107
 9757TIP3    H150762   0.750   1.804   0.121  0.3243  2.2208  1.5274
 9757TIP3    H250763   0.733   1.798   0.271 -1.7545 -1.0043  1.2570
 9758TIP3   OH250764   6.074   1.617  15.300 -0.3291  0.3630 -0.1162
 9758TIP3    H150765   6.153   1.564  15.309 -0.3456  0.0913 -1.4551
 9758TIP3    H250766   6.048   1.635  15.391  0.1204 -1.2405  0.3717
 9759TIP3   OH250767   6.616   1.534   5.999 -0.1821  0.2815  0.2476
 9759TIP3    H150768   6.664   1.613   5.976  0.8247  0.0430  1.4480
 9759TIP3    H250769   6.528   1.566   6.022 -0.3781  0.8115 -1.1498
 9760TIP3   OH250770   1.335   1.935   4.566 -0.7293  0.3045 -0.0103
 9760TIP3    H150771   1.334   1.841   4.549  0.5180  0.2426  0.1860
 9760TIP3    H250772   1.275   1.972   4.501 -1.2659 -0.6224 -0.0590
 9761TIP3   OH250773   1.680   5.374   3.335 -0.4033  0.0927  0.3627
 9761TIP3    H150774   1.710   5.321   3.409 -0.6583 -0.7433 -0.1207
 9761TIP3    H250775   1.683   5.464   3.367 -0.5738 -0.2636  1.4204
 9762TIP3   OH250776   0.566   0.533  16.130 -0.8457  0.2936 -0.1004
 9762TIP3    H150777   0.610   0.618  16.118 -1.0919  0.4641  0.1707
 9762TIP3    H250778   0.487   0.555  16.180 -0.6095 -0.1765  0.4857
 9763TIP3   OH250779   4.840   4.322   5.642 -0.4332  0.2670  0.0351
 9763TIP3    H150780   4.836   4.342   5.735  0.2840 -1.1730  0.3998
 9763TIP3    H250781   4.849   4.227   5.638  1.9766  0.4635 -1.4111
 9764TIP3   OH250782   5.779   0.191  16.286 -0.3084  0.5777  0.3577
 9764TIP3    H150783   5.872   0.207  16.275 -0.2835  1.3423  1.4903
 9764TIP3    H250784   5.737   0.272  16.255 -0.6035  0.2095 -0.2195
 9765TIP3   OH250785   2.908   0.889  14.156  0.0302 -0.1974 -0.4646
 9765TIP3    H150786   2.964   0.930  14.089 -0.6058 -0.7959 -1.3772
 9765TIP3    H250787   2.823   0.880  14.113 -0.3723 -0.6402  0.4190
 9766TIP3   OH250788   5.840   5.232   0.046 -0.0610 -0.4408 -0.2633
 9766TIP3    H150789   5.797   5.290  -0.017 -0.6912 -1.8326 -1.1642
 9766TIP3    H250790   5.794   5.247   0.128 -0.0921  0.4555 -0.4333
 9767TIP3   OH250791   5.391   4.943   1.557 -0.2032  0.0533  0.4092
 9767TIP3    H150792   5.446   5.018   1.580  1.8495 -1.4577  0.6131
 9767TIP3    H250793   5.365   4.906   1.641 -1.6708  0.8020  0.3161
 9768TIP3   OH250794   5.289   5.730   0.468 -0.1876 -0.3576  0.3688
 9768TIP3    H150795   5.227   5.802   0.461 -1.6522 -1.6688 -1.2725
 9768TIP3    H250796   5.357   5.750   0.403 -0.7163 -0.5248 -0.2526
 9769TIP3   OH250797   4.077   5.001   3.394  0.5851 -0.6263  0.3965
 9769TIP3    H150798   4.142   5.057   3.437 -0.3994  0.4529  0.5277
 9769TIP3    H250799   4.027   5.060   3.339 -0.0459 -1.5121 -0.0090
 9770TIP3   OH250800   0.007   4.414   0.424  0.0462  0.1101  0.0950
 9770TIP3    H150801   0.060   4.416   0.504 -0.4152  0.8025  0.3876
 9770TIP3    H250802   0.066   4.378   0.357  0.4976 -0.2751  0.6978
 9771TIP3   OH250803   3.978   1.502   1.887  0.2141 -0.1065 -0.2517
 9771TIP3    H150804   4.046   1.565   1.912 -0.2989  0.6977 -0.8519
 9771TIP3    H250805   3.903   1.524   1.941  0.3938 -0.9664  0.3741
 9772TIP3   OH250806   4.367   1.502  16.325 -0.1248  0.0181  0.3979
 9772TIP3    H150807   4.414   1.473  16.247 -0.3288  0.1374  0.2297
 9772TIP3    H250808   4.321   1.424  16.357  2.1700 -0.7672  2.0283
 9773TIP3   OH250809   2.871   0.913   0.260 -0.2235 -0.4001 -0.3756
 9773TIP3    H150810   2.944   0.924   0.199  0.1616  0.8524  0.2675
 9773TIP3    H250811   2.811   0.984   0.238 -1.3607 -1.5209 -1.0092
 9774TIP3   OH250812   4.432   0.291  11.548 -0.0912 -0.0099  0.2373
 9774TIP3    H150813   4.411   0.344  11.625  0.2387  0.7891 -0.2112
 9774TIP3    H250814   4.356   0.300  11.491  1.5987  3.5587 -1.7546
 9775TIP3   OH250815   0.879   4.355  11.891 -0.5277  0.2067  0.2664
 9775TIP3    H150816   0.878   4.450  11.900  1.2368  0.1631  1.5000
 9775TIP3    H250817   0.971   4.333  11.881 -0.8547 -1.4108  0.5797
 9776TIP3   OH250818   6.389   6.739   3.248 -0.0330  0.8434  0.2283
 9776TIP3    H150819   6.327   6.776   3.311  0.2938 -0.9714  1.6820
 9776TIP3    H250820   6.359   6.650   3.232  0.9813  0.6394 -0.7425
 9777TIP3   OH250821   0.825   2.518  14.199 -0.1035  0.0748  0.5695
 9777TIP3    H150822   0.750   2.470  14.164 -0.3981 -0.3055  1.6877
 9777TIP3    H250823   0.787   2.599  14.234  0.7616  3.1244 -4.5513
 9778TIP3   OH250824   1.453   0.302   2.697  0.5486  0.4592  0.0393
 9778TIP3    H150825   1.527   0.353   2.663  0.8362  0.8349  1.1927
 9778TIP3    H250826   1.487   0.259   2.776  0.1920 -1.2139 -0.6660
 9779TIP3   OH250827   0.363   4.191  15.114 -0.3669 -0.4648  0.5767
 9779TIP3    H150828   0.356   4.206  15.209  1.0372 -0.8950  0.7634
 9779TIP3    H250829   0.342   4.276  15.075 -1.2931 -0.3704  1.2488
 9780TIP3   OH250830   0.207   6.838  13.225 -0.0219  0.1313  0.2687
 9780TIP3    H150831   0.290   6.798  13.196 -0.9989 -0.3875 -2.0685
 9780TIP3    H250832   0.164   6.769  13.276  0.0410 -0.4220 -0.4017
 9781TIP3   OH250833   6.293   2.759   1.604  0.5059 -0.6539  0.0258
 9781TIP3    H150834   6.294   2.785   1.512  2.9729 -2.0760 -0.4386
 9781TIP3    H250835   6.339   2.829   1.650 -0.0179 -0.3309  0.0642
 9782TIP3   OH250836   4.271   1.566  14.739 -0.2495 -0.8593 -0.9082
 9782TIP3    H150837   4.177   1.558  14.724 -0.1451 -2.2370 -0.9729
 9782TIP3    H250838   4.311   1.527  14.661  0.3884 -0.0095 -1.0241
 9783TIP3   OH250839   4.571   6.799   2.000  0.6915 -0.8876  0.2736
 9783TIP3    H150840   4.579   6.769   2.090  0.1973  0.2175  0.6996
 9783TIP3    H250841   4.597   6.891   2.003  0.8950 -0.8989 -0.7554
 9784TIP3   OH250842   3.602   0.742   4.996 -0.1064  0.2192  0.0733
 9784TIP3    H150843   3.549   0.688   4.937 -1.4245  1.0113  0.4905
 9784TIP3    H250844   3.691   0.738   4.959 -0.1547 -2.1220  0.0199
 9785TIP3   OH250845   3.170   1.360  15.369  0.2357 -0.7653 -0.2270
 9785TIP3    H150846   3.183   1.454  15.385 -1.3952 -0.5048 -0.2806
 9785TIP3    H250847   3.259   1.324  15.367  0.8786  0.7026  0.2124
 9786TIP3   OH250848   0.837   5.103   3.316 -0.1516 -0.0734 -0.3815
 9786TIP3    H150849   0.914   5.059   3.352  0.4129  2.7142  2.1592
 9786TIP3    H250850   0.872   5.171   3.259 -0.4592  2.3539  2.1127
 9787TIP3   OH250851   6.031   3.449   3.474  0.0017  0.5294 -0.4586
 9787TIP3    H150852   6.015   3.543   3.483 -2.5369  0.3886 -2.4486
 9787TIP3    H250853   6.080   3.441   3.392  1.3414  0.1427  0.3405
 9788TIP3   OH250854   1.690   6.330   4.778 -0.4098 -0.6619 -0.0962
 9788TIP3    H150855   1.729   6.412   4.747  0.3732 -0.7713  0.5636
 9788TIP3    H250856   1.609   6.320   4.727  1.0418 -1.0808 -2.4374
 9789TIP3   OH250857   4.408   3.097   5.842 -0.2277 -0.1568 -1.1600
 9789TIP3    H150858   4.401   3.161   5.913  0.8694 -0.3255 -0.8910
 9789TIP3    H250859   4.410   3.150   5.762  2.2516  0.2824 -0.8734
 9790TIP3   OH250860   1.447   2.262  11.567 -0.6487  0.4085 -0.2961
 9790TIP3    H150861   1.353   2.265  11.551 -0.9397 -1.9790  0.4976
 9790TIP3    H250862   1.483   2.215  11.492 -0.0325  1.5578 -0.7327
 9791TIP3   OH250863   1.670   2.170   0.032 -0.1519 -0.1857  0.0880
 9791TIP3    H150864   1.658   2.086   0.077 -0.1463 -0.3688 -0.2474
 9791TIP3    H250865   1.725   2.221   0.091  1.2395 -1.0178 -0.4464
 9792TIP3   OH250866   1.806   2.870   4.908 -0.0957  0.1169 -0.1422
 9792TIP3    H150867   1.737   2.878   4.974 -0.3040 -0.7639 -0.2409
 9792TIP3    H250868   1.848   2.957   4.906 -1.0097  0.5768  0.1174
 9793TIP3   OH250869   6.695   6.013  13.589 -0.6082  0.0297 -0.0810
 9793TIP3    H150870   6.740   6.082  13.639 -2.3690  0.1857  1.3947
 9793TIP3    H250871   6.719   6.030  13.498 -0.4237  2.1775  0.3193
 9794TIP3   OH250872   2.463   2.116  11.731  0.4915  0.3312 -0.5335
 9794TIP3    H150873   2.433   2.133  11.641  2.2475  0.1208 -1.2023
 9794TIP3    H250874   2.416   2.180  11.784 -0.8595  0.2135 -1.5411
 9795TIP3   OH250875   6.057   3.646  15.453 -0.3307 -0.1238 -0.3394
 9795TIP3    H150876   6.148   3.638  15.428 -0.5737 -0.8286 -1.0190
 9795TIP3    H250877   6.048   3.591  15.531 -0.1158  0.1918 -0.0866
 9796TIP3   OH250878   1.669   3.006   1.142 -0.1672 -0.0992  0.5588
 9796TIP3    H150879   1.695   2.953   1.218 -0.9399 -0.4625  0.5840
 9796TIP3    H250880   1.588   2.966   1.112  0.9541 -0.9652 -1.4868
 9797TIP3   OH250881   3.165   2.048  15.346  0.2147 -0.4031  0.5177
 9797TIP3    H150882   3.118   1.964  15.348  0.1598 -0.3829  0.0606
 9797TIP3    H250883   3.103   2.111  15.383 -0.7367 -0.0744 -1.4899
 9798TIP3   OH250884   3.804   1.863   5.305 -0.5516  0.1200 -0.5913
 9798TIP3    H150885   3.897   1.863   5.328 -0.5529  0.8918 -0.5702
 9798TIP3    H250886   3.792   1.781   5.257  0.1594  0.0568 -0.6807
 9799TIP3   OH250887   5.821   3.692  12.406 -0.3482  0.2160 -0.5189
 9799TIP3    H150888   5.810   3.620  12.343 -0.8587  0.7044 -1.0078
 9799TIP3    H250889   5.810   3.651  12.492  1.5836 -0.6887 -0.6567
 9800TIP3   OH250890   1.884   1.268  15.496 -0.5024 -0.4515 -0.5080
 9800TIP3    H150891   1.959   1.232  15.543 -0.1308 -0.2880 -0.9670
 9800TIP3    H250892   1.897   1.242  15.405 -1.0044 -0.4235 -0.5923
 9801TIP3   OH250893   0.794   6.187   4.404  0.2823 -0.5129 -0.2761
 9801TIP3    H150894   0.816   6.204   4.313  0.0526 -0.4025 -0.3101
 9801TIP3    H250895   0.751   6.101   4.403  0.5557 -0.6532 -0.2303
 9802TIP3   OH250896   2.899   1.910   0.229 -0.4552 -0.8524  0.4145
 9802TIP3    H150897   2.924   1.996   0.261 -0.2050  0.4478 -2.8360
 9802TIP3    H250898   2.817   1.889   0.274 -1.2918  1.7695  0.2351
 9803TIP3   OH250899   0.062   0.011   5.204 -0.3786 -0.2649  0.4785
 9803TIP3    H150900   0.133   0.057   5.160  0.2489 -2.5698 -1.1392
 9803TIP3    H250901   0.097  -0.011   5.290 -0.0923  0.8008  0.6434
 9804TIP3   OH250902   1.424   5.631  13.649  0.6159  0.1224  0.5367
 9804TIP3    H150903   1.360   5.590  13.590 -0.8827  1.1446  1.3713
 9804TIP3    H250904   1.469   5.557  13.691  0.3721 -0.6189 -0.4786
 9805TIP3   OH250905   5.441   3.669  16.673 -0.6233 -0.6001  0.2219
 9805TIP3    H150906   5.524   3.706  16.644 -0.7796 -1.2845 -1.1967
 9805TIP3    H250907   5.465   3.587  16.717 -0.2910  0.9861  3.2318
 9806TIP3   OH250908   3.461   6.792   6.005  0.3063  0.5020 -0.0355
 9806TIP3    H150909   3.458   6.780   6.100  0.9323  0.4374 -0.0197
 9806TIP3    H250910   3.370   6.803   5.979  0.2512  2.3738  0.8021
 9807TIP3   OH250911   4.097   5.269   0.689 -0.1131  0.0663 -0.0702
 9807TIP3    H150912   4.166   5.320   0.732  0.3138 -0.3617 -0.2366
 9807TIP3    H250913   4.016   5.314   0.712  0.2462  0.7317 -0.1008
 9808TIP3   OH250914   1.229   6.625   3.393  0.3626 -0.3791 -0.1789
 9808TIP3    H150915   1.297   6.583   3.445 -0.6582 -0.4392  1.1422
 9808TIP3    H250916   1.242   6.591   3.304  2.3534 -0.0033 -0.0731
 9809TIP3   OH250917   3.349   4.594  11.581  0.7101 -0.3949 -0.5837
 9809TIP3    H150918   3.405   4.522  11.551  0.1884  0.0043 -2.5890
 9809TIP3    H250919   3.357   4.661  11.514 -2.2525 -0.3700 -1.0565
 9810TIP3   OH250920   3.161   3.894  11.638 -0.1287 -0.1623  0.1115
 9810TIP3    H150921   3.133   3.837  11.710  0.8056  0.6327  1.1412
 9810TIP3    H250922   3.250   3.920  11.661  0.3213 -0.1550 -1.5180
 9811TIP3   OH250923   3.842   6.726   2.748  0.0407  0.0673 -0.2809
 9811TIP3    H150924   3.853   6.691   2.660  0.3350  0.3668 -0.3651
 9811TIP3    H250925   3.930   6.751   2.775  0.0007 -0.3376  0.2317
 9812TIP3   OH250926   3.750   1.594  11.488 -0.0216  0.0460 -0.2214
 9812TIP3    H150927   3.828   1.544  11.511 -0.7709 -0.9650  0.1933
 9812TIP3    H250928   3.784   1.679  11.459  1.1182  0.6965  2.6109
 9813TIP3   OH250929   4.942   1.509   4.658 -0.1453  0.1484 -0.1032
 9813TIP3    H150930   4.934   1.542   4.569 -1.0923  1.1904  0.3462
 9813TIP3    H250931   5.034   1.522   4.680  0.2294 -0.6539 -1.1107
 9814TIP3   OH250932   4.599   5.401   6.184 -0.3057 -0.4745 -0.1668
 9814TIP3    H150933   4.643   5.481   6.212  0.1678 -0.6720 -0.3327
 9814TIP3    H250934   4.646   5.331   6.228  0.5926 -0.8067 -1.5787
 9815TIP3   OH250935   4.012   5.139   2.519 -0.3384 -0.1014  0.0430
 9815TIP3    H150936   3.959   5.115   2.443  0.2014  0.0922 -0.4018
 9815TIP3    H250937   4.013   5.235   2.518  0.0032 -0.1024  0.0551
 9816TIP3   OH250938   3.482   3.318  13.794  0.4711 -0.4203 -0.3435
 9816TIP3    H150939   3.506   3.232  13.759 -0.4367 -3.1874  4.7697
 9816TIP3    H250940   3.561   3.370  13.786  1.3399 -1.9213 -2.8235
 9817TIP3   OH250941   4.373   1.047   3.552 -0.6256 -0.0658 -0.8560
 9817TIP3    H150942   4.422   1.052   3.634  0.1559  1.3807 -1.3694
 9817TIP3    H250943   4.411   0.973   3.506 -1.1058 -0.9234  0.0911
 9818TIP3   OH250944   6.078   1.663  13.614  0.3458  0.0282 -0.0406
 9818TIP3    H150945   6.077   1.662  13.710  0.3925  1.1656 -0.0152
 9818TIP3    H250946   5.993   1.700  13.590 -0.5667 -2.2129 -0.5173
 9819TIP3   OH250947   5.002   1.423  16.404  0.1015  0.1179  0.1968
 9819TIP3    H150948   4.968   1.335  16.423  1.9990 -0.5377  0.7869
 9819TIP3    H250949   5.002   1.428  16.308 -1.2470  0.0200  0.1626
 9820TIP3   OH250950   3.344   0.112  12.193  0.2001  0.0248  0.3194
 9820TIP3    H150951   3.263   0.158  12.172 -0.2660 -1.5268 -1.5557
 9820TIP3    H250952   3.324   0.020  12.180  1.7992 -0.5511  1.5540
 9821TIP3   OH250953   0.315   2.546  10.093 -0.2751  0.4591  0.5461
 9821TIP3    H150954   0.232   2.585  10.065  0.6346  0.9521 -1.5830
 9821TIP3    H250955   0.306   2.453  10.071  0.1548  0.7176 -0.8254
 9822TIP3   OH250956   4.634   5.155  11.341 -0.4229  0.9902 -0.3870
 9822TIP3    H150957   4.719   5.114  11.326 -0.0159  1.6446  0.0570
 9822TIP3    H250958   4.570   5.085  11.329  0.1300  0.6338 -1.3831
 9823TIP3   OH250959   0.639   2.907   4.411  0.1455  0.0407  0.2766
 9823TIP3    H150960   0.558   2.904   4.463  0.4953  0.3271  0.8452
 9823TIP3    H250961   0.612   2.880   4.323 -1.0100  2.2450 -0.1159
 9824TIP3   OH250962   2.243   4.868  15.889 -0.3047  0.4606 -0.5942
 9824TIP3    H150963   2.169   4.901  15.838 -0.3971 -0.1351 -0.8420
 9824TIP3    H250964   2.236   4.773  15.885  1.5029  0.3407 -2.1506
 9825TIP3   OH250965   0.677   1.555  15.896  0.1452  0.5492  0.3026
 9825TIP3    H150966   0.723   1.483  15.851 -0.9058 -0.1468  0.3052
 9825TIP3    H250967   0.650   1.614  15.826 -2.3044 -0.9948 -0.2027
 9826TIP3   OH250968   1.188   0.477  10.579 -0.2310 -0.0105  0.6633
 9826TIP3    H150969   1.097   0.504  10.571 -0.4136 -0.4860  1.0985
 9826TIP3    H250970   1.191   0.389  10.541 -0.0215 -0.1281  0.9494
 9827TIP3   OH250971   6.828   4.048   5.369  0.0038  0.5315 -0.6036
 9827TIP3    H150972   6.837   4.123   5.311 -0.8607  0.0888 -1.3483
 9827TIP3    H250973   6.745   4.062   5.414  0.6017  0.8030  0.4580
 9828TIP3   OH250974   3.840   0.967   6.183  0.1536  0.2937  0.1039
 9828TIP3    H150975   3.862   0.965   6.276 -0.5096 -0.4150  0.2528
 9828TIP3    H250976   3.848   1.060   6.159 -2.3420  0.9926  1.5353
 9829TIP3   OH250977   0.036   0.981  11.047  0.2990  0.5043  0.0097
 9829TIP3    H150978   0.126   0.956  11.069  0.5609  2.0182  0.7931
 9829TIP3    H250979   0.044   1.029  10.964  0.1570  0.2827 -0.1329
 9830TIP3   OH250980   6.124   4.072   1.775  0.6939  0.0669  0.4819
 9830TIP3    H150981   6.077   4.048   1.695 -0.4694  0.3253  1.0744
 9830TIP3    H250982   6.216   4.078   1.748  0.3638 -0.2323 -0.7446
 9831TIP3   OH250983   4.998   2.851   3.813 -0.1459  0.8435  0.0317
 9831TIP3    H150984   5.049   2.795   3.754  1.7570  2.1070  0.3870
 9831TIP3    H250985   4.908   2.846   3.778  0.2567 -1.0664 -0.9252
 9832TIP3   OH250986   6.656   0.979   3.521 -0.3035 -0.4633 -0.4192
 9832TIP3    H150987   6.716   1.033   3.572  0.5717 -0.0409 -1.8511
 9832TIP3    H250988   6.712   0.935   3.457 -1.3906 -0.9227 -1.0702
 9833TIP3   OH250989   2.068   0.523  14.864 -0.1121 -0.7710 -0.0916
 9833TIP3    H150990   1.994   0.520  14.924  0.8135 -2.1184  1.0526
 9833TIP3    H250991   2.139   0.480  14.911  0.8747 -1.1878 -1.8595
 9834TIP3   OH250992   2.203   6.684  14.713  0.1953  0.4969 -0.2998
 9834TIP3    H150993   2.109   6.691  14.694  0.0934 -0.0235 -0.0312
 9834TIP3    H250994   2.246   6.731  14.642 -0.2929  1.2809 -0.0843
 9835TIP3   OH250995   1.530   0.934  13.510  0.0615  0.6020 -0.0121
 9835TIP3    H150996   1.475   0.913  13.586 -0.5559  2.7095  0.1851
 9835TIP3    H250997   1.579   0.853  13.492 -1.1429 -0.4989  1.4678
 9836TIP3   OH250998   5.248   1.248   6.417  0.4523  0.3398 -0.6543
 9836TIP3    H150999   5.340   1.252   6.444  0.1049  1.6311  0.4665
 9836TIP3    H251000   5.221   1.340   6.409 -1.2137  0.0458  0.8784
 9837TIP3   OH251001   4.038   6.547   1.269 -0.3799  0.0067 -0.9991
 9837TIP3    H151002   4.058   6.504   1.352 -0.1068  0.4979 -0.8041
 9837TIP3    H251003   4.114   6.530   1.214  0.1014  0.8947 -0.6490
 9838TIP3   OH251004   3.990   2.921   3.691 -0.2342 -0.2158  0.2672
 9838TIP3    H151005   3.899   2.921   3.720 -0.6312 -1.3720 -0.8854
 9838TIP3    H251006   4.028   2.842   3.729  0.1821  0.0624  0.4368
 9839TIP3   OH251007   4.192   1.279  14.038 -0.0875  0.1720 -0.8767
 9839TIP3    H151008   4.234   1.284  13.952  1.8815  1.3043  0.1001
 9839TIP3    H251009   4.203   1.366  14.075 -2.2110  0.1266 -0.0201
 9840TIP3   OH251010   1.674   4.648  17.055  0.3661  0.0925 -0.1614
 9840TIP3    H151011   1.739   4.581  17.034 -0.1991 -0.1753 -1.1000
 9840TIP3    H251012   1.725   4.718  17.097  1.0457 -0.6796  0.3466
 9841TIP3   OH251013   5.641   2.898  15.131  0.0518 -0.1929 -0.7051
 9841TIP3    H151014   5.546   2.887  15.133  0.0692 -0.2843  0.9275
 9841TIP3    H251015   5.662   2.944  15.212  1.4310 -0.4513 -0.8875
 9842TIP3   OH251016   0.668   5.252   1.061 -0.1011 -0.0773  0.0240
 9842TIP3    H151017   0.640   5.301   1.138 -0.1866  0.4224 -0.3134
 9842TIP3    H251018   0.656   5.314   0.989  1.0631 -0.1532 -0.2426
 9843TIP3   OH251019   5.576   4.196  12.885  0.4322 -0.1089 -0.2169
 9843TIP3    H151020   5.587   4.276  12.936  1.1610  1.4564 -2.6660
 9843TIP3    H251021   5.488   4.202  12.848  0.2921 -0.7006  0.0111
 9844TIP3   OH251022   3.246   3.199  14.994  0.0215 -0.6180  0.9917
 9844TIP3    H151023   3.251   3.204  14.899 -0.5435  0.5362  1.0032
 9844TIP3    H251024   3.318   3.141  15.019  0.9291  0.0039 -0.0669
 9845TIP3   OH251025   4.535   0.055  14.267 -0.4331 -0.5746 -0.1480
 9845TIP3    H151026   4.619   0.090  14.298  1.4423 -1.9287 -3.1844
 9845TIP3    H251027   4.521  -0.024  14.319 -0.9525  0.6943  1.7496
 9846TIP3   OH251028   1.970   5.868  11.626  0.1206  0.2792 -0.3467
 9846TIP3    H151029   1.962   5.962  11.639 -1.3302  0.1101  0.1391
 9846TIP3    H251030   2.064   5.854  11.614  0.2041  2.0082 -2.3916
 9847TIP3   OH251031   4.214   6.191   4.381 -0.2734 -0.5685 -0.1402
 9847TIP3    H151032   4.263   6.116   4.347 -0.4633 -0.7174 -0.0833
 9847TIP3    H251033   4.204   6.172   4.475  0.6923  0.0744  0.1186
 9848TIP3   OH251034   2.338   0.258   0.785 -0.3340 -0.3079 -0.4674
 9848TIP3    H151035   2.388   0.243   0.704 -1.1268  0.5981 -1.1394
 9848TIP3    H251036   2.342   0.352   0.799 -1.0469 -0.3413  0.0010
 9849TIP3   OH251037   6.668   2.784   2.928 -0.1406 -0.0997 -0.1258
 9849TIP3    H151038   6.651   2.851   2.995 -1.8694 -0.0244 -0.5811
 9849TIP3    H251039   6.746   2.739   2.959  1.8466  2.8677 -0.4098
 9850TIP3   OH251040   5.387   4.082   4.042 -0.4716 -0.2825 -0.6216
 9850TIP3    H151041   5.473   4.040   4.050 -0.8318 -1.0024 -0.4536
 9850TIP3    H251042   5.391   4.156   4.101 -0.8040 -1.7232  1.3117
 9851TIP3   OH251043   1.670   3.266   3.457 -0.8318  0.0021 -0.1478
 9851TIP3    H151044   1.648   3.295   3.546  0.4024 -0.4021  0.3124
 9851TIP3    H251045   1.586   3.240   3.418 -1.2698 -0.7346  1.2306
 9852TIP3   OH251046   4.417   1.550   6.274 -0.8478 -0.0363  0.2836
 9852TIP3    H151047   4.501   1.518   6.305 -1.3888 -1.7054  0.1066
 9852TIP3    H251048   4.416   1.529   6.180 -1.6759 -0.5654  0.3958
 9853TIP3   OH251049   5.310   2.278  15.618  0.1677  0.4267 -0.0372
 9853TIP3    H151050   5.333   2.307  15.707 -0.8068  1.9808 -0.2532
 9853TIP3    H251051   5.261   2.198  15.630 -0.1473  0.7458  0.8514
 9854TIP3   OH251052   4.466   1.658  15.706 -0.1587 -0.3064 -0.0939
 9854TIP3    H151053   4.438   1.660  15.614 -0.1799 -0.7204 -0.1002
 9854TIP3    H251054   4.540   1.718  15.711 -0.9256  0.6586 -0.1204
 9855TIP3   OH251055   2.998   5.347   2.139 -0.4393 -0.4685  0.3584
 9855TIP3    H151056   2.955   5.414   2.192 -1.1200 -0.5929 -0.0237
 9855TIP3    H251057   2.935   5.329   2.069  0.7841  0.2894 -0.9777
 9856TIP3   OH251058   3.915   1.056   0.137  0.1417 -0.0615  0.4521
 9856TIP3    H151059   3.830   1.013   0.127  0.7915 -1.2863  0.0296
 9856TIP3    H251060   3.899   1.125   0.202 -0.8373 -1.2429  1.5113
 9857TIP3   OH251061   3.102   2.614  16.950 -0.2948  0.0469 -0.2248
 9857TIP3    H151062   3.089   2.558  16.874 -5.3035 -1.4420  1.3458
 9857TIP3    H251063   3.062   2.698  16.926 -0.0701  0.2476  0.0902
 9858TIP3   OH251064   2.191   4.201  17.026  0.1118  0.0195 -0.1514
 9858TIP3    H151065   2.270   4.234  16.983 -1.0518  1.7136 -1.0867
 9858TIP3    H251066   2.220   4.178  17.114  1.6477  0.6060 -0.4731
 9859TIP3   OH251067   4.074   0.878   0.916 -0.2274  0.3133  0.0446
 9859TIP3    H151068   4.127   0.933   0.858 -0.4552  1.3307  0.7862
 9859TIP3    H251069   4.021   0.824   0.856  0.5683  0.3239 -0.6923
 9860TIP3   OH251070   5.832   4.723   4.407  0.0557 -0.9672 -0.0903
 9860TIP3    H151071   5.768   4.676   4.460  0.7538 -1.0682  0.6718
 9860TIP3    H251072   5.896   4.757   4.469  0.1317  0.1215 -0.7292
 9861TIP3   OH251073   3.687   0.414   2.154  0.2846 -0.1614  0.3477
 9861TIP3    H151074   3.616   0.471   2.124  0.1148 -0.0010  1.0357
 9861TIP3    H251075   3.752   0.473   2.192  0.3031 -0.3950  0.6848
 9862TIP3   OH251076   2.021   5.471  12.717 -0.0707  0.2117  0.0435
 9862TIP3    H151077   1.966   5.512  12.784 -1.7559 -1.9064  0.0783
 9862TIP3    H251078   2.089   5.426  12.767 -1.0231 -0.9362  0.3522
 9863TIP3   OH251079   6.236   0.260   0.674  0.5127  0.0197 -0.2551
 9863TIP3    H151080   6.291   0.335   0.652  0.2869 -0.2105 -1.6872
 9863TIP3    H251081   6.169   0.258   0.605  0.2441 -1.2204  0.0137
 9864TIP3   OH251082   2.774   3.440   0.459 -0.6800  0.0314  0.2257
 9864TIP3    H151083   2.708   3.423   0.527  0.5092  2.6490  2.1635
 9864TIP3    H251084   2.767   3.533   0.441  1.5509  0.0935 -0.5831
 9865TIP3   OH251085   6.282   0.983  15.417 -0.1253 -0.2302 -0.0531
 9865TIP3    H151086   6.257   0.944  15.333  1.1475  0.9064 -1.0169
 9865TIP3    H251087   6.366   1.025  15.399 -0.5038  1.2545  1.4191
 9866TIP3   OH251088   5.708   3.511  10.653  0.9494 -0.1717  0.5145
 9866TIP3    H151089   5.715   3.510  10.748  0.3032 -0.6195  0.5613
 9866TIP3    H251090   5.614   3.516  10.636  1.0977  1.4149 -0.0963
 9867TIP3   OH251091   2.722   3.151   6.092  0.0099 -0.4922  0.5252
 9867TIP3    H151092   2.633   3.160   6.124 -0.1575 -0.7221  0.1264
 9867TIP3    H251093   2.713   3.128   6.000  0.4900  0.7067  0.1499
 9868TIP3   OH251094   4.919   0.543  13.060 -0.1507 -0.0937  0.5663
 9868TIP3    H151095   4.920   0.634  13.029  0.7659 -0.6406 -1.1096
 9868TIP3    H251096   4.888   0.493  12.985  2.0489 -1.4738  0.5098
 9869TIP3   OH251097   6.081   5.061  16.224 -0.3740 -0.3566  0.0108
 9869TIP3    H151098   6.100   5.121  16.151  0.9492 -0.8228 -0.0499
 9869TIP3    H251099   5.986   5.066  16.234 -0.4703  0.5005 -1.0701
 9870TIP3   OH251100   6.424   2.377   4.042  0.5671  0.7053 -0.1997
 9870TIP3    H151101   6.483   2.450   4.060 -1.8806  2.8403 -0.0898
 9870TIP3    H251102   6.394   2.392   3.952  1.2793 -1.1669 -0.7741
 9871TIP3   OH251103   4.295   5.814  16.661 -0.2268  0.0527  0.0216
 9871TIP3    H151104   4.389   5.799  16.669 -0.1320  0.2735 -0.6254
 9871TIP3    H251105   4.282   5.905  16.686 -0.0408  0.4994 -1.4228
 9872TIP3   OH251106   0.605   0.404  12.145 -0.2939  0.0281  0.4131
 9872TIP3    H151107   0.659   0.458  12.087  0.5355 -0.5829  0.6029
 9872TIP3    H251108   0.661   0.387  12.221 -0.5235 -1.1089  0.3438
 9873TIP3   OH251109   3.897   0.207   2.784 -0.5133  0.1775  0.2661
 9873TIP3    H151110   3.974   0.241   2.738 -0.8993  0.4440 -0.1992
 9873TIP3    H251111   3.931   0.140   2.843  0.2867  1.5001  1.3412
 9874TIP3   OH251112   4.130   1.744   0.774 -0.0638 -0.7967 -1.0013
 9874TIP3    H151113   4.041   1.776   0.762  0.2481  0.1801 -0.8104
 9874TIP3    H251114   4.135   1.721   0.867  0.6014  1.5651 -0.3760
 9875TIP3   OH251115   2.237   6.573   3.519  0.3631 -0.3841  0.3605
 9875TIP3    H151116   2.329   6.587   3.496  0.1815 -1.1815 -0.9683
 9875TIP3    H251117   2.194   6.656   3.497  0.9154  0.4222  2.1029
 9876TIP3   OH251118   3.555   2.593  15.962 -0.4006 -0.0234 -0.0021
 9876TIP3    H151119   3.589   2.586  15.873 -1.4379 -3.0833 -0.2716
 9876TIP3    H251120   3.562   2.686  15.983  3.3682  0.2742 -1.8311
 9877TIP3   OH251121   6.541   0.719   5.426 -0.3839  0.4901  0.1607
 9877TIP3    H151122   6.577   0.735   5.513  0.2931 -0.1174  0.0005
 9877TIP3    H251123   6.549   0.625   5.414 -1.3504  0.4411 -0.1871
 9878TIP3   OH251124   6.425   6.796   4.174 -0.1292 -0.2120 -0.0826
 9878TIP3    H151125   6.412   6.873   4.118 -0.0447  0.8354  1.3006
 9878TIP3    H251126   6.481   6.738   4.121  0.3071  0.9278 -0.9212
 9879TIP3   OH251127   2.800   6.552   4.565  0.7531 -0.3141 -0.0213
 9879TIP3    H151128   2.786   6.640   4.600  0.0550 -0.5984  0.4391
 9879TIP3    H251129   2.886   6.526   4.597  1.3352  0.5193 -0.8536
 9880TIP3   OH251130   3.421   5.131  11.156  0.3714 -0.6613 -0.3653
 9880TIP3    H151131   3.506   5.088  11.145  1.4022  1.1508  0.1201
 9880TIP3    H251132   3.359   5.059  11.168  2.3443 -2.0457  2.9326
 9881TIP3   OH251133   4.184   1.863   2.813 -0.5226 -0.4197 -0.0535
 9881TIP3    H151134   4.110   1.859   2.873 -0.4851 -3.1091 -0.0781
 9881TIP3    H251135   4.160   1.806   2.740  0.7603  0.2221 -1.0342
 9882TIP3   OH251136   0.870   6.021   3.439 -0.0424 -0.4255 -0.0888
 9882TIP3    H151137   0.933   5.991   3.373 -0.2556 -1.2777  0.0904
 9882TIP3    H251138   0.805   5.952   3.444 -1.3278  0.6960 -0.6725
 9883TIP3   OH251139   6.360   3.955   2.209 -0.0148  0.0730 -0.5660
 9883TIP3    H151140   6.434   3.895   2.206 -0.0520  0.0503 -1.1325
 9883TIP3    H251141   6.299   3.921   2.143  0.1869  1.0170 -1.2522
 9884TIP3   OH251142   6.346   1.525   6.380 -0.5039 -0.1594  0.5913
 9884TIP3    H151143   6.311   1.504   6.294 -0.7352  0.9398  0.3944
 9884TIP3    H251144   6.389   1.610   6.368 -0.6938  0.0973  1.5912
 9885TIP3   OH251145   1.809   5.903   2.267 -0.0751  0.1975 -0.3328
 9885TIP3    H151146   1.824   5.959   2.343  0.1119  0.7493 -0.7648
 9885TIP3    H251147   1.793   5.816   2.304 -2.7682  0.9533  0.4901
 9886TIP3   OH251148   1.968   4.593   0.742  0.1939  0.2236  0.1039
 9886TIP3    H151149   1.881   4.621   0.768  0.1700  0.7731 -0.5248
 9886TIP3    H251150   2.026   4.630   0.808 -0.0361 -0.0141  0.4368
 9887TIP3   OH251151   5.940   2.579  14.070 -0.3879  0.0764  0.6509
 9887TIP3    H151152   5.938   2.499  14.019 -0.2372 -0.0241  0.8031
 9887TIP3    H251153   5.859   2.577  14.121 -1.2082  0.8161 -0.5528
 9888TIP3   OH251154   5.778   2.763   0.704 -0.5936 -0.4079 -0.9511
 9888TIP3    H151155   5.843   2.824   0.670 -0.8560 -1.1150 -2.8539
 9888TIP3    H251156   5.704   2.771   0.645 -1.3716 -1.2133 -0.1237
 9889TIP3   OH251157   6.731   2.924   5.311  0.0495 -0.3823  0.0509
 9889TIP3    H151158   6.659   2.982   5.338 -0.3962 -0.2323 -1.3684
 9889TIP3    H251159   6.807   2.982   5.307  0.1841 -0.4624  1.1906
 9890TIP3   OH251160   0.384   1.802   4.471  0.2714 -0.3466 -0.2430
 9890TIP3    H151161   0.297   1.766   4.485  0.5242 -1.5278 -1.5131
 9890TIP3    H251162   0.370   1.896   4.462 -0.7649 -0.4336  0.2820
 9891TIP3   OH251163   2.295   3.438   2.097 -0.1497 -0.2135 -0.2251
 9891TIP3    H151164   2.338   3.522   2.084  1.5024 -0.9251  0.3306
 9891TIP3    H251165   2.207   3.449   2.060 -0.1410  1.8904  0.3098
 9892TIP3   OH251166   5.734   5.842  13.180  0.3792  0.0919  0.0621
 9892TIP3    H151167   5.645   5.831  13.215  0.9280  0.1804  1.5575
 9892TIP3    H251168   5.761   5.929  13.210  1.2856 -0.2789  0.3432
 9893TIP3   OH251169   6.747   0.999  15.879  0.4375 -0.8639 -0.4090
 9893TIP3    H151170   6.738   1.065  15.947  0.4859  0.9441 -2.0778
 9893TIP3    H251171   6.837   0.966  15.889  0.5822 -0.3122  0.1213
 9894TIP3   OH251172   0.299   3.925   1.676  0.2309 -0.4349 -0.0243
 9894TIP3    H151173   0.312   3.970   1.759  0.5795 -1.7446  0.6549
 9894TIP3    H251174   0.235   3.857   1.695 -1.1258  0.4330 -1.2934
 9895TIP3   OH251175   5.947   3.255  12.067  0.2592  0.4761 -0.1867
 9895TIP3    H151176   5.860   3.220  12.090  0.7206 -1.1747 -0.8429
 9895TIP3    H251177   6.007   3.208  12.125  0.6600  2.5523  1.2084
 9896TIP3   OH251178   3.198   0.915  15.283  0.4322  0.1331  0.0587
 9896TIP3    H151179   3.166   0.955  15.363 -0.5336  1.8302 -1.1297
 9896TIP3    H251180   3.119   0.880  15.240  0.7742  0.3000 -0.7215
 9897TIP3   OH251181   4.902   4.415   6.535  0.0143 -0.0480  0.0685
 9897TIP3    H151182   4.865   4.480   6.595 -0.6560  0.0710 -0.4567
 9897TIP3    H251183   4.879   4.447   6.448 -0.9966 -1.3586 -0.1810
 9898TIP3   OH251184   2.465   2.070   1.819  0.2456 -0.3868  0.3691
 9898TIP3    H151185   2.558   2.064   1.797  0.0531 -0.1962 -0.5483
 9898TIP3    H251186   2.454   2.013   1.895  1.4162  0.8479  1.5216
 9899TIP3   OH251187   6.791   3.511  14.406 -0.4427  0.0228  0.0768
 9899TIP3    H151188   6.821   3.575  14.342  0.6374 -0.0888  0.4485
 9899TIP3    H251189   6.852   3.519  14.478 -1.5220 -0.0073  1.0188
 9900TIP3   OH251190   2.830   0.546   1.693 -0.1032 -0.1136 -0.3176
 9900TIP3    H151191   2.820   0.640   1.682  1.8137  0.2938  0.9036
 9900TIP3    H251192   2.860   0.514   1.608 -0.0276  0.4905 -0.5190
 9901TIP3   OH251193   4.889   0.321   5.416  0.4381 -0.1654 -0.1242
 9901TIP3    H151194   4.959   0.310   5.480  0.8861  0.5396 -0.4790
 9901TIP3    H251195   4.814   0.273   5.453  0.1744  1.5105  1.7009
 9902TIP3   OH251196   4.471   6.437   4.910  0.3512 -0.0260  0.4362
 9902TIP3    H151197   4.462   6.418   4.817  0.8814 -1.4032  0.6423
 9902TIP3    H251198   4.494   6.353   4.950 -0.9644  0.2824  1.9751
 9903TIP3   OH251199   4.737   1.629   0.486 -0.1555  0.5647  0.4599
 9903TIP3    H151200   4.657   1.649   0.437 -0.3135  1.4768  1.0482
 9903TIP3    H251201   4.716   1.655   0.576  1.1315  1.7777  0.4525
 9904TIP3   OH251202   0.165   4.590  15.233  0.4353  0.0546  0.1860
 9904TIP3    H151203   0.134   4.580  15.323 -0.8376  1.0513 -0.1110
 9904TIP3    H251204   0.249   4.636  15.241  0.6680 -0.4812  0.8884
 9905TIP3   OH251205   5.187   6.040   5.468  0.2190  0.4823 -0.4566
 9905TIP3    H151206   5.189   6.107   5.536 -0.7838  0.3082 -0.2473
 9905TIP3    H251207   5.217   5.961   5.512  0.0738  0.4866 -0.3501
 9906TIP3   OH251208   6.018   6.018   1.857 -0.0878 -0.2614 -0.0650
 9906TIP3    H151209   5.996   5.968   1.779  0.0391 -0.4349  0.0069
 9906TIP3    H251210   6.086   5.965   1.900 -1.5700 -1.2032  1.2128
 9907TIP3   OH251211   6.862   5.195  11.248 -0.4129  0.5782 -0.3753
 9907TIP3    H151212   6.790   5.138  11.220  0.0419 -0.2070  0.0345
 9907TIP3    H251213   6.931   5.135  11.277 -0.3710  1.3502  1.2041
 9908TIP3   OH251214   4.830   5.704  11.756  0.1433  0.3505  0.5476
 9908TIP3    H151215   4.876   5.621  11.770  1.7625  1.3925  1.7749
 9908TIP3    H251216   4.741   5.688  11.788 -0.4178 -1.6715 -1.7066
 9909TIP3   OH251217   1.189   4.594   0.648  0.5114  0.0686  0.4732
 9909TIP3    H151218   1.149   4.639   0.574  0.2800  0.0043  0.5585
 9909TIP3    H251219   1.174   4.501   0.631 -1.6281  0.1254  1.7548
 9910TIP3   OH251220   4.992   1.011  10.993 -0.5138  0.4177  0.2078
 9910TIP3    H151221   4.944   0.937  11.030 -1.4438  0.8956 -0.0066
 9910TIP3    H251222   4.985   1.080  11.059  1.4948 -0.0646  1.0194
 9911TIP3   OH251223   0.221   4.188  14.420  0.1748  0.1861 -0.1934
 9911TIP3    H151224   0.229   4.189  14.325  1.2348 -0.8036 -0.1255
 9911TIP3    H251225   0.299   4.234  14.451 -0.1098  0.4078  0.2057
 9912TIP3   OH251226   2.258   1.909   5.233 -0.6512 -0.3374  0.4666
 9912TIP3    H151227   2.346   1.931   5.201 -1.0398 -0.2227 -0.5940
 9912TIP3    H251228   2.270   1.832   5.288 -0.0380 -1.1678 -0.7704
 9913TIP3   OH251229   1.764   0.279  10.392 -0.2658 -0.0610 -0.3346
 9913TIP3    H151230   1.849   0.284  10.347  0.4222  0.2542  0.9501
 9913TIP3    H251231   1.720   0.204  10.352  1.7903 -2.0639  0.8927
 9914TIP3   OH251232   5.747   4.695   0.494 -0.2307 -0.0978  0.5451
 9914TIP3    H151233   5.787   4.609   0.484 -0.2136  0.0828 -1.2157
 9914TIP3    H251234   5.662   4.677   0.535  0.0016 -0.8762  0.6969
 9915TIP3   OH251235   5.691   6.379  14.404 -0.6458 -0.0071 -0.0134
 9915TIP3    H151236   5.596   6.390  14.394 -0.4066  1.8557 -0.7045
 9915TIP3    H251237   5.702   6.286  14.424 -2.4532 -0.7063 -1.8641
 9916TIP3   OH251238   0.624   6.029  10.929  0.2985  0.2238  0.1942
 9916TIP3    H151239   0.675   6.078  10.864 -0.1895 -0.5875 -0.8401
 9916TIP3    H251240   0.653   5.938  10.920  0.4725  0.1453  1.3791
 9917TIP3   OH251241   4.725   4.691   5.570  0.7161 -0.4841 -0.4430
 9917TIP3    H151242   4.818   4.669   5.574  0.7468 -0.2689  0.4629
 9917TIP3    H251243   4.701   4.708   5.662  0.3726  1.8644 -0.9034
 9918TIP3   OH251244   5.581   3.263  13.557 -0.3427 -0.2950  0.1541
 9918TIP3    H151245   5.499   3.288  13.513 -0.3736  0.5076  0.6451
 9918TIP3    H251246   5.553   3.216  13.635 -0.4715  1.9701  1.5810
 9919TIP3   OH251247   2.067   5.913  13.159  0.2523  0.2695  1.2423
 9919TIP3    H151248   2.012   5.934  13.085  0.0251 -2.8610  0.3813
 9919TIP3    H251249   2.010   5.921  13.235 -0.9237 -1.1243  0.5488
 9920TIP3   OH251250   6.714   4.483   2.295  0.1497 -0.0547 -0.1442
 9920TIP3    H151251   6.740   4.478   2.387  0.3914  0.4016 -0.1850
 9920TIP3    H251252   6.794   4.509   2.249 -0.1737  0.5680 -0.3733
 9921TIP3   OH251253   0.942   0.914  14.818 -0.2667  0.3571 -0.0307
 9921TIP3    H151254   0.942   0.997  14.771  0.0763  0.9641  1.0246
 9921TIP3    H251255   0.861   0.915  14.869 -0.7805 -0.4279 -0.7921
 9922TIP3   OH251256   4.599   3.837   0.671 -0.0320 -0.3404 -0.6217
 9922TIP3    H151257   4.529   3.795   0.721  0.2373 -0.0629 -0.0087
 9922TIP3    H251258   4.567   3.836   0.581 -0.0453 -1.8622 -0.6373
 9923TIP3   OH251259   1.639   4.586   0.898 -0.0333  0.1754 -0.3682
 9923TIP3    H151260   1.553   4.621   0.874 -0.2474 -0.5404 -0.6615
 9923TIP3    H251261   1.648   4.507   0.845  0.0837 -0.6798  0.9019
 9924TIP3   OH251262   6.807   5.454   2.914 -0.2985 -0.3556  0.3405
 9924TIP3    H151263   6.726   5.466   2.963  0.1904 -0.6996  1.2684
 9924TIP3    H251264   6.874   5.498   2.967 -0.1466  1.6037 -1.3602
 9925TIP3   OH251265   5.617   5.436   4.923  0.5205 -0.3126  0.0607
 9925TIP3    H151266   5.708   5.418   4.946  0.3511 -0.9879  0.2109
 9925TIP3    H251267   5.622   5.506   4.858  1.0599  0.7682  1.2336
 9926TIP3   OH251268   6.350   0.805  16.248 -0.4089  0.1870  0.2599
 9926TIP3    H151269   6.385   0.887  16.213  1.2160 -0.0389  1.2581
 9926TIP3    H251270   6.418   0.740  16.227 -0.7236 -0.4918  1.2816
 9927TIP3   OH251271   1.176   1.897  14.157 -0.2685  0.3624 -0.6144
 9927TIP3    H151272   1.185   1.992  14.159  0.0270  0.4100 -2.5752
 9927TIP3    H251273   1.241   1.865  14.220 -0.8924  1.4560  0.6231
 9928TIP3   OH251274   4.455   3.642   5.692 -0.2519  0.2735 -0.8210
 9928TIP3    H151275   4.371   3.641   5.738  0.9450  0.0998  1.5541
 9928TIP3    H251276   4.520   3.654   5.762  1.6596  1.3013 -2.6549
 9929TIP3   OH251277   4.863   6.048   5.284  0.0716  0.2783 -0.3533
 9929TIP3    H151278   4.958   6.043   5.272  0.0212  1.7177 -1.7508
 9929TIP3    H251279   4.828   6.048   5.195 -1.3213 -0.9858  0.1549
 9930TIP3   OH251280   6.420   0.062   3.643  0.0126  0.6074  0.0008
 9930TIP3    H151281   6.439   0.147   3.683  1.3500  0.6483 -0.6648
 9930TIP3    H251282   6.502   0.013   3.650 -0.1082  0.1387 -1.4444
 9931TIP3   OH251283   4.853   3.232  14.788  0.1837  0.3230  0.4445
 9931TIP3    H151284   4.913   3.174  14.835  0.2536  0.6085  0.7115
 9931TIP3    H251285   4.909   3.281  14.727  0.3652  1.1983  1.2828
 9932TIP3   OH251286   6.452   5.879   4.048  0.1825  0.2641  0.4440
 9932TIP3    H151287   6.476   5.966   4.017  0.7933  0.1632  0.6191
 9932TIP3    H251288   6.430   5.892   4.140  2.9097 -0.1631  1.2635
 9933TIP3   OH251289   4.377   1.266  15.077 -0.7028  0.2117  0.0695
 9933TIP3    H151290   4.406   1.307  15.158 -0.0849 -1.6009  0.8297
 9933TIP3    H251291   4.454   1.219  15.045 -0.7407  1.4129 -1.9640
 9934TIP3   OH251292   5.887   1.456   0.148 -0.3180 -0.2371 -0.5016
 9934TIP3    H151293   5.965   1.402   0.162  0.2534  0.5037 -0.7884
 9934TIP3    H251294   5.817   1.407   0.190  0.2639 -1.0079 -0.3996
 9935TIP3   OH251295   6.805   1.386   5.664 -0.3127 -0.7286  0.1846
 9935TIP3    H151296   6.806   1.475   5.701 -0.7356  0.0136 -1.5031
 9935TIP3    H251297   6.896   1.371   5.638 -0.1546 -0.9711  0.8652
 9936TIP3   OH251298   3.655   3.948  13.717  0.2857 -0.1663 -0.1357
 9936TIP3    H151299   3.563   3.976  13.711 -0.1838 -1.4366  0.7948
 9936TIP3    H251300   3.689   3.996  13.793 -0.0562 -0.8649  0.4666
 9937TIP3   OH251301   0.484   3.638  11.698  0.4700  0.1632 -0.3173
 9937TIP3    H151302   0.519   3.667  11.783 -0.8075  0.2466  0.2051
 9937TIP3    H251303   0.411   3.580  11.721  0.7098 -0.5838 -1.3696
 9938TIP3   OH251304   0.841   5.616   3.113 -0.1827 -0.2694  0.0782
 9938TIP3    H151305   0.901   5.647   3.181  0.8850 -0.8589 -0.5679
 9938TIP3    H251306   0.895   5.610   3.035 -1.0790 -0.9102 -0.5076
 9939TIP3   OH251307   6.035   2.437   4.784 -0.3483  0.1881  0.6482
 9939TIP3    H151308   6.076   2.499   4.724 -0.1172  1.0515  1.6751
 9939TIP3    H251309   5.944   2.465   4.789  0.0371  1.3281  2.1427
 9940TIP3   OH251310   4.846   5.673   2.132  0.0759 -0.3121  0.3582
 9940TIP3    H151311   4.844   5.767   2.153 -0.9741 -0.0191 -0.9731
 9940TIP3    H251312   4.892   5.668   2.048 -2.3870 -0.6461 -1.0498
 9941TIP3   OH251313   3.949   4.235   3.714 -0.1003  0.0686  0.7901
 9941TIP3    H151314   4.019   4.216   3.776  1.1466  0.4995 -0.4390
 9941TIP3    H251315   3.878   4.177   3.740 -0.0225  0.9653  3.2485
 9942TIP3   OH251316   0.107   0.769   3.643 -0.1271 -0.0746 -0.0788
 9942TIP3    H151317   0.095   0.709   3.717  1.0200  0.6759  0.7625
 9942TIP3    H251318   0.071   0.722   3.568  0.6818 -1.8139  0.5565
 9943TIP3   OH251319   5.098   2.404   4.398 -0.3678  0.5113  0.1639
 9943TIP3    H151320   5.070   2.482   4.445  0.6890  1.5081 -0.8048
 9943TIP3    H251321   5.053   2.408   4.314  0.3095  0.5239 -0.2092
 9944TIP3   OH251322   5.124   4.602   3.635  0.5438  0.1750  0.2435
 9944TIP3    H151323   5.117   4.608   3.730  0.2327  1.8653  0.1463
 9944TIP3    H251324   5.157   4.688   3.608 -1.9922  0.7486 -1.4007
 9945TIP3   OH251325   3.777   1.588   0.265  0.0884 -0.5614 -0.1057
 9945TIP3    H151326   3.851   1.555   0.316  1.5323  0.3568 -1.5156
 9945TIP3    H251327   3.817   1.648   0.202 -2.1537  2.6873  1.3006
 9946TIP3   OH251328   0.669   1.767  11.820 -0.1190  0.8282 -0.1996
 9946TIP3    H151329   0.753   1.728  11.842  0.1891  0.5975 -1.6991
 9946TIP3    H251330   0.621   1.768  11.903  1.5831  1.5734  0.8342
 9947TIP3   OH251331   3.558   6.613   5.578  0.0726 -0.3345 -0.6264
 9947TIP3    H151332   3.572   6.537   5.522  2.2476 -0.4166 -0.0990
 9947TIP3    H251333   3.531   6.577   5.662  0.1276 -0.4746 -0.6683
 9948TIP3   OH251334   1.084   2.953  14.110  0.1459  0.3512  0.1314
 9948TIP3    H151335   1.134   2.893  14.166  0.1608 -0.7125 -0.9817
 9948TIP3    H251336   1.129   3.037  14.120  1.3002 -0.2542  0.2621
 9949TIP3   OH251337   6.327   5.421  16.271  0.1995  0.1858 -0.2276
 9949TIP3    H151338   6.313   5.515  16.275  0.5108  0.2407 -0.3817
 9949TIP3    H251339   6.420   5.410  16.291 -0.3973 -0.3034  2.7928
 9950TIP3   OH251340   3.098   4.979   0.530  0.2357  0.4920  0.0881
 9950TIP3    H151341   3.045   4.899   0.526 -0.8080  1.2107 -2.2284
 9950TIP3    H251342   3.185   4.951   0.502 -0.7372  0.4929 -3.4563
 9951TIP3   OH251343   4.430   1.555  12.019  0.2891 -0.1838 -0.1890
 9951TIP3    H151344   4.488   1.595  12.084 -2.2826  0.5474  1.8852
 9951TIP3    H251345   4.480   1.482  11.982  2.3428  0.1664  1.6911
 9952TIP3   OH251346   3.659   4.090  14.416 -0.3541  0.2035 -0.0807
 9952TIP3    H151347   3.732   4.078  14.477 -1.2653 -1.1617  0.8213
 9952TIP3    H251348   3.674   4.024  14.348 -0.7877 -0.1773  0.1822
 9953TIP3   OH251349   5.161   4.533   4.091 -0.1792 -0.0123 -0.1640
 9953TIP3    H151350   5.113   4.478   4.153  0.1439  1.2146  1.2406
 9953TIP3    H251351   5.184   4.612   4.141  1.6422  0.2741 -1.3348
 9954TIP3   OH251352   4.244   0.847   2.595 -0.1706  0.1772  0.5267
 9954TIP3    H151353   4.234   0.925   2.650 -1.4915 -0.2553  0.9499
 9954TIP3    H251354   4.332   0.814   2.615 -0.3807  0.3955  1.9044
 9955TIP3   OH251355   6.366   1.010   4.797 -0.2980 -0.0681 -0.0608
 9955TIP3    H151356   6.430   0.960   4.849 -0.3073  0.4808  0.4909
 9955TIP3    H251357   6.292   1.022   4.856 -1.4557 -1.7314 -1.0686
 9956TIP3   OH251358   1.599   6.053  16.350 -0.0282  0.2699  0.2937
 9956TIP3    H151359   1.597   6.070  16.444  1.3509 -2.9351  1.0192
 9956TIP3    H251360   1.681   6.091  16.320 -0.2363  0.8609  0.4659
 9957TIP3   OH251361   3.488   5.333   3.715 -0.5583 -0.1516 -0.2536
 9957TIP3    H151362   3.516   5.270   3.648 -0.8684  0.4186 -0.9371
 9957TIP3    H251363   3.461   5.410   3.665 -4.1235 -0.8772  0.2283
 9958TIP3   OH251364   0.713   4.856   1.911  0.2107 -0.2211 -0.3084
 9958TIP3    H151365   0.657   4.847   1.834 -0.9104  0.9895  0.3247
 9958TIP3    H251366   0.702   4.773   1.958  0.9268 -0.9762 -1.4330
 9959TIP3   OH251367   6.861   0.460  16.023  0.7990 -0.2214  0.1985
 9959TIP3    H151368   6.776   0.471  15.980  0.7226 -1.4125  0.0280
 9959TIP3    H251369   6.841   0.462  16.116  0.4919 -1.1238  0.1581
 9960TIP3   OH251370   2.525   0.208   3.928  0.4121 -0.2774 -0.5328
 9960TIP3    H151371   2.597   0.219   3.866  0.7885  1.9369  0.2284
 9960TIP3    H251372   2.558   0.142   3.990  0.5636 -1.4887 -1.8458
 9961TIP3   OH251373   2.030   3.984  11.276  0.2961 -0.4782  0.2587
 9961TIP3    H151374   1.974   3.914  11.310 -0.0228 -0.2285  0.2570
 9961TIP3    H251375   2.035   3.967  11.182  0.0588 -0.3874  0.2294
 9962TIP3   OH251376   0.131   1.231   3.775 -0.0712 -0.6968 -0.6683
 9962TIP3    H151377   0.097   1.321   3.784  0.3250 -0.6325  0.2329
 9962TIP3    H251378   0.202   1.226   3.838 -1.4541 -2.3104  0.8571
 9963TIP3   OH251379   2.896   2.517  12.058 -0.0854 -0.2300 -0.0616
 9963TIP3    H151380   2.845   2.472  11.991  0.9975  0.1969 -1.2231
 9963TIP3    H251381   2.945   2.447  12.101 -0.1430 -0.4293 -0.3126
 9964TIP3   OH251382   4.036   2.228   5.137  0.0170  0.5392 -0.1181
 9964TIP3    H151383   4.094   2.260   5.068 -1.9691  0.5972 -1.8356
 9964TIP3    H251384   3.952   2.270   5.120 -0.8271 -0.2657  1.7273
 9965TIP3   OH251385   4.931   2.560  15.520 -0.0197 -0.6349 -0.3105
 9965TIP3    H151386   4.894   2.495  15.460  0.8589 -0.0571 -1.5270
 9965TIP3    H251387   5.025   2.542  15.519  0.4149  1.3796 -1.6579
 9966TIP3   OH251388   2.005   5.359  15.012  0.3764  0.3966 -0.2348
 9966TIP3    H151389   2.081   5.392  14.964  0.9027  1.2826  1.1546
 9966TIP3    H251390   2.030   5.271  15.039  0.3655  0.1753 -0.9118
 9967TIP3   OH251391   0.254   5.290   4.048  0.5577  0.0575 -0.2105
 9967TIP3    H151392   0.315   5.227   4.085  0.2538 -1.0574 -1.5342
 9967TIP3    H251393   0.307   5.345   3.990  0.5910  0.1678 -0.0759
 9968TIP3   OH251394   0.769   6.001  11.191 -0.3864  0.0722  0.1928
 9968TIP3    H151395   0.704   6.013  11.121 -0.2945 -0.9116 -0.0702
 9968TIP3    H251396   0.718   5.967  11.265 -0.2608 -0.2268  0.1447
 9969TIP3   OH251397   0.823   6.153  15.212  0.5325  0.4873 -0.0044
 9969TIP3    H151398   0.883   6.198  15.272  0.1717 -0.3665  1.0333
 9969TIP3    H251399   0.736   6.181  15.240  0.2783 -1.1358  0.9400
 9970TIP3   OH251400   1.423   1.571   2.583  0.4418  0.0006  0.2006
 9970TIP3    H151401   1.499   1.622   2.610  1.0830 -1.2357  0.7899
 9970TIP3    H251402   1.380   1.547   2.665 -0.3959  0.3783 -0.1113
 9971TIP3   OH251403   3.675   2.563   5.891 -0.3949  0.2841  0.4939
 9971TIP3    H151404   3.695   2.479   5.851 -2.1551  0.3323 -0.6308
 9971TIP3    H251405   3.669   2.545   5.985  2.3346 -0.1495  0.6700
 9972TIP3   OH251406   4.674   6.423  14.231 -0.3387 -0.0735 -0.4270
 9972TIP3    H151407   4.583   6.437  14.205 -0.6750 -1.5452 -0.1232
 9972TIP3    H251408   4.685   6.328  14.228  1.4328  0.1275 -1.2565
 9973TIP3   OH251409   2.881   4.581  14.079  0.4715 -0.2348 -0.0438
 9973TIP3    H151410   2.973   4.556  14.073  0.6291  0.4127 -0.4060
 9973TIP3    H251411   2.837   4.525  14.015  0.4808 -1.1187  0.7020
 9974TIP3   OH251412   6.339   0.019  12.372 -0.4377 -0.3718  0.3625
 9974TIP3    H151413   6.422  -0.000  12.328 -1.1754  0.4534 -1.4954
 9974TIP3    H251414   6.362   0.028  12.465  1.3459 -1.2353  0.0408
 9975TIP3   OH251415   2.504   4.963   2.455 -0.0753  0.7895 -0.2145
 9975TIP3    H151416   2.458   4.975   2.373  0.1136 -0.4028 -0.5045
 9975TIP3    H251417   2.459   5.022   2.516  0.2633  2.2693 -1.3241
 9976TIP3   OH251418   2.091   1.010   1.889 -0.0575 -0.0595 -0.3793
 9976TIP3    H151419   2.029   1.077   1.861 -0.4178 -0.0459  0.4137
 9976TIP3    H251420   2.079   0.938   1.827 -0.5017  0.1480 -0.5373
 9977TIP3   OH251421   4.622   1.900  15.654  0.2040  0.3330 -0.3778
 9977TIP3    H151422   4.553   1.914  15.589  1.4764  0.5821 -1.7402
 9977TIP3    H251423   4.667   1.984  15.660 -0.7281  0.7497  1.9410
 9978TIP3   OH251424   1.214   4.590  14.221  0.1824  0.6814 -0.3703
 9978TIP3    H151425   1.202   4.541  14.303 -1.9831 -0.1910 -1.1539
 9978TIP3    H251426   1.159   4.668  14.232 -0.0502  0.5993 -0.9611
 9979TIP3   OH251427   6.689   0.500  12.419 -0.0020  0.4726 -0.5668
 9979TIP3    H151428   6.751   0.525  12.350 -0.8102 -0.0693 -1.5151
 9979TIP3    H251429   6.612   0.555  12.403  0.2351  1.1910  0.6424
 9980TIP3   OH251430   2.705   3.136  15.224 -0.5142 -0.4110 -0.2357
 9980TIP3    H151431   2.734   3.169  15.139  1.7995 -1.6113  0.0233
 9980TIP3    H251432   2.609   3.136  15.218 -0.4975  1.7874 -1.9292
 9981TIP3   OH251433   5.804   0.992   5.376  0.1857  0.1460  0.3297
 9981TIP3    H151434   5.743   1.065   5.388  0.8711  0.6331  0.9785
 9981TIP3    H251435   5.753   0.925   5.332 -1.0147  0.2820  1.4505
 9982TIP3   OH251436   4.972   0.990  15.401 -0.4314  0.4322  0.2653
 9982TIP3    H151437   5.048   1.026  15.447 -0.4998  1.2439 -0.2434
 9982TIP3    H251438   4.908   0.972  15.470  0.3507 -0.6317  0.7460
 9983TIP3   OH251439   1.643   3.693  14.831  0.0398  0.1350 -0.1978
 9983TIP3    H151440   1.637   3.722  14.740  1.3775  0.3569 -0.2421
 9983TIP3    H251441   1.598   3.609  14.833  0.1860  0.0266 -1.1128
 9984TIP3   OH251442   4.639   3.487  15.226 -0.5082  0.5685  0.3013
 9984TIP3    H151443   4.671   3.470  15.137  0.9295 -0.5384  0.9782
 9984TIP3    H251444   4.650   3.403  15.271 -3.6761  0.3340  0.8658
 9985TIP3   OH251445   1.941   1.992  14.031  0.3000 -0.0944  0.2493
 9985TIP3    H151446   1.988   1.910  14.043  0.2442 -0.4403 -1.6305
 9985TIP3    H251447   1.849   1.967  14.023  0.3205  0.0942 -0.6938
 9986TIP3   OH251448   2.834   1.964   2.168  0.2213  0.3260  0.2075
 9986TIP3    H151449   2.817   1.969   2.263  1.5801 -1.4906  0.6067
 9986TIP3    H251450   2.912   1.910   2.161 -1.6175 -2.2760 -2.1088
 9987TIP3   OH251451   2.223   5.549  11.524  0.0446  0.1612 -0.0697
 9987TIP3    H151452   2.245   5.460  11.495 -0.5767  0.1097 -0.4114
 9987TIP3    H251453   2.201   5.539  11.616  0.5946  0.0680  0.0517
 9988TIP3   OH251454   6.655   0.620  13.342  0.5095 -0.2481  0.9364
 9988TIP3    H151455   6.589   0.661  13.286  2.6962  2.4294  0.1239
 9988TIP3    H251456   6.685   0.544  13.293  1.3323  1.2102 -0.9740
 9989TIP3   OH251457   5.879   5.612   3.289  0.2689  0.2531  0.0035
 9989TIP3    H151458   5.929   5.692   3.306  0.7028  0.1361 -0.6873
 9989TIP3    H251459   5.925   5.570   3.217 -0.2661 -0.3570  0.0102
 9990TIP3   OH251460   3.554   4.766  10.856  0.4842 -0.2757 -0.1314
 9990TIP3    H151461   3.472   4.789  10.811  0.5167 -1.1990 -0.7137
 9990TIP3    H251462   3.623   4.788  10.793  0.6432 -0.0240  0.1323
 9991TIP3   OH251463   5.534   4.407  14.074 -0.3034  0.3029  0.0189
 9991TIP3    H151464   5.536   4.498  14.105  0.4101 -0.2947  1.8934
 9991TIP3    H251465   5.445   4.377  14.094 -0.3403  0.4032  0.0054
 9992TIP3   OH251466   3.804   2.737  11.235  0.2723  0.4823  0.3817
 9992TIP3    H151467   3.787   2.822  11.194 -1.7160 -0.5416 -1.0735
 9992TIP3    H251468   3.857   2.689  11.171 -0.0253  0.0297  0.4687
 9993TIP3   OH251469   2.824   5.052  17.104 -0.0260 -0.0868 -0.0769
 9993TIP3    H151470   2.816   5.012  17.017 -1.5474  0.7061 -0.3410
 9993TIP3    H251471   2.808   4.980  17.165 -1.7324 -0.1457 -0.5257
 9994TIP3   OH251472   6.378   4.762  14.889  0.3901  0.6090 -0.0106
 9994TIP3    H151473   6.398   4.711  14.967  1.3807  0.0866 -0.5828
 9994TIP3    H251474   6.438   4.727  14.822 -0.5319  0.9434 -1.0344
 9995TIP3   OH251475   1.413   3.085  16.088 -0.7338  0.0728 -0.4853
 9995TIP3    H151476   1.434   3.095  15.995 -3.1198  1.6242 -0.9320
 9995TIP3    H251477   1.419   3.173  16.124  3.4220 -0.8602  1.7644
 9996TIP3   OH251478   1.081   0.732   4.611 -0.2833 -0.7584 -0.0567
 9996TIP3    H151479   1.011   0.688   4.659 -0.1443 -0.0403  0.8194
 9996TIP3    H251480   1.037   0.802   4.563  0.0962  1.3726  2.5149
 9997TIP3   OH251481   4.376   0.958  15.473 -0.5477  0.0253 -0.3208
 9997TIP3    H151482   4.321   0.893  15.429  1.2139 -0.3312 -2.1226
 9997TIP3    H251483   4.412   1.011  15.402  1.5490  0.1445  0.7652
 9998TIP3   OH251484   3.418   6.750   5.253 -0.6603  0.8091  0.4500
 9998TIP3    H151485   3.511   6.732   5.266 -0.6200  0.4028 -0.3455
 9998TIP3    H251486   3.415   6.842   5.228 -0.3338  0.5183 -0.7487
 9999TIP3   OH251487   4.528   5.922   2.511 -0.0728  0.3009 -0.2733
 9999TIP3    H151488   4.474   5.957   2.439 -2.3394 -0.0202  1.1800
 9999TIP3    H251489   4.477   5.941   2.590  0.3369 -2.9832  0.9218
10000TIP3   OH251490   4.413   3.234  15.025  0.5852  0.1709 -0.3559
10000TIP3    H151491   4.484   3.195  15.077 -0.4175 -0.6488  0.4240
10000TIP3    H251492   4.362   3.284  15.089 -0.0334  0.0545 -0.7541
10001TIP3   OH251493   5.633   3.982   2.276  0.1718  0.0793  0.1745
10001TIP3    H151494   5.593   4.053   2.327 -0.0314 -0.5788  0.9580
10001TIP3    H251495   5.708   3.954   2.329 -0.7473 -1.4232  0.7509
10002TIP3   OH251496   4.109   6.187   5.140  0.0241  0.4285  0.4058
10002TIP3    H151497   4.122   6.280   5.119  0.5290  0.3009  0.1265
10002TIP3    H251498   4.139   6.141   5.061 -2.2678  0.0903 -0.3301
10003TIP3   OH251499   4.547   4.334   2.385  0.2894  0.3574 -0.1425
10003TIP3    H151500   4.551   4.349   2.291 -0.0852 -0.5324 -0.3148
10003TIP3    H251501   4.463   4.370   2.412 -0.1821 -0.5278 -0.3864
10004TIP3   OH251502   2.146   0.477  12.712  0.0679 -0.7221 -0.1099
10004TIP3    H151503   2.098   0.543  12.762  1.0861  0.6213 -0.8597
10004TIP3    H251504   2.125   0.394  12.756 -1.9375 -0.0434  0.3118
10005TIP3   OH251505   2.097   6.314   3.537  0.5942 -0.0336 -0.0349
10005TIP3    H151506   2.139   6.400   3.529  0.5960 -0.0250  0.0706
10005TIP3    H251507   2.118   6.270   3.454 -1.3841  0.9255 -1.1021
10006TIP3   OH251508   6.149   6.002  17.004  0.2082  0.2653 -0.2340
10006TIP3    H151509   6.062   5.978  16.971 -0.4248  1.9005  0.1732
10006TIP3    H251510   6.132   6.041  17.089  1.2402  1.4613 -0.5503
10007TIP3   OH251511   0.668   3.537  15.244  0.2978  0.4581 -0.2070
10007TIP3    H151512   0.696   3.447  15.227 -0.1071  0.5076 -1.1515
10007TIP3    H251513   0.575   3.529  15.264  0.5277  0.5294  1.0263
10008TIP3   OH251514   6.150   3.206   5.722 -0.0477 -0.1024  0.2321
10008TIP3    H151515   6.182   3.265   5.790 -0.8214  0.2541  0.2962
10008TIP3    H251516   6.123   3.128   5.769  1.0372 -0.5548  0.1411
10009TIP3   OH251517   4.820   0.967   2.722  0.5595  0.2288  0.7348
10009TIP3    H151518   4.851   0.997   2.808  0.8639  2.9512 -0.2181
10009TIP3    H251519   4.899   0.959   2.669  0.2451  0.0869  0.2761
10010TIP3   OH251520   3.484   0.790   0.184 -0.0415 -0.5539  0.1708
10010TIP3    H151521   3.477   0.696   0.196 -0.7114 -0.5718 -0.2980
10010TIP3    H251522   3.499   0.824   0.272  0.7960 -1.1416  0.2636
10011TIP3   OH251523   4.169   6.375  15.229  0.0979 -0.8013 -0.0644
10011TIP3    H151524   4.161   6.467  15.255 -0.9848 -0.6088 -1.0016
10011TIP3    H251525   4.207   6.332  15.305  0.3228  0.3711  0.5050
10012TIP3   OH251526   3.912   3.930   4.593 -0.1977  0.6410  0.4721
10012TIP3    H151527   3.898   4.007   4.537  0.8643 -1.0993 -2.4062
10012TIP3    H251528   3.824   3.895   4.609 -0.5496  1.3934  0.2455
10013TIP3   OH251529   5.634   5.837  10.777 -0.0024 -0.4753 -0.5432
10013TIP3    H151530   5.604   5.836  10.686 -1.4339  2.0458 -0.2249
10013TIP3    H251531   5.595   5.759  10.817 -0.8531 -0.6634 -1.6952
10014TIP3   OH251532   1.335   2.130  15.573 -0.4733 -0.1733  0.5455
10014TIP3    H151533   1.379   2.183  15.507  0.0210  0.7484  1.5672
10014TIP3    H251534   1.387   2.049  15.577  0.8377  0.6536  1.3130
10015TIP3   OH251535   3.302   1.476   4.578 -0.9932 -0.1748 -0.1211
10015TIP3    H151536   3.263   1.449   4.662 -1.1311  0.4569  0.0269
10015TIP3    H251537   3.387   1.513   4.602 -1.3594  0.7220 -0.1614
10016TIP3   OH251538   6.019   0.227   3.818 -0.0906 -0.0726 -0.1160
10016TIP3    H151539   6.079   0.266   3.754  0.0758  0.5332  0.4046
10016TIP3    H251540   6.077   0.182   3.880 -0.2658 -0.9167 -0.5503
10017TIP3   OH251541   5.474   2.199  14.975  0.1584 -0.0827 -0.2598
10017TIP3    H151542   5.515   2.257  14.911  0.6202 -2.8238 -2.6577
10017TIP3    H251543   5.386   2.184  14.941  0.4006 -1.5596 -0.2982
10018TIP3   OH251544   0.966   1.413   3.870 -0.6083 -0.0502  0.3193
10018TIP3    H151545   0.993   1.495   3.829  1.1217 -0.7874 -0.0894
10018TIP3    H251546   0.939   1.438   3.959 -1.9910  1.1999 -0.3973
10019TIP3   OH251547   5.712   0.963  14.357 -0.2942  0.3037  0.7728
10019TIP3    H151548   5.711   0.870  14.334 -1.3450  0.5512 -0.2807
10019TIP3    H251549   5.698   0.965  14.451 -1.3006 -0.5762  0.6564
10020TIP3   OH251550   0.259   5.553   1.575  0.4922  0.0419 -0.4062
10020TIP3    H151551   0.286   5.475   1.623 -2.4376 -1.1199 -0.4309
10020TIP3    H251552   0.327   5.618   1.593  2.4563 -2.1556  0.5195
10021TIP3   OH251553   5.670   2.511   2.388 -0.0746  0.2299  0.5295
10021TIP3    H151554   5.717   2.431   2.412 -0.4659  0.0775  0.7893
10021TIP3    H251555   5.686   2.571   2.460 -1.4141 -0.2957  1.2955
10022TIP3   OH251556   5.681   1.612   4.976 -0.4432 -0.2366 -0.4272
10022TIP3    H151557   5.712   1.664   5.049 -1.5179 -2.3468  1.6642
10022TIP3    H251558   5.719   1.525   4.990 -0.7780 -0.7370 -2.3251
10023TIP3   OH251559   4.096   4.790   6.666  0.0741 -0.4828 -0.6341
10023TIP3    H151560   4.155   4.818   6.596 -0.4070 -1.4942 -1.4795
10023TIP3    H251561   4.101   4.860   6.731 -0.1388  0.9589 -2.0843
10024TIP3   OH251562   5.814   6.495  15.660 -0.1061  0.3357  0.7174
10024TIP3    H151563   5.733   6.543  15.644  0.2655  0.3864 -1.1733
10024TIP3    H251564   5.787   6.404  15.669 -0.4763  0.4848  1.1366
10025TIP3   OH251565   1.235   3.117  15.758 -0.1893  0.2969 -0.1104
10025TIP3    H151566   1.283   3.196  15.783 -1.8063  0.7764  1.7531
10025TIP3    H251567   1.295   3.045  15.776 -0.3105  0.8291  2.8993
10026TIP3   OH251568   1.776   0.423   2.950  0.0284  0.2235  0.0131
10026TIP3    H151569   1.693   0.411   2.997 -0.0405 -0.3553 -0.2493
10026TIP3    H251570   1.751   0.458   2.865  0.0443 -0.0316 -0.0975
10027TIP3   OH251571   4.231   3.934  11.219 -0.3283  0.1509 -0.4793
10027TIP3    H151572   4.258   3.995  11.288  2.6604 -0.7745 -0.6873
10027TIP3    H251573   4.160   3.979  11.174 -0.0669  2.2799  1.0704
10028TIP3   OH251574   2.322   0.350  13.273 -0.1555 -0.0989 -0.0937
10028TIP3    H151575   2.252   0.286  13.291 -0.0763 -0.0525  0.3805
10028TIP3    H251576   2.313   0.415  13.342  0.0973  0.1274 -0.2767
10029TIP3   OH251577   1.624   4.329   3.581  0.3497 -1.0030 -0.0432
10029TIP3    H151578   1.577   4.412   3.580 -0.8596 -1.6716 -0.8388
10029TIP3    H251579   1.708   4.349   3.539  0.1048 -0.1750 -0.1695
10030TIP3   OH251580   4.686   3.525  10.325  0.1862  0.3195  0.7411
10030TIP3    H151581   4.766   3.575  10.311  0.5057 -0.0420  1.2216
10030TIP3    H251582   4.716   3.443  10.364 -0.3944  0.0618  0.6576
10031TIP3   OH251583   5.756   4.363   1.700 -0.1032  0.0380 -0.1485
10031TIP3    H151584   5.721   4.450   1.717 -0.4211 -0.2604  0.7716
10031TIP3    H251585   5.680   4.312   1.672 -0.1207 -0.2076  0.3329
10032TIP3   OH251586   6.364   2.398  15.164  0.0240  0.0079  0.4040
10032TIP3    H151587   6.382   2.444  15.246 -0.1829 -1.5509  1.3673
10032TIP3    H251588   6.274   2.423  15.142  0.2617  0.8459  0.3628
10033TIP3   OH251589   1.090   0.872  11.562 -0.5124  0.2487  0.3910
10033TIP3    H151590   1.062   0.781  11.550 -2.0220  0.9215 -1.7144
10033TIP3    H251591   1.077   0.912  11.477  1.3575  2.1653  0.9192
10034TIP3   OH251592   0.906   1.781   5.778  0.2940  0.2844 -0.2266
10034TIP3    H151593   0.935   1.714   5.716 -0.5528 -0.2695 -0.0333
10034TIP3    H251594   0.966   1.772   5.852  0.4078 -0.0170 -0.3537
10035TIP3   OH251595   0.479   1.897  15.472 -0.2524 -0.1060  0.2533
10035TIP3    H151596   0.531   1.971  15.503 -0.1580  0.5765 -1.4620
10035TIP3    H251597   0.539   1.823  15.474 -0.0614  0.0585  1.0063
10036TIP3   OH251598   1.858   2.330  11.419  0.1080 -0.4352 -0.5976
10036TIP3    H151599   1.806   2.336  11.338  0.4952 -2.2653 -1.0266
10036TIP3    H251600   1.948   2.340  11.390  0.1769  0.0185 -0.2285
10037TIP3   OH251601   4.008   0.284   2.447  1.0685  0.0169 -0.4224
10037TIP3    H151602   4.004   0.274   2.352  1.2577  3.6676 -0.9937
10037TIP3    H251603   3.922   0.319   2.471  1.1427 -0.5467  0.7033
10038TIP3   OH251604   1.460   5.448   2.789 -0.3608  0.1632  0.2777
10038TIP3    H151605   1.472   5.404   2.873  0.5817 -0.5339 -0.1911
10038TIP3    H251606   1.367   5.471   2.785 -0.9113 -1.8647  0.5233
10039TIP3   OH251607   0.834   3.790   3.976  0.2725  0.1720  0.3596
10039TIP3    H151608   0.862   3.717   4.031 -0.7255 -0.3346  0.2288
10039TIP3    H251609   0.849   3.868   4.029  1.2445 -0.1386  0.5456
10040TIP3   OH251610   3.006   1.215   1.248 -0.1864  0.0269  0.4214
10040TIP3    H151611   3.002   1.302   1.287 -0.7292  0.1383  0.1260
10040TIP3    H251612   3.035   1.230   1.158 -1.8047  0.0754 -0.1202
10041TIP3   OH251613   3.233   6.520  13.837  0.0618 -0.3352  0.8804
10041TIP3    H151614   3.221   6.613  13.819 -0.6122 -0.4086  0.9066
10041TIP3    H251615   3.144   6.487  13.852  0.2413 -1.0849  0.3607
10042TIP3   OH251616   1.571   5.472   3.731 -0.6608 -0.0187 -0.0277
10042TIP3    H151617   1.561   5.377   3.726  0.4872 -0.1544 -0.1180
10042TIP3    H251618   1.552   5.503   3.642 -0.0621 -0.2827 -0.2560
10043TIP3   OH251619   6.479   3.619  16.165  0.0727  0.1993 -0.5149
10043TIP3    H151620   6.450   3.554  16.229  1.0472  0.5509  0.3079
10043TIP3    H251621   6.471   3.703  16.211 -0.5475  0.6131 -1.3465
10044TIP3   OH251622   3.269   5.999  16.659 -0.5248 -0.0208  0.0771
10044TIP3    H151623   3.203   6.069  16.650  0.0554  0.5878  0.4643
10044TIP3    H251624   3.310   6.016  16.743 -0.6460 -1.0831  0.3540
10045TIP3   OH251625   3.808   5.214   3.015 -0.1799 -0.5162 -0.0351
10045TIP3    H151626   3.900   5.225   2.991 -0.0871 -3.3323 -1.3897
10045TIP3    H251627   3.764   5.288   2.972  0.9754 -1.4124 -3.0792
10046TIP3   OH251628   1.928   1.151  10.213 -0.0989 -0.0962  0.1348
10046TIP3    H151629   2.019   1.138  10.186 -0.4878 -0.7393 -0.9576
10046TIP3    H251630   1.881   1.080  10.169 -0.8088 -1.1962  2.5046
10047TIP3   OH251631   2.836   6.828   6.630 -0.7399  0.1409  0.0258
10047TIP3    H151632   2.794   6.895   6.575 -0.7791 -1.1344 -1.5560
10047TIP3    H251633   2.763   6.774   6.661 -0.4561 -1.0285 -1.2851
10048TIP3   OH251634   5.223   4.952   5.240  0.1193 -0.3877 -0.3940
10048TIP3    H151635   5.263   4.888   5.300 -0.2370  0.4261  0.7422
10048TIP3    H251636   5.131   4.927   5.236 -0.1835  0.4495  0.6465
10049TIP3   OH251637   4.744   1.256   2.596 -0.1098  0.2499  0.8349
10049TIP3    H151638   4.836   1.247   2.574 -0.5117 -0.3060 -0.8042
10049TIP3    H251639   4.712   1.325   2.538 -0.5697  0.9941  1.9405
10050TIP3   OH251640   2.549   4.051  13.070 -0.8167 -0.5537 -0.0793
10050TIP3    H151641   2.614   4.009  13.014  1.0745  1.6088  0.3547
10050TIP3    H251642   2.558   4.145  13.052 -1.0713  0.1269  2.8293
10051TIP3   OH251643   6.661   3.467   0.416 -0.2832 -0.1804 -0.3062
10051TIP3    H151644   6.728   3.485   0.350 -0.5724  1.2361 -0.2319
10051TIP3    H251645   6.584   3.442   0.366  0.1585 -1.4890 -0.4008
10052TIP3   OH251646   5.874   2.158  13.473  0.2882  0.1075 -0.7930
10052TIP3    H151647   5.931   2.221  13.430  0.4106 -0.0096 -0.8040
10052TIP3    H251648   5.837   2.205  13.548  0.0989  0.3006 -1.0078
10053TIP3   OH251649   3.541   0.210   6.179 -0.0900 -0.3166 -0.1183
10053TIP3    H151650   3.569   0.140   6.237  0.0336 -0.1173  0.0650
10053TIP3    H251651   3.446   0.213   6.188 -0.1126 -0.5738 -0.2592
10054TIP3   OH251652   0.838   0.332   6.033  0.0881 -0.4184 -0.3131
10054TIP3    H151653   0.756   0.314   6.079  0.9404 -1.3104  0.9351
10054TIP3    H251654   0.826   0.294   5.946 -0.8057 -0.5647 -0.1337
10055TIP3   OH251655   1.987   5.949  16.842  0.4001 -0.0666 -0.8015
10055TIP3    H151656   1.927   6.023  16.830 -0.0719  0.0750  1.8872
10055TIP3    H251657   1.932   5.876  16.868  0.9245 -1.3277 -2.9873
10056TIP3   OH251658   1.928   6.144  13.287 -0.2200  0.2137 -0.3105
10056TIP3    H151659   1.888   6.084  13.351 -1.3251 -1.2392 -2.2494
10056TIP3    H251660   1.998   6.187  13.336 -1.7700  0.1064  2.2116
10057TIP3   OH251661   6.807   3.579   2.815  0.4043  0.1250  0.2253
10057TIP3    H151662   6.755   3.649   2.855  1.8755  0.9024  0.8403
10057TIP3    H251663   6.828   3.612   2.728 -0.4406 -0.3604 -0.1721
10058TIP3   OH251664   2.457   2.579   5.295  0.1563  0.4054  0.3810
10058TIP3    H151665   2.392   2.612   5.357  0.2967  1.0991  0.1684
10058TIP3    H251666   2.405   2.528   5.231 -0.2865  1.5472 -0.1969
10059TIP3   OH251667   2.596   1.949  12.205  0.0774 -0.6364 -0.0652
10059TIP3    H151668   2.516   1.999  12.222 -0.2591 -0.7697 -1.1539
10059TIP3    H251669   2.657   2.013  12.168  0.4610 -0.5436  0.7231
10060TIP3   OH251670   3.463   2.087  12.629 -0.3376  0.4714 -0.1568
10060TIP3    H151671   3.511   2.021  12.679 -1.9701  0.2987  1.2725
10060TIP3    H251672   3.373   2.055  12.626 -0.6771  1.4423 -1.5805
10061TIP3   OH251673   0.409   3.944   3.513 -0.7497  0.6720 -0.0808
10061TIP3    H151674   0.343   3.946   3.583 -0.9532 -1.3520 -0.1831
10061TIP3    H251675   0.360   3.920   3.434  0.2289 -2.0896  0.0687
10062TIP3   OH251676   1.922   3.311  14.620 -0.5482 -0.5512 -0.1822
10062TIP3    H151677   1.965   3.329  14.703  1.6946 -0.5934 -1.2470
10062TIP3    H251678   1.902   3.217  14.623 -0.6787 -0.5085  0.3798
10063TIP3   OH251679   1.693   1.732   5.893 -0.7284  0.9012  0.7432
10063TIP3    H151680   1.639   1.657   5.919 -1.1904  0.6440 -0.8117
10063TIP3    H251681   1.730   1.765   5.974 -1.8920  0.0351  1.6599
10064TIP3   OH251682   3.465   5.932   0.216  0.4889 -0.7021  0.0865
10064TIP3    H151683   3.414   5.857   0.185 -1.9161  0.2546  1.4311
10064TIP3    H251684   3.554   5.899   0.222 -0.3352 -3.2255 -0.1066
10065TIP3   OH251685   4.365   0.285   2.335 -0.1547 -0.1848 -0.3752
10065TIP3    H151686   4.392   0.287   2.244 -1.9671 -0.3488 -0.9542
10065TIP3    H251687   4.286   0.339   2.338  0.9446  1.4842  1.4972
10066TIP3   OH251688   3.801   3.310  15.571  0.1627 -0.0595 -0.1696
10066TIP3    H151689   3.728   3.366  15.597  1.5599  1.7860  0.0358
10066TIP3    H251690   3.762   3.224  15.558 -1.6913  0.3360  2.0161
10067TIP3   OH251691   5.066   2.093   1.058 -0.6291 -0.5523 -0.4144
10067TIP3    H151692   4.993   2.039   1.027 -0.6400  0.4484 -2.2549
10067TIP3    H251693   5.048   2.180   1.021  1.4935 -0.2865 -0.9007
10068TIP3   OH251694   6.648   3.695  15.743  0.3700  0.1333  0.6974
10068TIP3    H151695   6.585   3.684  15.813  1.0404  0.8289  1.4360
10068TIP3    H251696   6.668   3.606  15.713 -1.8386 -0.0523 -0.3892
10069TIP3   OH251697   4.070   6.314  16.062  0.1432  0.8713 -0.2485
10069TIP3    H151698   4.098   6.392  16.015 -0.9988  1.7742  0.5228
10069TIP3    H251699   4.053   6.344  16.151 -0.5819 -0.2024 -0.0069
10070TIP3   OH251700   4.929   2.119  14.282  0.2484 -0.2864 -0.2255
10070TIP3    H151701   4.872   2.183  14.239  0.2970  0.5743  0.9389
10070TIP3    H251702   4.992   2.172  14.331 -0.0274 -1.2169  1.1843
10071TIP3   OH251703   5.010   0.201  14.627  0.2147  0.1861 -0.2577
10071TIP3    H151704   4.996   0.278  14.571 -0.3851  0.3393  0.0964
10071TIP3    H251705   5.076   0.229  14.690  0.8046  0.0539 -0.8043
10072TIP3   OH251706   4.697   1.878   3.369  0.4975 -0.0407 -0.1169
10072TIP3    H151707   4.669   1.894   3.279 -0.2287 -1.4730 -0.1551
10072TIP3    H251708   4.699   1.965   3.409  0.0724  0.5218 -1.2879
10073TIP3   OH251709   4.979   2.855   2.013 -0.6827  0.2483  0.3634
10073TIP3    H151710   4.959   2.763   1.994  0.3020  0.0654  0.1188
10073TIP3    H251711   5.012   2.889   1.930 -1.1056  0.8494  0.4372
10074TIP3   OH251712   5.245   1.603  16.803  0.1474  0.0229 -0.3107
10074TIP3    H151713   5.247   1.583  16.710 -0.2544 -0.5560 -0.2052
10074TIP3    H251714   5.338   1.609  16.828  0.2555  1.1942 -0.9368
10075TIP3   OH251715   0.521   3.189  16.083  0.3152  0.6637 -0.1960
10075TIP3    H151716   0.597   3.244  16.102  0.0627  1.5427 -1.5782
10075TIP3    H251717   0.501   3.146  16.166  0.4467  2.7773  0.9890
10076TIP3   OH251718   4.216   6.684   5.778 -0.4938  0.4054  0.3855
10076TIP3    H151719   4.251   6.768   5.749 -3.9311  1.2877 -1.7768
10076TIP3    H251720   4.254   6.620   5.718  0.9357  0.5751  1.0692
10077TIP3   OH251721   4.370   3.956  15.886 -0.0457  0.2088  0.1542
10077TIP3    H151722   4.312   4.028  15.861  0.4110  0.2186 -0.9337
10077TIP3    H251723   4.452   3.998  15.909 -0.3635  0.1712  1.3954
10078TIP3   OH251724   4.276   0.140  11.159 -0.0451  0.6133 -0.1251
10078TIP3    H151725   4.188   0.116  11.131 -0.4998  1.3322  0.6226
10078TIP3    H251726   4.326   0.148  11.077 -0.4713 -0.5280 -0.5082
10079TIP3   OH251727   4.482   4.093   0.584  0.1688 -0.4202 -0.1208
10079TIP3    H151728   4.553   4.109   0.647 -0.6532  2.2469  0.2525
10079TIP3    H251729   4.416   4.045   0.634 -0.1881  1.0869  0.9055
10080TIP3   OH251730   0.992   1.550   3.509 -1.0234 -0.4646  0.2670
10080TIP3    H151731   0.929   1.607   3.464  1.0904 -0.5512 -3.2094
10080TIP3    H251732   0.961   1.461   3.492 -1.0054 -0.4648  0.2340
10081TIP3   OH251733   2.974   6.105   0.266  0.1398  0.0336  0.2835
10081TIP3    H151734   2.996   6.161   0.341 -1.5058 -0.3393  1.1140
10081TIP3    H251735   2.878   6.100   0.269  0.1338 -1.0227 -1.1135
10082TIP3   OH251736   3.043   1.187  16.715 -0.0420  0.2007 -0.2357
10082TIP3    H151737   2.982   1.259  16.732 -1.1257 -0.1964 -2.1377
10082TIP3    H251738   3.077   1.163  16.801 -2.0575  0.9111  0.8097
10083TIP3   OH251739   0.842   3.841   3.590  0.8132 -0.3475 -0.1304
10083TIP3    H151740   0.773   3.806   3.646  0.5708 -0.4226 -0.4742
10083TIP3    H251741   0.922   3.837   3.644  0.9967 -2.3466 -0.5011
10084TIP3   OH251742   0.602   6.326  15.282 -0.3561 -0.4074  0.0464
10084TIP3    H151743   0.540   6.288  15.345 -0.9350  0.6757  0.1547
10084TIP3    H251744   0.571   6.295  15.197 -0.0091 -1.2787  0.2308
10085TIP3   OH251745   3.323   5.287   4.357 -0.3175  0.2831  0.3472
10085TIP3    H151746   3.305   5.263   4.448 -0.7544  0.8713  0.4152
10085TIP3    H251747   3.270   5.365   4.341 -0.0829  0.3065 -0.3498
10086TIP3   OH251748   6.327   4.490   5.943  0.0745 -0.0797  0.0261
10086TIP3    H151749   6.378   4.532   6.012 -0.1846  1.6752 -0.7693
10086TIP3    H251750   6.312   4.401   5.974 -2.1263  1.2692  3.4471
10087TIP3   OH251751   6.150   5.161  11.464  0.1908  0.3895  0.1502
10087TIP3    H151752   6.129   5.192  11.552  1.3501  0.4628  0.4163
10087TIP3    H251753   6.069   5.172  11.414 -1.1016 -1.4460  1.6832
10088TIP3   OH251754   3.481   2.709  16.247 -0.2158 -0.3583  0.5427
10088TIP3    H151755   3.475   2.757  16.164 -0.0738 -1.1797  0.0458
10088TIP3    H251756   3.569   2.729  16.279  0.1405 -0.8945 -0.0598
10089TIP3   OH251757   4.220   5.893   5.370  0.0146  0.1515  0.2644
10089TIP3    H151758   4.170   5.966   5.407  0.8096  0.7098  0.2654
10089TIP3    H251759   4.166   5.816   5.387  0.6336  0.2523  3.2199
10090TIP3   OH251760   2.286   2.377   5.858  0.0645  0.3332  0.5679
10090TIP3    H151761   2.248   2.455   5.897  0.0640  0.8740 -0.4672
10090TIP3    H251762   2.254   2.378   5.767  0.9661 -0.2551  0.2301
10091TIP3   OH251763   5.533   5.966   0.394 -0.6118  0.6608 -0.0682
10091TIP3    H151764   5.521   6.059   0.411 -2.0105  0.6775 -1.0459
10091TIP3    H251765   5.469   5.945   0.327 -1.5592 -1.3794  1.3699
10092TIP3   OH251766   5.046   6.281   0.370 -0.6245  0.0043 -0.1705
10092TIP3    H151767   4.968   6.261   0.421 -1.2297  2.9729  0.2978
10092TIP3    H251768   5.117   6.285   0.435  0.3416 -4.0294 -0.7686
10093TIP3   OH251769   1.527   0.878  15.672  0.1618  0.3053  0.1279
10093TIP3    H151770   1.552   0.956  15.624  0.7472 -0.3775 -0.7153
10093TIP3    H251771   1.563   0.891  15.760  1.7731  0.2327 -0.4999
10094TIP3   OH251772   6.210   6.125  14.015  0.0744  0.1776  0.0184
10094TIP3    H151773   6.132   6.128  13.958  1.2360  0.1542 -1.6541
10094TIP3    H251774   6.192   6.055  14.077 -1.7041  0.9226  0.4134
10095TIP3   OH251775   6.491   2.766  16.449  0.1868  0.3430 -0.3779
10095TIP3    H151776   6.505   2.792  16.540  1.8955 -0.3783 -0.3981
10095TIP3    H251777   6.559   2.813  16.400  0.0264 -0.1697 -1.1081
10096TIP3   OH251778   0.138   5.870  14.885 -0.2293  0.3217  0.2883
10096TIP3    H151779   0.183   5.821  14.816 -0.2730 -0.2355  0.6413
10096TIP3    H251780   0.068   5.917  14.840 -0.3979 -0.2164 -0.0161
10097TIP3   OH251781   2.440   1.848  11.807 -0.2030 -0.6651  0.0051
10097TIP3    H151782   2.427   1.838  11.901  0.9872 -0.0566  0.2491
10097TIP3    H251783   2.437   1.943  11.792  0.2840 -0.7191 -0.4649
10098TIP3   OH251784   2.493   2.894   3.219  0.7008  0.0556 -0.2345
10098TIP3    H151785   2.529   2.809   3.245  2.4438  0.6541 -0.5328
10098TIP3    H251786   2.403   2.876   3.195  0.5812 -1.4455  1.1578
10099TIP3   OH251787   2.391   3.548  13.619  0.1431 -0.4475  0.0321
10099TIP3    H151788   2.479   3.568  13.589 -0.2816 -1.1063 -1.7473
10099TIP3    H251789   2.360   3.478  13.562 -1.1683 -0.9702  1.2921
10100TIP3   OH251790   3.979   4.783   0.937  0.3462  0.3214  0.2390
10100TIP3    H151791   3.994   4.830   0.855  0.3921  0.2034  0.1784
10100TIP3    H251792   3.966   4.692   0.909  1.3651  0.0979  0.4390
10101TIP3   OH251793   4.204   2.089   6.448  0.6528  0.0240  0.0623
10101TIP3    H151794   4.254   2.160   6.407  3.6053 -1.4674  0.7573
10101TIP3    H251795   4.121   2.129   6.473  1.3122  2.6358 -1.4843
10102TIP3   OH251796   2.366   1.506   5.478 -0.3743 -0.0172  0.2730
10102TIP3    H151797   2.338   1.590   5.443 -2.5089 -0.5204  0.6648
10102TIP3    H251798   2.390   1.454   5.401 -5.1594 -1.1807 -0.7544
10103TIP3   OH251799   1.059   2.669  11.668  0.3641 -0.2489  0.4192
10103TIP3    H151800   0.984   2.614  11.686 -0.8581  0.9234 -0.8291
10103TIP3    H251801   1.071   2.720  11.748 -0.5211 -0.0700  0.4452
10104TIP3   OH251802   1.829   5.532   4.425 -0.2265  0.1981 -0.0951
10104TIP3    H151803   1.808   5.618   4.461 -0.9125 -0.3660  0.9145
10104TIP3    H251804   1.924   5.524   4.433  0.1424  1.6524 -2.0889
10105TIP3   OH251805   3.703   1.993   4.408  0.6191  0.1259  0.7040
10105TIP3    H151806   3.642   2.065   4.396  1.9794  1.3078  0.7057
10105TIP3    H251807   3.649   1.914   4.398 -0.6278  1.1161 -0.7599
10106TIP3   OH251808   4.908   5.924   2.243 -0.0238  0.2655 -0.0472
10106TIP3    H151809   4.892   6.013   2.273 -0.7699  0.3868 -0.7713
10106TIP3    H251810   4.863   5.869   2.307 -0.8971  0.4861 -0.4535
10107TIP3   OH251811   3.241   3.293  12.436  0.4128 -0.2830 -0.4401
10107TIP3    H151812   3.204   3.205  12.435  0.0654 -0.1601  0.3798
10107TIP3    H251813   3.164   3.351  12.430  0.5104 -0.0294  0.6117
10108TIP3   OH251814   1.711   6.365  16.472  0.3152  0.1865 -0.1326
10108TIP3    H151815   1.619   6.351  16.452  0.3574  2.0634 -2.0289
10108TIP3    H251816   1.711   6.429  16.543  0.1948 -1.2458  1.2051
10109TIP3   OH251817   0.087   4.260   3.375 -0.0766 -0.2851  0.2589
10109TIP3    H151818   0.121   4.173   3.357  0.1235 -0.4011  1.1414
10109TIP3    H251819   0.165   4.313   3.392 -0.2118 -0.0018 -0.0007
10110TIP3   OH251820   6.311   6.371   4.335  0.7333  0.5296  0.1245
10110TIP3    H151821   6.321   6.396   4.427  2.4031  1.1001 -0.1814
10110TIP3    H251822   6.280   6.451   4.293  0.7326  0.4923  0.0558
10111TIP3   OH251823   4.148   6.220   1.157  0.0962 -0.1274  0.4635
10111TIP3    H151824   4.180   6.132   1.136 -0.5249 -0.0131 -1.0664
10111TIP3    H251825   4.063   6.205   1.198  0.2982 -0.2646  0.8368
10112TIP3   OH251826   5.819   5.635   4.410  0.0240  0.0728 -0.3617
10112TIP3    H151827   5.867   5.575   4.353 -0.8108  0.5178 -1.5828
10112TIP3    H251828   5.883   5.699   4.438  0.6647 -0.7113  0.0054
10113TIP3   OH251829   3.069   6.650  15.524 -0.1397 -0.2770 -0.3026
10113TIP3    H151830   3.067   6.645  15.619  0.3965  0.1441 -0.2631
10113TIP3    H251831   2.982   6.679  15.499  0.3998  1.9721  0.2286
10114TIP3   OH251832   1.561   2.818   5.078  0.2606  0.7556 -0.3116
10114TIP3    H151833   1.582   2.863   5.160  0.3638  1.2755 -0.6184
10114TIP3    H251834   1.468   2.834   5.065  0.5556  2.0039 -1.0806
10115TIP3   OH251835   2.517   5.018  13.620 -0.1291  0.0089 -0.5722
10115TIP3    H151836   2.583   5.087  13.631  1.2579 -1.4924  1.4699
10115TIP3    H251837   2.491   4.997  13.710  0.3987 -2.8910 -1.0060
10116TIP3   OH251838   4.175   1.965  12.346  0.2157 -0.0807  0.1000
10116TIP3    H151839   4.144   1.943  12.259  0.4970 -0.4230  0.0819
10116TIP3    H251840   4.232   2.041  12.333 -2.0775  1.8058  0.3689
10117TIP3   OH251841   5.828   1.328   5.916  0.9924  0.4893 -0.0841
10117TIP3    H151842   5.872   1.311   5.833 -1.5007  2.2616 -1.9440
10117TIP3    H251843   5.849   1.419   5.936  0.7861  0.3669  0.7270
10118TIP3   OH251844   3.301   3.085  11.701 -0.0400  0.0397 -0.1771
10118TIP3    H151845   3.252   3.032  11.763 -1.0529  1.7835  0.5904
10118TIP3    H251846   3.257   3.070  11.617 -1.0579  0.5356  0.2520
10119TIP3   OH251847   2.409   2.203   3.534  0.6847 -0.2345  0.2779
10119TIP3    H151848   2.457   2.220   3.615  0.4023 -0.3877  0.4802
10119TIP3    H251849   2.468   2.150   3.481  0.9142 -0.0420  0.3386
10120TIP3   OH251850   6.359   5.107  12.056  0.7595  0.3900 -0.1821
10120TIP3    H151851   6.428   5.041  12.063 -0.6132 -1.3261 -1.5694
10120TIP3    H251852   6.346   5.117  11.961 -0.1120  1.5274  0.0361
10121TIP3   OH251853   5.751   5.339   4.002  0.1460  0.2452 -0.0520
10121TIP3    H151854   5.804   5.346   3.922  1.6700  1.5358  1.0142
10121TIP3    H251855   5.721   5.248   4.002  2.8960 -0.7666 -0.4118
10122TIP3   OH251856   4.024   2.957   5.587 -0.4525 -0.1213  0.1477
10122TIP3    H151857   4.101   3.006   5.559 -0.0379 -0.0107  1.4432
10122TIP3    H251858   3.984   3.011   5.655 -2.5108  0.5215 -1.4496
10123TIP3   OH251859   2.208   2.860   3.197  0.1778  0.0658 -0.0341
10123TIP3    H151860   2.148   2.852   3.271 -1.4408  0.3739 -1.2630
10123TIP3    H251861   2.163   2.815   3.125  1.3284  0.5081 -1.0527
10124TIP3   OH251862   4.793   1.181   5.739 -0.0229 -0.0193  0.1982
10124TIP3    H151863   4.792   1.129   5.819 -0.4670 -1.0377 -0.4499
10124TIP3    H251864   4.873   1.234   5.746  1.1642 -1.7344  0.3055
10125TIP3   OH251865   3.435   0.771   1.689  0.4002  0.7307  0.3501
10125TIP3    H151866   3.356   0.755   1.638  0.5442  0.7288  0.1267
10125TIP3    H251867   3.404   0.810   1.770  0.1239  0.2390  0.4834
10126TIP3   OH251868   4.145   3.035  12.143  0.6009  0.0088 -0.0167
10126TIP3    H151869   4.074   2.984  12.183 -0.3495  0.6196 -0.8891
10126TIP3    H251870   4.107   3.073  12.065  1.7528  0.7974 -0.2259
10127TIP3   OH251871   5.035   5.269  16.018 -0.8141  0.4994  0.3052
10127TIP3    H151872   4.950   5.240  16.051 -1.0445  0.4704 -0.2962
10127TIP3    H251873   5.047   5.220  15.936  0.0763  0.0200  0.7090
10128TIP3   OH251874   4.300   5.488   0.007  0.3048 -0.0378 -0.7702
10128TIP3    H151875   4.317   5.492   0.102  0.4527  1.0502 -0.8307
10128TIP3    H251876   4.220   5.438  -0.000  1.0763 -1.4208 -0.1730
10129TIP3   OH251877   5.397   0.459   1.183  0.2133 -0.5470 -0.0491
10129TIP3    H151878   5.385   0.529   1.119 -0.0019  0.6491  1.2497
10129TIP3    H251879   5.492   0.446   1.188  0.2085 -0.9640 -0.9183
10130TIP3   OH251880   2.698   0.711   5.139 -0.6459  0.0648  0.3144
10130TIP3    H151881   2.651   0.707   5.222  0.8749  2.2028  1.3835
10130TIP3    H251882   2.790   0.699   5.163 -0.1408  1.0295 -1.0043
10131TIP3   OH251883   1.279   6.092  15.769 -0.0113  0.6653 -0.2623
10131TIP3    H151884   1.286   6.171  15.823 -1.8488  0.3379  0.5200
10131TIP3    H251885   1.275   6.021  15.832  0.8054 -0.0077 -0.9461
10132TIP3   OH251886   4.018   3.761   1.693  0.4487  0.3699 -1.2613
10132TIP3    H151887   3.929   3.731   1.707  0.0904  1.4175 -1.1835
10132TIP3    H251888   4.028   3.835   1.754  1.3747  0.2413 -1.2452
10133TIP3   OH251889   0.567   3.211  16.822 -0.9195 -0.2088 -0.4011
10133TIP3    H151890   0.515   3.280  16.781 -1.6166 -1.6823 -2.1549
10133TIP3    H251891   0.648   3.210  16.772 -1.1173 -0.9529 -0.7233
10134TIP3   OH251892   3.489   1.131   0.143  0.6870 -0.1054  0.0696
10134TIP3    H151893   3.433   1.097   0.213 -2.6946 -0.8920 -2.7126
10134TIP3    H251894   3.510   1.220   0.171  0.0780 -0.6136  2.3685
10135TIP3   OH251895   2.486   0.664   1.094  0.1327  0.0927 -0.3625
10135TIP3    H151896   2.474   0.757   1.073 -0.1913  0.6331  1.9722
10135TIP3    H251897   2.580   0.654   1.101  0.2545 -0.1174 -2.0037
10136TIP3   OH251898   5.982   4.012   1.547 -0.0979 -0.1462 -0.4588
10136TIP3    H151899   6.008   4.056   1.466 -1.2546 -2.1280 -1.9865
10136TIP3    H251900   5.921   3.944   1.520 -1.1342 -0.4215  2.1869
10137TIP3   OH251901   6.314   5.540  12.898  0.5672  0.1438  0.1080
10137TIP3    H151902   6.315   5.444  12.896  1.3148  0.1557 -1.5956
10137TIP3    H251903   6.248   5.562  12.965 -1.5766 -1.5623 -1.2969
10138TIP3   OH251904   4.508   2.067  14.145 -0.3314  0.4287 -0.6472
10138TIP3    H151905   4.416   2.046  14.157 -0.8141  2.8906  0.7302
10138TIP3    H251906   4.519   2.077  14.050 -1.1915 -0.8400 -0.9021
10139TIP3   OH251907   5.084   3.499  13.749 -0.3546 -0.3098 -0.2765
10139TIP3    H151908   5.069   3.575  13.804 -2.1534  0.1380 -1.3157
10139TIP3    H251909   5.098   3.427  13.810 -3.3526 -0.0627  0.8617
10140TIP3   OH251910   5.020   2.994  13.869 -0.1534 -0.3729 -0.2387
10140TIP3    H151911   4.954   2.984  13.938  0.9494  0.8969  1.0732
10140TIP3    H251912   5.099   2.955  13.906 -0.2599 -2.5638 -2.0837
10141TIP3   OH251913   3.423   1.795  12.829  0.3007  0.1745 -0.1106
10141TIP3    H151914   3.357   1.753  12.774  0.9614  1.0865 -1.6590
10141TIP3    H251915   3.482   1.724  12.854  0.3302 -0.1721 -1.1130
10142TIP3   OH251916   3.282   2.298  15.726 -0.0947 -0.1801 -0.1871
10142TIP3    H151917   3.303   2.262  15.812  0.6325 -0.3779 -0.4463
10142TIP3    H251918   3.213   2.363  15.743  0.9715  0.7529  0.7267
10143TIP3   OH251919   5.254   2.742  16.988  0.1591 -0.3123 -0.0970
10143TIP3    H151920   5.323   2.737  17.054  0.2621 -1.6552 -0.2830
10143TIP3    H251921   5.289   2.693  16.914  0.1649  1.3942 -1.2883
10144TIP3   OH251922   5.171   5.662  12.523  0.3214 -0.7117  0.2823
10144TIP3    H151923   5.206   5.712  12.449  0.8147  0.1949  1.0934
10144TIP3    H251924   5.244   5.655  12.584 -0.0882 -1.4145  0.7065
10145TIP3   OH251925   0.707   3.659  12.634  0.2110 -0.0025  0.4302
10145TIP3    H151926   0.689   3.680  12.726  0.1007  0.5515  0.2877
10145TIP3    H251927   0.802   3.658  12.628  0.2469  1.6614  0.1988
10146TIP3   OH251928   4.371   5.832  11.545 -0.0342 -0.2752 -0.1307
10146TIP3    H151929   4.390   5.868  11.632 -0.4625  0.5244 -0.3593
10146TIP3    H251930   4.359   5.739  11.560  1.0932 -0.3376  0.4743
10147TIP3   OH251931   2.702   3.863   5.297  0.3937  0.2430 -0.4336
10147TIP3    H151932   2.609   3.886   5.297  0.0303 -1.1017  0.5261
10147TIP3    H251933   2.713   3.808   5.220  0.6806  1.3270 -1.2022
10148TIP3   OH251934   4.659   6.083  12.448  0.5717 -0.1841  0.1540
10148TIP3    H151935   4.654   6.170  12.408  0.8671 -1.6293 -3.4184
10148TIP3    H251936   4.728   6.038  12.398 -0.6314 -2.9469  0.8000
10149TIP3   OH251937   6.055   0.643  11.671  0.1796  0.5254  0.5748
10149TIP3    H151938   6.025   0.608  11.588 -0.0682 -0.3423  1.0165
10149TIP3    H251939   6.135   0.593  11.691 -0.3205  0.0045  1.3402
10150TIP3   OH251940   5.018   6.718   2.857 -0.3983 -0.0319  0.0171
10150TIP3    H151941   5.109   6.736   2.833 -1.0112  1.5396 -1.3306
10150TIP3    H251942   4.980   6.680   2.779 -1.5048  1.7136 -0.3577
10151TIP3   OH251943   1.122   1.188  16.474 -0.0742  0.1545  0.0422
10151TIP3    H151944   1.199   1.158  16.524 -1.0550  0.8396  2.1015
10151TIP3    H251945   1.138   1.158  16.385  1.7538 -1.2560  0.7700
10152TIP3   OH251946   6.268   6.553  13.201  0.2851 -0.4105  0.1755
10152TIP3    H151947   6.360   6.534  13.183  0.4516 -0.1737  0.7572
10152TIP3    H251948   6.268   6.587  13.291 -0.2805  0.2175 -0.0549
10153TIP3   OH251949   1.406   2.790  14.659  0.2154 -0.2496  0.1626
10153TIP3    H151950   1.413   2.792  14.754 -0.6694  0.7711  0.2378
10153TIP3    H251951   1.333   2.731  14.641  0.2417 -0.2710  0.1251
10154TIP3   OH251952   1.690   1.025  11.536  1.2396  0.2768 -0.9676
10154TIP3    H151953   1.732   1.025  11.450  1.4303  0.1257 -0.8760
10154TIP3    H251954   1.752   0.980  11.593  1.0347  0.2187 -0.7893
10155TIP3   OH251955   3.749   0.061  13.532 -0.7138  0.1349 -0.4919
10155TIP3    H151956   3.723   0.087  13.444  0.1811  1.4959 -0.3924
10155TIP3    H251957   3.696  -0.016  13.551 -0.1392 -0.8669 -2.6386
10156TIP3   OH251958   5.352   3.258  14.945 -0.4813  0.2715 -0.1148
10156TIP3    H151959   5.380   3.344  14.915  0.8300  0.2291  0.8674
10156TIP3    H251960   5.358   3.202  14.867  1.8129  0.3923 -0.1190
10157TIP3   OH251961   4.467   2.220   2.637  0.1574 -0.3510  0.2084
10157TIP3    H151962   4.558   2.197   2.617 -0.1115 -1.9051  0.6783
10157TIP3    H251963   4.437   2.151   2.696 -1.0886  0.5827  0.7138
10158TIP3   OH251964   3.334   0.250   3.676 -0.2554  0.1463  0.1305
10158TIP3    H151965   3.396   0.185   3.707 -1.0054  0.0197  1.4167
10158TIP3    H251966   3.251   0.227   3.718 -0.3425  2.4181  1.3678
10159TIP3   OH251967   6.585   2.607   0.102  0.0801  0.1443 -0.6497
10159TIP3    H151968   6.654   2.546   0.076  0.8225  0.0239  1.4692
10159TIP3    H251969   6.627   2.693   0.102 -0.3144  0.3479 -1.2214
10160TIP3   OH251970   5.888   1.107   6.048 -0.2552 -0.5063 -0.4235
10160TIP3    H151971   5.868   1.151   6.131  1.0983 -1.3756  0.3916
10160TIP3    H251972   5.870   1.173   5.981  0.4432  0.8575  0.6787
10161TIP3   OH251973   0.590   2.214  10.777  0.2120  0.2746 -0.0152
10161TIP3    H151974   0.620   2.268  10.850  0.8773  1.5559 -1.1842
10161TIP3    H251975   0.668   2.202  10.722  0.1098 -2.0317  0.2708
10162TIP3   OH251976   5.510   4.551  16.971  0.0214  0.3088  0.1916
10162TIP3    H151977   5.510   4.644  16.990  0.4636 -0.0839  2.4065
10162TIP3    H251978   5.602   4.524  16.982 -0.2595 -0.5450  0.5611
10163TIP3   OH251979   5.572   4.264  10.687  0.0574 -0.6726  0.8270
10163TIP3    H151980   5.561   4.359  10.680 -0.8051 -0.8695 -1.7429
10163TIP3    H251981   5.580   4.234  10.596  0.4087 -3.0582  1.5682
10164TIP3   OH251982   4.720   3.438  12.489  0.1421  0.3306 -0.1671
10164TIP3    H151983   4.691   3.358  12.532 -1.3090 -0.4098 -2.3201
10164TIP3    H251984   4.671   3.508  12.532 -0.4136 -0.2368  0.1470
10165TIP3   OH251985   6.653   0.290   5.876 -0.3201 -0.3159 -0.3667
10165TIP3    H151986   6.661   0.204   5.917  0.7570  0.0379  0.2171
10165TIP3    H251987   6.613   0.346   5.943  2.6356  0.5889  0.8085
10166TIP3   OH251988   4.615   0.397  13.020  0.0192  0.2626  0.1607
10166TIP3    H151989   4.641   0.448  12.944 -0.6772 -0.1042 -0.3345
10166TIP3    H251990   4.520   0.389  13.012 -0.2390  1.2170  1.6887
10167TIP3   OH251991   0.130   2.745  12.728  0.2167 -0.0804 -0.6844
10167TIP3    H151992   0.196   2.768  12.663 -0.6952 -0.0091 -1.6049
10167TIP3    H251993   0.147   2.805  12.801  1.7295 -0.6670 -0.5109
10168TIP3   OH251994   5.974   3.328  11.403 -0.2552  0.1566  0.0433
10168TIP3    H151995   5.919   3.354  11.477 -0.8062  0.2834 -0.4094
10168TIP3    H251996   5.992   3.235  11.418 -1.0622 -0.0268 -0.1092
10169TIP3   OH251997   5.481   0.820   4.432 -0.1354  0.1057 -0.0973
10169TIP3    H151998   5.396   0.859   4.454  0.2217 -0.5959  3.0877
10169TIP3    H251999   5.532   0.827   4.513  2.5903 -0.2465 -1.6639
10170TIP3   OH252000   6.781   3.373   5.393  0.4065  0.2365  0.4951
10170TIP3    H152001   6.723   3.448   5.387  0.5319  0.5060  2.0246
10170TIP3    H252002   6.869   3.410   5.387  0.4549 -0.0431 -0.7412
10171TIP3   OH252003   1.297   2.511   0.626  0.3892 -0.8147  0.0312
10171TIP3    H152004   1.229   2.528   0.692  1.7054 -2.8089  2.0640
10171TIP3    H252005   1.269   2.561   0.549 -2.3001  0.0243  1.4211
10172TIP3   OH252006   1.475   2.970  15.836 -0.0739  0.5606  0.2515
10172TIP3    H152007   1.541   2.971  15.767 -0.9283  0.6314 -0.5797
10172TIP3    H252008   1.434   2.884  15.829  1.0206 -0.1366  1.8509
10173TIP3   OH252009   2.648   5.692   5.148  0.1446  0.4551 -0.5050
10173TIP3    H152010   2.681   5.744   5.075  0.5931  0.5684 -0.2317
10173TIP3    H252011   2.720   5.692   5.211 -0.1752  0.2214 -0.1349
10174TIP3   OH252012   3.620   1.523   0.519  0.7360 -0.0143 -0.0892
10174TIP3    H152013   3.677   1.532   0.443 -0.0783 -1.4342 -0.9133
10174TIP3    H252014   3.547   1.584   0.502  0.7418 -0.0541 -0.2548
10175TIP3   OH252015   0.512   6.147  12.998  0.3901 -0.2065  0.1480
10175TIP3    H152016   0.509   6.150  12.903  1.4560  0.4296  0.1106
10175TIP3    H252017   0.606   6.151  13.019  0.1501  3.8039  1.2704
10176TIP3   OH252018   4.937   6.019  12.836 -0.0006  0.3863  0.1997
10176TIP3    H152019   4.891   5.935  12.832 -1.1828  1.0278  0.2035
10176TIP3    H252020   5.021   6.001  12.793 -0.1688 -0.8310  0.3268
10177TIP3   OH252021   6.314   2.529   5.033 -0.2404  0.2967 -0.3376
10177TIP3    H152022   6.291   2.439   5.007 -0.1016  0.4173 -0.8866
10177TIP3    H252023   6.409   2.533   5.024 -0.0291 -0.0416  1.4265
10178TIP3   OH252024   3.618   0.342  14.893 -0.4503 -0.4299  0.2542
10178TIP3    H152025   3.656   0.288  14.962  4.7484  3.2565  0.9143
10178TIP3    H252026   3.638   0.295  14.812  0.1402 -1.4184  0.9497
10179TIP3   OH252027   6.790   4.228   4.480  0.3154 -0.2311  0.2203
10179TIP3    H152028   6.766   4.204   4.569  0.5669  0.1416  0.3919
10179TIP3    H252029   6.775   4.323   4.476 -2.5915 -0.6588 -1.0399
10180TIP3   OH252030   2.712   2.767   2.959  0.1648  0.1632  0.0020
10180TIP3    H152031   2.769   2.704   3.001 -0.1906  0.0853  0.3763
10180TIP3    H252032   2.625   2.749   2.996 -0.0919  0.3161 -0.5099
10181TIP3   OH252033   4.363   1.533  16.970  0.0294 -0.1895 -0.4407
10181TIP3    H152034   4.417   1.557  16.895  0.2130 -0.6723 -0.4613
10181TIP3    H252035   4.325   1.448  16.948  0.6893 -0.6966  0.3221
10182TIP3   OH252036   0.047   1.121  15.274 -0.6680 -0.4035 -0.1105
10182TIP3    H152037   0.008   1.208  15.290 -4.0219 -1.9126  0.8310
10182TIP3    H252038   0.091   1.099  15.356  0.5106  0.4844 -0.4724
10183TIP3   OH252039   2.265   1.631   4.043  0.1754  0.1955  0.0540
10183TIP3    H152040   2.178   1.646   4.080  0.7027  3.1229  0.3141
10183TIP3    H252041   2.283   1.539   4.060 -2.7607 -0.4440  0.1803
10184TIP3   OH252042   4.019   2.054  11.290  0.0349  0.6624 -0.4246
10184TIP3    H152043   3.931   2.076  11.261  0.2544  0.2870 -1.4267
10184TIP3    H252044   4.064   2.024  11.210 -0.0120 -2.6585  0.6186
10185TIP3   OH252045   1.414   3.988  12.884 -0.1332 -0.1464 -0.3528
10185TIP3    H152046   1.385   4.033  12.963  0.5069 -0.8068  0.2699
10185TIP3    H252047   1.508   3.975  12.897  0.0814  0.2085 -1.4606
10186TIP3   OH252048   2.781   4.476  10.547  0.6711 -0.3004  0.4066
10186TIP3    H152049   2.864   4.478  10.596  0.2848  2.0645  1.0815
10186TIP3    H252050   2.775   4.387  10.514  2.2111 -1.2816  2.5489
10187TIP3   OH252051   3.080   4.422   2.737  0.6644 -0.2042 -0.2211
10187TIP3    H152052   2.992   4.459   2.737  0.6887  0.1391  3.0502
10187TIP3    H252053   3.070   4.336   2.777  1.6096 -0.8820 -1.3680
10188TIP3   OH252054   0.729   2.285  14.006 -0.6118 -0.1374  0.3045
10188TIP3    H152055   0.816   2.297  13.969 -0.1013 -1.7391  0.8986
10188TIP3    H252056   0.671   2.333  13.947  0.6227  0.7235 -0.2510
10189TIP3   OH252057   0.494   6.234   0.915  0.1270  0.6431 -0.0783
10189TIP3    H152058   0.496   6.139   0.928 -1.9998  0.3614 -1.2729
10189TIP3    H252059   0.574   6.253   0.866  2.4878  0.1170  3.2867
10190TIP3   OH252060   2.678   2.261  13.764  0.1407  0.5244  0.1219
10190TIP3    H152061   2.701   2.201  13.835 -1.7500  0.3852  0.6551
10190TIP3    H252062   2.589   2.289  13.784  0.0740  1.5597 -1.4788
10191TIP3   OH252063   2.684   0.844   0.770 -0.0915  0.1079 -0.1196
10191TIP3    H152064   2.677   0.940   0.770  0.9842  0.2232 -1.2980
10191TIP3    H252065   2.767   0.827   0.815 -0.7428 -0.3475  0.9462
10192TIP3   OH252066   5.400   5.356   1.440 -0.2963  0.4626 -0.5125
10192TIP3    H152067   5.317   5.403   1.435 -0.4494  0.0934 -1.9159
10192TIP3    H252068   5.420   5.334   1.349  1.1999  0.2946 -0.1607
10193TIP3   OH252069   4.191   3.409   5.654  0.8007 -0.1421 -0.0013
10193TIP3    H152070   4.168   3.484   5.709 -0.4523 -0.3479 -0.2120
10193TIP3    H252071   4.196   3.445   5.565  1.4839 -0.0716  0.0583
10194TIP3   OH252072   4.532   0.377   4.159 -0.2961 -0.4893 -0.3843
10194TIP3    H152073   4.515   0.333   4.076  1.2772 -1.2043 -0.3621
10194TIP3    H252074   4.477   0.331   4.222 -1.7407  0.2639 -1.0569
10195TIP3   OH252075   6.690   0.264  16.177 -0.8153  0.4294  0.6389
10195TIP3    H152076   6.616   0.226  16.131  0.1269  0.0869 -0.6463
10195TIP3    H252077   6.756   0.195  16.178 -0.1742  1.0291  0.9418
10196TIP3   OH252078   4.209   1.546  15.269  0.5967 -0.3007  0.1217
10196TIP3    H152079   4.212   1.584  15.181  0.1426  0.5255  0.4563
10196TIP3    H252080   4.154   1.468  15.260  1.0969 -0.6017 -0.4541
10197TIP3   OH252081   4.823   1.381   3.132  0.3912  0.2966  0.0425
10197TIP3    H152082   4.829   1.410   3.040 -0.4646 -0.7019 -0.3523
10197TIP3    H252083   4.788   1.457   3.178 -0.6095  0.3482 -0.7452
10198TIP3   OH252084   4.172   4.516  15.284 -0.8332 -0.1599  0.3679
10198TIP3    H152085   4.100   4.578  15.269  0.9099  1.6525 -1.0852
10198TIP3    H252086   4.248   4.557  15.241  1.0786 -1.9842  1.8202
10199TIP3   OH252087   4.040   5.770  11.837  0.1332 -0.2084 -0.6882
10199TIP3    H152088   3.945   5.755  11.838  0.1863 -0.8097  1.7458
10199TIP3    H252089   4.053   5.841  11.901  1.2557  0.5890 -1.7585
10200TIP3   OH252090   2.141   6.757  10.988  0.4203  0.6094  0.5286
10200TIP3    H152091   2.236   6.743  10.981  0.2609 -0.1503 -0.4039
10200TIP3    H252092   2.113   6.773  10.898 -0.4778 -0.1884  0.6511
10201TIP3   OH252093   5.368   5.825   5.597 -0.3286 -0.3423  0.4952
10201TIP3    H152094   5.406   5.747   5.556 -1.0540 -1.4593  1.8505
10201TIP3    H252095   5.301   5.790   5.657 -1.4031  1.3906  0.3727
10202TIP3   OH252096   5.113   4.471  15.960 -0.1138  0.0297 -0.3977
10202TIP3    H152097   5.089   4.512  15.877  1.0170  1.1775 -0.1883
10202TIP3    H252098   5.042   4.409  15.977 -0.4986 -0.0442 -2.0812
10203TIP3   OH252099   6.122   0.266   3.368 -0.0006 -0.3609 -0.6767
10203TIP3    H152100   6.133   0.199   3.301  1.8916 -1.3968  0.5650
10203TIP3    H252101   6.111   0.217   3.449  0.4225  0.8265  0.1265
10204TIP3   OH252102   5.206   6.566  10.895  0.2474 -0.0849  0.3980
10204TIP3    H152103   5.197   6.479  10.933  0.8912 -1.8125 -3.0165
10204TIP3    H252104   5.296   6.569  10.862  0.0563  1.6500 -0.0654
10205TIP3   OH252105   0.265   1.410   1.359  0.2456  0.4539  0.5382
10205TIP3    H152106   0.356   1.385   1.378  1.0425  1.1997 -1.8502
10205TIP3    H252107   0.258   1.400   1.264 -2.2763  0.1954  0.7029
10206TIP3   OH252108   0.705   0.889   5.507 -0.2520  0.0213 -0.3929
10206TIP3    H152109   0.711   0.983   5.493  1.5763  0.1804  1.0168
10206TIP3    H252110   0.797   0.860   5.514 -0.7515 -1.9295 -1.1793
10207TIP3   OH252111   0.912   0.992   3.644  0.2839  0.1119  0.1109
10207TIP3    H152112   0.948   0.952   3.565 -0.4122  0.5925 -0.4612
10207TIP3    H252113   0.822   0.959   3.648  0.5091 -0.4263  1.0661
10208TIP3   OH252114   1.985   6.744   0.350  0.0334  0.2974  0.3221
10208TIP3    H152115   1.951   6.709   0.432 -2.0637 -0.4052 -0.7862
10208TIP3    H252116   2.080   6.745   0.362  0.0944 -3.4203  1.3787
10209TIP3   OH252117   0.810   2.028   5.727 -0.3485 -0.1059  0.1769
10209TIP3    H152118   0.747   2.034   5.798 -0.7003 -0.8355 -0.0632
10209TIP3    H252119   0.855   1.945   5.741  0.3974  0.2899  0.2056
10210TIP3   OH252120   2.534   5.840   4.174  0.0205 -0.3158  0.0895
10210TIP3    H152121   2.615   5.803   4.140  0.1923  0.4223 -0.3002
10210TIP3    H252122   2.512   5.911   4.115 -1.3433 -0.9974 -0.2860
10211TIP3   OH252123   0.288   6.131   5.775 -0.2367  0.6247 -0.7941
10211TIP3    H152124   0.195   6.141   5.756 -0.8103  2.6180  2.2857
10211TIP3    H252125   0.322   6.220   5.775  0.9535  0.2292  1.0849
10212TIP3   OH252126   0.246   6.161  13.104 -0.2145 -0.3516 -0.0807
10212TIP3    H152127   0.334   6.144  13.071  0.0265  0.4010  0.1627
10212TIP3    H252128   0.249   6.251  13.137 -1.1416 -0.2273 -0.2963
10213TIP3   OH252129   6.132   5.240   1.055  0.3228 -0.6837 -0.3510
10213TIP3    H152130   6.041   5.209   1.055  0.1582 -0.2805 -2.1644
10213TIP3    H252131   6.185   5.160   1.055 -0.0091 -0.9198  0.3767
10214TIP3   OH252132   3.680   3.821  12.661  0.8075 -0.1876 -0.2307
10214TIP3    H152133   3.670   3.733  12.623  2.0720 -0.3014 -0.3469
10214TIP3    H252134   3.734   3.868  12.598 -1.2820  1.2741 -1.0514
10215TIP3   OH252135   6.079   1.805  12.968  0.8101 -0.1523 -0.3490
10215TIP3    H152136   6.067   1.816  12.874 -0.2001  0.0634 -0.2017
10215TIP3    H252137   6.172   1.824  12.982  1.2365 -1.2572 -1.4476
10216TIP3   OH252138   5.362   2.741  10.988 -0.6058  0.3635 -0.5058
10216TIP3    H152139   5.379   2.680  11.060  0.8385 -0.0814 -1.1828
10216TIP3    H252140   5.289   2.795  11.019 -2.0916 -1.8301  0.0242
10217TIP3   OH252141   2.272   4.884  14.537 -0.5833  0.4532  0.3671
10217TIP3    H152142   2.288   4.961  14.591  0.6536  0.8266 -0.4863
10217TIP3    H252143   2.341   4.822  14.562  0.8483  1.1265 -1.6123
10218TIP3   OH252144   0.150   3.523   5.362  0.0365 -0.0149 -0.7584
10218TIP3    H152145   0.220   3.530   5.298  0.1917  0.3314 -0.5521
10218TIP3    H252146   0.159   3.601   5.417  0.6052 -0.8643  0.3964
10219TIP3   OH252147   6.314   4.505   6.305  0.1737 -1.0209 -0.4587
10219TIP3    H152148   6.383   4.525   6.241  1.6081 -2.3773  0.6031
10219TIP3    H252149   6.289   4.415   6.286 -0.8282 -0.7701 -0.3718
10220TIP3   OH252150   0.969   1.104   1.597 -0.7662  0.6490 -0.5593
10220TIP3    H152151   1.036   1.158   1.553 -1.2651  1.6905 -0.0860
10220TIP3    H252152   0.892   1.111   1.541 -0.0586 -1.8708 -1.9618
10221TIP3   OH252153   3.098   0.262  12.147 -0.3656  0.1667 -0.3038
10221TIP3    H152154   3.079   0.321  12.220 -1.1705 -0.0115 -0.3622
10221TIP3    H252155   3.014   0.221  12.127  0.0667 -0.5591 -0.6499
10222TIP3   OH252156   2.057   1.053  14.858  0.3998 -0.5252 -0.2567
10222TIP3    H152157   2.083   1.058  14.766  0.8625  1.2747 -0.0598
10222TIP3    H252158   1.993   1.123  14.868  0.1515 -0.8808  0.7547
10223TIP3   OH252159   1.458   2.282  15.358 -0.1509  0.3813 -0.7646
10223TIP3    H152160   1.539   2.331  15.350 -0.5655  1.1102 -0.5791
10223TIP3    H252161   1.389   2.348  15.352 -0.7395 -0.2572 -1.1748
10224TIP3   OH252162   2.847   0.749  11.009 -0.2151  0.1782 -0.6433
10224TIP3    H152163   2.862   0.694  11.086 -1.1851 -0.2434 -0.7447
10224TIP3    H252164   2.904   0.825  11.023 -0.0761 -0.0806  0.2921
10225TIP3   OH252165   1.692   6.233  13.175 -0.0010  0.5310  0.2149
10225TIP3    H152166   1.623   6.166  13.181 -0.0538  0.5634 -0.0397
10225TIP3    H252167   1.770   6.190  13.212  0.2236 -0.0233 -0.8790
10226TIP3   OH252168   2.167   2.231   0.505  0.3544  0.2557 -0.4554
10226TIP3    H152169   2.262   2.221   0.511  0.2464 -0.0720  1.4921
10226TIP3    H252170   2.148   2.312   0.552 -0.4045 -0.2259  0.1038
10227TIP3   OH252171   2.651   1.372  16.600 -0.4625  0.6701  0.4363
10227TIP3    H152172   2.728   1.355  16.654 -0.2487  1.4628  0.3901
10227TIP3    H252173   2.608   1.287  16.592  1.0048 -0.0312 -0.4784
10228TIP3   OH252174   6.262   0.356  13.862 -0.4735  0.3988 -0.8679
10228TIP3    H152175   6.178   0.338  13.905 -0.9291  0.8942 -1.5215
10228TIP3    H252176   6.324   0.296  13.904 -0.4411  2.2131  1.8894
10229TIP3   OH252177   0.548   0.056  11.082 -0.2801 -0.2466 -0.1498
10229TIP3    H152178   0.532   0.151  11.083 -0.7848 -0.2753 -1.7492
10229TIP3    H252179   0.603   0.043  11.005  0.2577 -1.1974  0.3880
10230TIP3   OH252180   3.473   0.232  12.402 -0.0750 -0.2259  0.0353
10230TIP3    H152181   3.415   0.210  12.475  0.2561 -0.2656  0.2854
10230TIP3    H252182   3.424   0.205  12.324 -0.4748 -0.0843  0.2327
10231TIP3   OH252183   0.633   4.836  13.982  0.0731 -0.3619  0.3336
10231TIP3    H152184   0.724   4.826  13.951 -0.3256 -1.8455 -0.4614
10231TIP3    H252185   0.616   4.930  13.977  0.5269 -0.3496 -2.6285
10232TIP3   OH252186   2.450   5.901   2.316 -0.0874 -0.3434 -0.1598
10232TIP3    H152187   2.484   5.960   2.383 -1.2566 -1.5302  1.5590
10232TIP3    H252188   2.362   5.933   2.297 -0.0254 -0.4362 -0.6303
10233TIP3   OH252189   5.054   3.725   4.735 -0.0625 -0.5898 -0.3042
10233TIP3    H152190   5.006   3.652   4.777 -0.6975  0.4339  0.8409
10233TIP3    H252191   5.144   3.694   4.728 -0.1117 -1.1317  1.1033
10234TIP3   OH252192   1.880   1.195  16.023 -0.0572 -0.1826  0.5241
10234TIP3    H152193   1.831   1.180  15.943 -0.6981 -1.4267  1.1112
10234TIP3    H252194   1.860   1.286  16.047 -1.0153 -0.2502  0.0421
10235TIP3   OH252195   4.328   1.705  14.271  0.0986 -0.0618 -0.1141
10235TIP3    H152196   4.413   1.698  14.228  1.5695  0.1551  2.5600
10235TIP3    H252197   4.321   1.796  14.297  0.6181 -0.6767  2.4854
10236TIP3   OH252198   3.789   5.394  15.289 -0.1116 -0.5544  0.8649
10236TIP3    H152199   3.884   5.406  15.294 -0.2547  0.5767  1.1401
10236TIP3    H252200   3.754   5.483  15.286 -1.0135 -0.9047 -2.3067
10237TIP3   OH252201   5.764   5.372  16.932 -0.6466 -0.2936 -0.4377
10237TIP3    H152202   5.842   5.332  16.894 -0.0871 -0.8184  1.1451
10237TIP3    H252203   5.768   5.464  16.906 -0.1684 -0.5751 -1.3831
10238TIP3   OH252204   0.805   4.879  12.561 -0.0521  0.3745  0.2199
10238TIP3    H152205   0.892   4.919  12.551  0.0325  0.1292 -0.0632
10238TIP3    H252206   0.793   4.828  12.480 -1.2800  1.9424 -0.6327
10239TIP3   OH252207   4.856   2.567  12.146  0.4385  0.4593 -1.1326
10239TIP3    H152208   4.814   2.625  12.209 -0.7600 -1.2953 -0.2284
10239TIP3    H252209   4.928   2.527  12.195  0.0283 -0.2691 -1.0981
10240TIP3   OH252210   0.911   2.572  15.919 -0.4452 -0.4356 -0.2157
10240TIP3    H152211   0.833   2.550  15.970 -0.7155 -0.6267 -0.7072
10240TIP3    H252212   0.984   2.544  15.974 -0.7387 -0.8399 -0.0239
10241TIP3   OH252213   0.196   3.968   3.334  0.2189  0.4415  0.5488
10241TIP3    H152214   0.152   3.961   3.249 -0.1526  0.6778  0.7192
10241TIP3    H252215   0.167   3.891   3.383 -1.6242  1.6127  1.3942
10242TIP3   OH252216   2.577   2.118   6.109  0.8102 -0.0636  0.3534
10242TIP3    H152217   2.500   2.149   6.157  0.3115 -1.8740  0.8290
10242TIP3    H252218   2.644   2.105   6.176 -0.1222 -3.3185  0.8345
10243TIP3   OH252219   0.708   3.326  14.198 -0.1003  0.2474  0.3980
10243TIP3    H152220   0.795   3.320  14.239  0.3902  0.2844 -0.6062
10243TIP3    H252221   0.725   3.314  14.105 -1.0253  1.5209  0.0386
10244TIP3   OH252222   1.804   5.738  16.892  0.2841  0.6213  0.5712
10244TIP3    H152223   1.865   5.683  16.941 -0.3315 -0.3551  0.2815
10244TIP3    H252224   1.718   5.707  16.918 -0.0769  1.5700  0.5145
10245TIP3   OH252225   5.307   1.855   5.072 -0.4481 -0.0384  0.4359
10245TIP3    H152226   5.213   1.838   5.059 -0.3182 -0.6853  0.3136
10245TIP3    H252227   5.350   1.801   5.005  0.0257  0.0438  0.6756
10246TIP3   OH252228   6.580   4.010  17.109  0.2308 -0.0515 -0.4923
10246TIP3    H152229   6.648   4.065  17.148  0.4663  1.2529 -2.5628
10246TIP3    H252230   6.502   4.028  17.161  1.1118 -0.4766  1.0346
10247TIP3   OH252231   6.578   2.067  12.342 -0.2707  0.3413  0.1533
10247TIP3    H152232   6.626   2.059  12.424 -0.4955 -0.8288  0.1842
10247TIP3    H252233   6.585   2.160  12.319  2.6399  0.1088 -0.2443
10248TIP3   OH252234   6.173   3.306  11.215  0.5025 -0.0983 -0.3190
10248TIP3    H152235   6.164   3.211  11.217 -0.2315 -0.0339  1.8026
10248TIP3    H252236   6.113   3.337  11.282  1.0229  1.8550 -0.6934
10249TIP3   OH252237   3.350   1.282  13.518  0.5686  0.0807  0.3268
10249TIP3    H152238   3.351   1.279  13.422  0.2751  0.5699  0.3047
10249TIP3    H252239   3.405   1.209  13.545  1.8031  0.7928 -0.2192
10250TIP3   OH252240   4.873   4.558   0.077  0.6189 -0.4530 -0.1036
10250TIP3    H152241   4.951   4.551   0.022  0.5015 -0.4523 -0.2732
10250TIP3    H252242   4.821   4.626   0.036  0.1091 -1.0768 -0.5193
10251TIP3   OH252243   6.368   4.962   5.201  0.4016  0.0597  0.0811
10251TIP3    H152244   6.334   4.996   5.284  0.6335 -1.0133  0.6323
10251TIP3    H252245   6.405   4.877   5.223 -0.0007 -0.4814 -1.2300
10252TIP3   OH252246   6.262   0.997   5.062  0.0724  0.1149  0.3233
10252TIP3    H152247   6.341   0.985   5.115  1.4473  2.7608 -0.9412
10252TIP3    H252248   6.193   1.017   5.126  0.9254 -0.0163  1.3052
10253TIP3   OH252249   6.309   3.585  12.282  0.3612  0.4005  0.1354
10253TIP3    H152250   6.368   3.552  12.350  2.4063 -0.0835 -1.7727
10253TIP3    H252251   6.295   3.510  12.224 -1.6264  0.7110  0.1509
10254TIP3   OH252252   0.895   6.508  13.329  0.4600 -0.0575 -0.1091
10254TIP3    H152253   0.864   6.499  13.419 -1.4653  0.4938 -0.6849
10254TIP3    H252254   0.987   6.482  13.333  0.2821 -0.5225  1.9174
10255TIP3   OH252255   3.770   1.334   2.983 -0.2483  0.5091  0.2510
10255TIP3    H152256   3.807   1.379   2.907  0.4696  0.1382  0.3657
10255TIP3    H252257   3.710   1.397   3.022 -2.0484  0.0852 -1.6423
10256TIP3   OH252258   6.757   4.724   0.945  0.6992 -0.4246  0.1850
10256TIP3    H152259   6.848   4.737   0.971  0.7003  0.7032 -0.3164
10256TIP3    H252260   6.706   4.760   1.017  0.6877  0.9816 -0.4948
10257TIP3   OH252261   4.364   1.820   6.703  0.4970 -0.4800 -0.3439
10257TIP3    H152262   4.432   1.761   6.736  3.0408  2.0085 -0.7673
10257TIP3    H252263   4.352   1.884   6.773 -0.7862 -0.3481 -0.6603
10258TIP3   OH252264   5.282   4.645   4.613 -0.5989 -0.7366  0.0936
10258TIP3    H152265   5.303   4.721   4.668 -0.8406  1.3524 -2.5119
10258TIP3    H252266   5.188   4.654   4.594 -0.6102 -1.6313 -0.3202
10259TIP3   OH252267   6.792   2.628  13.594  0.3432  0.3661 -0.0008
10259TIP3    H152268   6.795   2.710  13.545 -2.0984  0.1532 -0.6634
10259TIP3    H252269   6.802   2.654  13.686  1.3879  1.1822 -0.3377
10260TIP3   OH252270   3.703   5.732   1.118  0.5727  0.2437  0.1430
10260TIP3    H152271   3.718   5.821   1.086 -0.4323  1.1005  1.9065
10260TIP3    H252272   3.750   5.727   1.201  0.9266 -1.0233 -0.1014
10261TIP3   OH252273   6.229   0.004  16.234 -0.4568 -0.1212 -0.0397
10261TIP3    H152274   6.268   0.042  16.155  0.6326  1.0570  1.0259
10261TIP3    H252275   6.144  -0.030  16.204 -0.6603  1.4817 -1.4704
10262TIP3   OH252276   0.851   3.953   5.172 -0.2916 -0.4210  0.0436
10262TIP3    H152277   0.769   3.923   5.133 -0.1627 -1.0511  0.2452
10262TIP3    H252278   0.826   3.982   5.260 -0.5174  0.6521 -0.3508
10263TIP3   OH252279   3.678   6.046  12.454 -0.1077  0.2975  0.4909
10263TIP3    H152280   3.617   6.010  12.519  0.3625  1.7090  1.7821
10263TIP3    H252281   3.759   6.058  12.503  0.1174  1.8561 -0.2145
10264TIP3   OH252282   5.741   0.663   5.632  0.1355  0.0737 -0.0693
10264TIP3    H152283   5.677   0.658   5.561  0.5430  0.7157 -0.4916
10264TIP3    H252284   5.731   0.752   5.667 -0.1282 -0.2650  0.7504
10265TIP3   OH252285   1.612   0.574   2.776 -0.6435 -0.5804 -0.0920
10265TIP3    H152286   1.577   0.594   2.689 -1.4172 -0.1291  0.3082
10265TIP3    H252287   1.535   0.567   2.832 -0.2158 -1.8327  0.3808
10266TIP3   OH252288   4.440   1.128   5.107 -0.2620 -0.4903  0.0122
10266TIP3    H152289   4.466   1.117   5.198 -0.8720  1.8550  0.5575
10266TIP3    H252290   4.351   1.094   5.103 -0.0965 -0.9545  0.1773
10267TIP3   OH252291   6.578   4.787   4.143 -0.1349 -0.2657  0.5707
10267TIP3    H152292   6.654   4.811   4.196 -0.4207 -1.5407  1.6076
10267TIP3    H252293   6.587   4.692   4.129 -1.2610 -0.3482  0.2741
10268TIP3   OH252294   3.879   0.542  12.281  0.3451  0.5488  0.4985
10268TIP3    H152295   3.843   0.464  12.322  1.9097 -0.3508  0.2704
10268TIP3    H252296   3.803   0.593  12.253 -0.7503  0.3217  2.8399
10269TIP3   OH252297   1.863   3.435  11.781 -0.2034  0.0914  0.4480
10269TIP3    H152298   1.794   3.387  11.825 -0.1191  1.0298  1.6573
10269TIP3    H252299   1.869   3.518  11.828  0.3802  0.8582 -0.8999
10270TIP3   OH252300   2.945   3.228   2.391 -0.1755  0.0148  0.5978
10270TIP3    H152301   2.895   3.247   2.311  1.1407 -1.0398 -0.5295
10270TIP3    H252302   3.033   3.264   2.373 -0.5532  2.3067  2.7426
10271TIP3   OH252303   3.293   4.033   3.025 -0.9716 -0.0467  0.1406
10271TIP3    H152304   3.268   3.993   3.109  1.1697 -0.0507  0.8296
10271TIP3    H252305   3.350   4.106   3.050  1.5657 -1.4007 -1.3227
10272TIP3   OH252306   0.280   1.035   5.376 -0.8886  0.6578  0.2222
10272TIP3    H152307   0.250   1.126   5.369 -1.7230  0.4944  1.2791
10272TIP3    H252308   0.367   1.041   5.415 -0.4578  1.0358 -0.7513
10273TIP3   OH252309   1.807   3.995  13.568 -0.3923  0.0674 -0.3189
10273TIP3    H152310   1.834   3.942  13.493 -0.2437  2.1595 -1.8231
10273TIP3    H252311   1.850   3.954  13.643  1.3819 -0.7356 -1.6953
10274TIP3   OH252312   2.277   2.562  15.865 -0.0172  0.0961  0.3186
10274TIP3    H152313   2.270   2.639  15.922 -1.5506  0.9508 -0.9200
10274TIP3    H252314   2.214   2.500  15.901  0.0566  0.0667  0.3957
10275TIP3   OH252315   6.833   1.335  15.914 -0.1438 -0.2168  0.2423
10275TIP3    H152316   6.811   1.311  15.823  0.0510 -0.0725  0.1582
10275TIP3    H252317   6.916   1.292  15.931  0.0528  0.1415  0.1952
10276TIP3   OH252318   6.457   5.855  15.667  0.0165 -0.1793 -0.2339
10276TIP3    H152319   6.387   5.813  15.718 -0.2976  0.0162 -0.4965
10276TIP3    H252320   6.529   5.793  15.670  0.0242 -0.1429  0.4979
10277TIP3   OH252321   0.831   0.326   1.507 -0.0372  0.0570 -0.0395
10277TIP3    H152322   0.784   0.263   1.562  3.2578  0.2572  3.3871
10277TIP3    H252323   0.915   0.285   1.490  0.4321  1.6365 -1.8031
10278TIP3   OH252324   5.638   0.725  14.219 -0.2854  0.6308  0.2275
10278TIP3    H152325   5.569   0.784  14.250  0.0608  0.3782  1.5438
10278TIP3    H252326   5.592   0.644  14.197 -0.2522 -0.3133  3.1765
10279TIP3   OH252327   3.510   2.003   2.931  0.5599 -0.7212  0.4201
10279TIP3    H152328   3.590   1.984   2.881 -1.2567 -1.5489 -2.4413
10279TIP3    H252329   3.485   1.918   2.968  0.8316 -0.5290  1.0473
10280TIP3   OH252330   0.579   2.463  14.928 -0.0229  0.6050 -0.4129
10280TIP3    H152331   0.487   2.467  14.953  0.1680  0.4300  0.3251
10280TIP3    H252332   0.604   2.555  14.913 -0.8568  0.5186 -2.6754
10281TIP3   OH252333   2.493   4.767  14.926 -0.2470 -0.4273  0.5132
10281TIP3    H152334   2.551   4.708  14.973  0.7058  2.1128  2.8002
10281TIP3    H252335   2.405   4.739  14.951  0.0114 -2.6512 -0.8576
10282TIP3   OH252336   1.406   3.440  10.545  0.3392  0.7687 -0.1373
10282TIP3    H152337   1.449   3.358  10.571 -0.2960  0.9849  1.8130
10282TIP3    H252338   1.345   3.414  10.477  0.3545 -0.3366  0.2395
10283TIP3   OH252339   3.269   1.121   2.048  0.3802  0.2059  0.0271
10283TIP3    H152340   3.225   1.197   2.012 -0.7700  0.3445  1.6173
10283TIP3    H252341   3.200   1.071   2.092  1.1748 -1.5598 -0.6256
10284TIP3   OH252342   1.319   2.449   2.007 -0.1665  0.3683  0.5732
10284TIP3    H152343   1.322   2.465   2.101 -0.8683 -0.3543  0.7318
10284TIP3    H252344   1.228   2.424   1.990  0.4926 -1.9510  0.1383
10285TIP3   OH252345   3.461   5.706   2.987  0.0655 -0.4802 -0.6549
10285TIP3    H152346   3.397   5.742   2.925  1.2358  0.7237 -1.2048
10285TIP3    H252347   3.472   5.774   3.053  1.7787 -0.0586 -1.3215
10286TIP3   OH252348   5.407   3.329   5.572 -0.2800 -0.1143 -0.4445
10286TIP3    H152349   5.499   3.348   5.591  0.0764 -1.4954 -0.6091
10286TIP3    H252350   5.395   3.239   5.604 -1.0097 -0.6942 -2.1873
10287TIP3   OH252351   2.439   2.619  12.461 -0.2991 -0.0652  0.3560
10287TIP3    H152352   2.438   2.681  12.388  0.4376 -0.5865 -0.1056
10287TIP3    H252353   2.439   2.533  12.419  1.4467 -0.3780  0.9342
10288TIP3   OH252354   5.275   1.428  13.681 -0.8428 -0.0172 -0.0814
10288TIP3    H152355   5.225   1.399  13.605 -2.1675  0.1140  0.7143
10288TIP3    H252356   5.293   1.521  13.665  0.3390 -0.3747 -0.9819
10289TIP3   OH252357   6.832   0.799   2.907 -0.4403  0.8005  0.6785
10289TIP3    H152358   6.779   0.776   2.830 -0.9758 -0.1333  1.3111
10289TIP3    H252359   6.922   0.803   2.873 -0.6329  0.1392  0.0497
10290TIP3   OH252360   5.159   5.205  12.445 -0.1416 -0.1440  0.5769
10290TIP3    H152361   5.096   5.143  12.408  0.4873 -0.8828  0.7067
10290TIP3    H252362   5.111   5.287  12.451 -1.0297 -0.6384  0.4773
10291TIP3   OH252363   3.771   4.247  15.258  0.0084  0.0042 -0.1249
10291TIP3    H152364   3.690   4.289  15.229 -1.1454 -2.2448 -0.3590
10291TIP3    H252365   3.818   4.227  15.177 -0.1135 -0.4007 -0.0976
10292TIP3   OH252366   4.323   2.248   1.937 -0.1141  0.4346  0.8539
10292TIP3    H152367   4.341   2.156   1.914 -1.6781 -0.8097  4.0135
10292TIP3    H252368   4.239   2.266   1.895 -0.1743  0.1591  0.8533
10293TIP3   OH252369   0.506   2.340   5.610 -0.2292 -0.3147 -0.4330
10293TIP3    H152370   0.458   2.354   5.692  0.5570  1.3790 -0.2064
10293TIP3    H252371   0.598   2.337   5.636 -0.0118 -0.4622 -1.1834
10294TIP3   OH252372   1.384   1.349   2.366  0.4617 -0.4278  0.0553
10294TIP3    H152373   1.399   1.258   2.392 -2.7109 -0.1408  3.8865
10294TIP3    H252374   1.454   1.398   2.409  0.8734 -0.8591 -0.1240
10295TIP3   OH252375   6.636   0.738   5.664 -0.3811 -0.3784  0.1657
10295TIP3    H152376   6.727   0.727   5.637 -0.5395  0.2238 -0.6557
10295TIP3    H252377   6.641   0.761   5.757  0.5134  2.3226 -0.4437
10296TIP3   OH252378   3.319   3.819   4.206  0.2863  0.6608 -0.2605
10296TIP3    H152379   3.273   3.865   4.277 -0.8627 -0.5848 -0.1627
10296TIP3    H252380   3.272   3.736   4.197  1.6840 -0.0675 -1.1160
10297TIP3   OH252381   4.654   0.294   0.760 -1.0506  0.5338 -0.5996
10297TIP3    H152382   4.648   0.265   0.851 -1.1148  0.2046 -0.7068
10297TIP3    H252383   4.696   0.221   0.715  0.9255  1.5092 -0.4544
10298TIP3   OH252384   3.930   3.560   0.009  0.1043 -0.3020 -0.6195
10298TIP3    H152385   3.878   3.495   0.055 -0.0498 -0.1482 -0.5754
10298TIP3    H252386   3.970   3.512  -0.064  1.2944 -0.8188  0.3421
10299TIP3   OH252387   5.573   2.369   3.804 -0.2924 -0.6498  0.1468
10299TIP3    H152388   5.547   2.277   3.799 -1.8371 -0.2078 -0.3352
10299TIP3    H252389   5.491   2.417   3.811  0.4183  0.7806 -0.8359
10300TIP3   OH252390   5.719   6.227  12.431  0.1645 -0.0702  0.6681
10300TIP3    H152391   5.731   6.245  12.338  0.9505  1.2447  1.0004
10300TIP3    H252392   5.808   6.212  12.463  0.2167  2.0988  1.6915
10301TIP3   OH252393   6.599   3.535  12.195 -0.1187 -0.6064  0.6070
10301TIP3    H152394   6.565   3.625  12.192  2.7256  0.6862  2.2514
10301TIP3    H252395   6.580   3.505  12.283  0.2280 -1.0608  0.5316
10302TIP3   OH252396   5.877   6.672   3.689 -0.3004 -0.4766  0.8084
10302TIP3    H152397   5.870   6.746   3.749  0.4395  0.0825  0.2137
10302TIP3    H252398   5.889   6.596   3.747  4.4340  0.4573  1.4726
10303TIP3   OH252399   0.524   2.509  12.789  0.0439  0.1893 -0.9937
10303TIP3    H152400   0.443   2.459  12.780  0.9541 -1.6791  0.3213
10303TIP3    H252401   0.541   2.545  12.702 -2.4649  1.1489 -1.1630
10304TIP3   OH252402   5.728   1.906   0.589 -0.0198 -0.5316  0.7582
10304TIP3    H152403   5.687   1.979   0.542  0.6435 -0.5654  0.1061
10304TIP3    H252404   5.822   1.922   0.580  0.1506 -1.7595  0.1101
10305TIP3   OH252405   0.899   5.778   1.102 -0.1437  1.1236  0.0996
10305TIP3    H152406   0.921   5.689   1.129 -1.2546  0.6990 -0.3328
10305TIP3    H252407   0.884   5.825   1.184 -0.0128  0.7915  0.3165
10306TIP3   OH252408   2.803   3.895  14.882  0.7080 -0.6313  0.3125
10306TIP3    H152409   2.834   3.908  14.971  2.7828  1.1160 -0.5818
10306TIP3    H252410   2.709   3.878  14.891  0.4557  1.5125  2.6944
10307TIP3   OH252411   0.937   0.238   3.732 -0.2867 -0.3612  0.3817
10307TIP3    H152412   0.957   0.163   3.788 -0.1720  0.4037  1.3946
10307TIP3    H252413   0.895   0.300   3.790  0.7063  0.8527 -0.1583
10308TIP3   OH252414   5.287   5.291   4.075 -0.2325  0.0804 -0.0510
10308TIP3    H152415   5.290   5.380   4.109 -2.2404  0.2155 -0.0944
10308TIP3    H252416   5.237   5.298   3.994 -0.6512 -1.1155  0.0793
10309TIP3   OH252417   2.197   3.650  12.334 -0.1952  0.4624  0.2950
10309TIP3    H152418   2.223   3.616  12.248  0.7741 -0.7309  1.0232
10309TIP3    H252419   2.103   3.664  12.327  0.0336  1.4986 -1.3086
10310TIP3   OH252420   2.318   5.171   0.707 -0.0430  0.1471  0.2159
10310TIP3    H152421   2.407   5.148   0.734  0.0803  0.5225  0.1288
10310TIP3    H252422   2.329   5.208   0.620 -0.2941  0.1425  0.1832
10311TIP3   OH252423   5.669   3.927   5.496 -0.3714  0.2340  0.2701
10311TIP3    H152424   5.755   3.885   5.503  0.9017  2.5878 -0.0002
10311TIP3    H252425   5.615   3.865   5.447  1.4277 -0.9721 -0.2837
10312TIP3   OH252426   2.491   5.516  12.063  0.5591 -0.7761  0.1050
10312TIP3    H152427   2.520   5.525  11.972  0.4170 -0.0962  0.1204
10312TIP3    H252428   2.436   5.437  12.063  0.1159 -0.4779 -0.5189
10313TIP3   OH252429   0.410   5.281  13.793 -0.3917 -0.3279 -0.3256
10313TIP3    H152430   0.449   5.302  13.878  0.0433 -0.9755 -0.3554
10313TIP3    H252431   0.379   5.365  13.759  0.6516  0.1490 -0.1380
10314TIP3   OH252432   2.459   3.064   3.822 -0.1065 -0.2820  0.4797
10314TIP3    H152433   2.498   3.091   3.739 -0.2329  1.2115  0.8785
10314TIP3    H252434   2.497   2.978   3.840 -0.2702 -0.7485 -1.2291
10315TIP3   OH252435   0.587   5.557  11.671  0.5049  0.1254  0.6738
10315TIP3    H152436   0.573   5.546  11.577  0.7886  2.3014  0.3152
10315TIP3    H252437   0.499   5.557  11.709  0.1619  2.0759 -0.0146
10316TIP3   OH252438   5.427   6.487  12.977  0.1616 -0.0056  0.4761
10316TIP3    H152439   5.517   6.469  13.006 -0.2418 -2.1386  0.5642
10316TIP3    H252440   5.379   6.504  13.057  0.4336  1.0756  0.4334
10317TIP3   OH252441   3.828   1.337  11.741  0.2951 -0.3302  0.3403
10317TIP3    H152442   3.793   1.252  11.712 -0.7796  0.2392 -0.0720
10317TIP3    H252443   3.773   1.362  11.814  0.3188  0.2266  0.1719
10318TIP3   OH252444   3.208   3.042  13.076 -0.4490 -0.0488  0.1312
10318TIP3    H152445   3.129   3.078  13.035 -0.9930 -0.2409  0.9769
10318TIP3    H252446   3.176   2.997  13.154  0.3362 -1.3993 -0.2841
10319TIP3   OH252447   4.439   6.011   2.254 -0.5869  0.3860  0.5916
10319TIP3    H152448   4.404   6.025   2.166  2.3829  1.1095 -0.5747
10319TIP3    H252449   4.480   5.924   2.250  2.2251  1.6373  0.2068
10320TIP3   OH252450   0.821   4.499  13.641  0.2711 -0.4641  0.4855
10320TIP3    H152451   0.758   4.521  13.710 -0.1100  1.2745 -0.3542
10320TIP3    H252452   0.817   4.404  13.634 -1.8859 -0.4533  0.8268
10321TIP3   OH252453   5.344   6.115  16.890 -0.2282  0.2907  0.1189
10321TIP3    H152454   5.273   6.086  16.833 -1.6808  2.0509  0.9282
10321TIP3    H252455   5.414   6.141  16.829 -0.8863  0.0608 -0.7595
10322TIP3   OH252456   0.538   0.339   3.288  0.2675 -0.1158  0.0732
10322TIP3    H152457   0.560   0.257   3.332  0.1366 -0.6445 -0.8118
10322TIP3    H252458   0.622   0.375   3.260  0.3882  0.4534  1.1329
10323TIP3   OH252459   1.552   1.938  11.251  0.3021 -0.1822 -0.3296
10323TIP3    H152460   1.603   1.875  11.302 -0.9416 -1.5262 -0.7009
10323TIP3    H252461   1.571   1.917  11.160  0.4707  0.5003 -0.4618
10324TIP3   OH252462   2.893   0.160   5.903  0.2038  0.2582 -0.6208
10324TIP3    H152463   2.827   0.185   5.968 -0.8093 -1.3392 -0.9820
10324TIP3    H252464   2.967   0.130   5.955 -0.7389 -1.3687 -0.1323
10325TIP3   OH252465   6.503   1.490  15.623  0.5684  0.0852 -0.1954
10325TIP3    H152466   6.437   1.507  15.691  0.4076  0.4121 -0.4305
10325TIP3    H252467   6.540   1.405  15.647 -0.3404 -0.3820 -0.3891
10326TIP3   OH252468   6.781   4.452  14.867 -0.0705  0.7849  0.4200
10326TIP3    H152469   6.795   4.358  14.884 -0.5252  0.3313 -1.5103
10326TIP3    H252470   6.687   4.460  14.852  0.3206  0.9165 -2.6083
10327TIP3   OH252471   2.681   6.654  12.130  0.2171 -0.0144  0.0847
10327TIP3    H152472   2.630   6.586  12.086  0.2050 -0.1427  0.2982
10327TIP3    H252473   2.712   6.613  12.211  0.3111  0.1938  0.1555
10328TIP3   OH252474   0.188   4.060   0.020 -0.7235 -0.6280 -1.0590
10328TIP3    H152475   0.176   4.050  -0.074 -0.1940 -0.1163 -1.1868
10328TIP3    H252476   0.222   4.149   0.031 -1.8909 -0.2527 -0.2820
10329TIP3   OH252477   1.578   0.365   4.169 -0.2407 -0.4437 -0.2376
10329TIP3    H152478   1.499   0.413   4.142 -0.2582  1.4816  2.7155
10329TIP3    H252479   1.628   0.429   4.219  1.8614 -2.4180  0.3346
10330TIP3   OH252480   3.234   0.203  13.802  0.3092 -0.5384 -0.6321
10330TIP3    H152481   3.259   0.127  13.854 -0.5565 -0.0747  0.5133
10330TIP3    H252482   3.237   0.173  13.712 -0.6289 -2.1282 -0.1726
10331TIP3   OH252483   1.599   4.738  12.683 -0.2655  0.5007  0.2060
10331TIP3    H152484   1.660   4.731  12.756  0.7969 -1.7330 -0.7902
10331TIP3    H252485   1.522   4.690  12.711 -0.6135  1.2341  0.5342
10332TIP3   OH252486   2.156   1.007   2.706  0.4919 -0.4042 -0.5612
10332TIP3    H152487   2.201   0.922   2.711  0.8506 -0.2379 -0.8649
10332TIP3    H252488   2.218   1.063   2.659  0.5603  0.2238  0.2680
10333TIP3   OH252489   2.698   5.083   0.952 -0.1688  0.6788 -0.5177
10333TIP3    H152490   2.702   5.041   0.866  1.6789  0.4782 -0.3882
10333TIP3    H252491   2.761   5.155   0.946 -1.3190  1.7791  0.1248
10334TIP3   OH252492   0.155   0.616   2.340 -0.4796  0.1345  0.1414
10334TIP3    H152493   0.174   0.555   2.269 -1.1681  0.3816 -0.2624
10334TIP3    H252494   0.183   0.570   2.420  3.8694  1.2751 -0.5013
10335TIP3   OH252495   6.705   4.466   0.959  0.0995 -0.5781  0.9720
10335TIP3    H152496   6.711   4.562   0.963 -1.8879 -0.4533  2.4986
10335TIP3    H252497   6.665   4.449   0.874 -0.4889  0.0257  1.1179
10336TIP3   OH252498   2.789   4.506  14.500  0.4795  0.4505  0.0545
10336TIP3    H152499   2.854   4.436  14.488 -0.0117 -0.1415  0.7256
10336TIP3    H252500   2.715   4.479  14.447  0.2888  0.4550  0.3161
10337TIP3   OH252501   3.722   2.913  15.801 -0.3992  0.1071 -0.0353
10337TIP3    H152502   3.721   2.821  15.776 -0.0792 -0.2040  1.0535
10337TIP3    H252503   3.629   2.935  15.813 -0.5640  0.2829 -1.4955
10338TIP3   OH252504   0.360   0.035  14.118 -1.1238 -0.0880  1.0983
10338TIP3    H152505   0.413   0.070  14.046 -1.9469  0.4845  0.7539
10338TIP3    H252506   0.417   0.039  14.194 -0.6321  0.4067  0.7119
10339TIP3   OH252507   3.809   5.713   5.685  0.0539  0.1419 -0.1401
10339TIP3    H152508   3.790   5.720   5.778  0.9957 -0.5204  0.1175
10339TIP3    H252509   3.891   5.761   5.674 -0.2088  0.4748 -0.6848
10340TIP3   OH252510   3.998   6.829  13.618  0.0627  0.0350  0.0505
10340TIP3    H152511   3.997   6.797  13.528 -2.5866 -0.5722  0.2235
10340TIP3    H252512   3.926   6.892  13.622  0.9091  0.9677  1.4606
10341TIP3   OH252513   5.826   2.716  16.128 -0.0906  0.4693 -0.6606
10341TIP3    H152514   5.831   2.621  16.118 -0.0839  0.1686  1.6900
10341TIP3    H252515   5.911   2.747  16.097  0.9380 -0.5838  0.9456
10342TIP3   OH252516   1.522   5.556   3.469  0.1542  0.8351  0.5956
10342TIP3    H152517   1.453   5.512   3.420  0.5515 -0.2151  0.9434
10342TIP3    H252518   1.513   5.649   3.446 -1.2654  0.6982  0.5314
10343TIP3   OH252519   0.270   5.261  15.338 -0.1609  0.0041 -0.4565
10343TIP3    H152520   0.203   5.251  15.270 -0.1315  1.2234 -0.6995
10343TIP3    H252521   0.222   5.259  15.420 -0.3104 -0.5833 -0.5559
10344TIP3   OH252522   5.251   2.516   2.116  0.0863 -0.3527  0.0735
10344TIP3    H152523   5.310   2.474   2.179 -0.0752 -2.0475 -0.8355
10344TIP3    H252524   5.240   2.451   2.047 -1.6088  0.5383 -0.5479
10345TIP3   OH252525   1.053   4.338  15.367  0.3073  0.5283 -1.1674
10345TIP3    H152526   1.077   4.424  15.404  1.6164 -0.2343 -0.1617
10345TIP3    H252527   1.054   4.279  15.442  0.4122 -0.5615 -2.0122
10346TIP3   OH252528   2.595   3.626  13.412 -0.3115 -0.2176 -0.1048
10346TIP3    H152529   2.613   3.676  13.491 -0.0592  1.1378 -0.9831
10346TIP3    H252530   2.559   3.690  13.351  2.5659 -0.4255 -2.2213
10347TIP3   OH252531   1.309   4.082  13.853 -0.2983 -0.1375  0.1584
10347TIP3    H152532   1.379   4.028  13.891  0.7497  0.7775 -0.4134
10347TIP3    H252533   1.347   4.117  13.773 -0.6332  2.1016  0.9191
10348TIP3   OH252534   1.888   6.208   6.625  0.2210  0.3551 -0.7475
10348TIP3    H152535   1.803   6.175   6.653  0.0402  0.2912 -1.3584
10348TIP3    H252536   1.947   6.185   6.697 -0.0907 -0.4408 -0.7316
10349TIP3   OH252537   0.204   5.798   4.017  0.2123  0.6892  0.4793
10349TIP3    H152538   0.213   5.707   4.043  1.7844  1.0045  1.1515
10349TIP3    H252539   0.152   5.795   3.937 -1.1291 -0.6472  1.3396
10350TIP3   OH252540   4.885   0.474  11.290 -0.2120 -0.0509 -0.0811
10350TIP3    H152541   4.924   0.416  11.225 -1.2493  0.4748 -1.2185
10350TIP3    H252542   4.840   0.415  11.351 -0.6228 -0.5005 -0.7997
10351TIP3   OH252543   5.009   2.132  16.214 -0.8388  0.2260  0.5905
10351TIP3    H152544   4.948   2.159  16.145  0.2235 -0.1749 -0.5295
10351TIP3    H252545   4.970   2.052  16.250 -1.8614  0.9243  1.1055
10352TIP3   OH252546   0.617   1.341   5.926  0.2502  0.4263 -0.2227
10352TIP3    H152547   0.523   1.353   5.940  0.3739  0.2006  0.8504
10352TIP3    H252548   0.658   1.376   6.004  0.9402 -1.3438  0.2657
10353TIP3   OH252549   2.763   5.899  15.999 -0.3577 -0.1434  0.1419
10353TIP3    H152550   2.738   5.835  16.065 -0.5847 -1.6780 -1.3605
10353TIP3    H252551   2.859   5.894  15.996 -0.2227  1.1249  1.4587
10354TIP3   OH252552   3.398   2.923   1.569 -0.0658  0.5403 -0.7651
10354TIP3    H152553   3.468   2.862   1.594 -1.6733 -0.8604  0.5781
10354TIP3    H252554   3.378   2.970   1.650 -1.1846  0.3532 -0.9203
10355TIP3   OH252555   3.805   5.180   6.236 -0.3943 -0.0248 -0.1077
10355TIP3    H152556   3.714   5.194   6.208 -1.2707  0.9349  2.9155
10355TIP3    H252557   3.819   5.244   6.305  1.4606 -2.3436  1.8131
10356TIP3   OH252558   0.391   0.147   3.003 -0.0770 -0.2110 -0.0050
10356TIP3    H152559   0.428   0.231   3.033  1.7885 -1.4509  1.4186
10356TIP3    H252560   0.331   0.122   3.073 -2.0586  0.7361 -1.2850
10357TIP3   OH252561   5.147   1.774  10.974 -0.2721 -0.5442 -0.2192
10357TIP3    H152562   5.233   1.733  10.970  0.8112  1.6600 -2.8076
10357TIP3    H252563   5.095   1.716  11.029  2.5424 -2.5193  0.5743
10358TIP3   OH252564   6.521   5.048   0.930  0.5388 -0.1069  0.1221
10358TIP3    H152565   6.473   5.111   0.875  0.0930  0.6141  1.2945
10358TIP3    H252566   6.589   5.014   0.873 -1.4525 -1.3245 -1.7095
10359TIP3   OH252567   4.536   0.887   1.157  0.4456 -0.1663 -0.3671
10359TIP3    H152568   4.576   0.935   1.084 -0.3046  1.0505 -0.0083
10359TIP3    H252569   4.600   0.820   1.179  2.1330  1.4652 -0.0525
10360TIP3   OH252570   2.134   6.586   5.730 -0.5095  0.1158  0.6344
10360TIP3    H152571   2.133   6.513   5.668  0.6627  0.0137  0.7105
10360TIP3    H252572   2.148   6.545   5.815 -1.2411  0.3263  0.8596
10361TIP3   OH252573   0.718   4.644   4.277  0.2459  0.0641 -0.1989
10361TIP3    H152574   0.801   4.692   4.280 -1.1238  2.6111  0.2364
10361TIP3    H252575   0.701   4.620   4.368  1.5120 -2.5068 -0.5540
10362TIP3   OH252576   4.994   3.154  11.860 -0.1258  0.0531 -0.4657
10362TIP3    H152577   4.955   3.126  11.778 -1.2096  0.3101 -0.0567
10362TIP3    H252578   4.928   3.211  11.900  1.2799  1.7618 -0.4445
10363TIP3   OH252579   5.234   2.631   2.867  0.1881  0.1966  0.2726
10363TIP3    H152580   5.247   2.541   2.836 -0.4961 -1.7857  4.9905
10363TIP3    H252581   5.139   2.643   2.867  0.2924  1.4318 -1.2787
10364TIP3   OH252582   0.141   1.779  13.075 -0.1519  0.4395 -0.0910
10364TIP3    H152583   0.226   1.811  13.044  0.5911 -0.1812  1.2325
10364TIP3    H252584   0.162   1.721  13.148 -1.7460  0.7027  0.6207
10365TIP3   OH252585   5.745   4.164  12.419  0.4571  0.3946 -0.1969
10365TIP3    H152586   5.819   4.159  12.480  0.9682  0.6811 -0.7717
10365TIP3    H252587   5.749   4.253  12.384  0.4453  0.1085 -0.9588
10366TIP3   OH252588   5.975   0.988  12.593 -0.1202  0.2550 -0.3300
10366TIP3    H152589   5.987   1.048  12.667 -0.1657  0.1396 -0.2276
10366TIP3    H252590   6.049   0.927  12.600  0.6233  1.0383 -1.1557
10367TIP3   OH252591   0.434   5.690   6.329  0.2949  0.1326  0.8110
10367TIP3    H152592   0.469   5.747   6.261 -0.8611 -0.2068 -0.1054
10367TIP3    H252593   0.500   5.621   6.339  0.7648  0.5310  0.4971
10368TIP3   OH252594   2.294   3.383   0.442  0.4538  0.3091  0.4247
10368TIP3    H152595   2.230   3.419   0.380 -0.5362 -1.6186  0.2495
10368TIP3    H252596   2.352   3.330   0.389  0.2607 -0.4826  0.9869
10369TIP3   OH252597   6.262   3.905   3.402  0.9961 -0.8595  0.3766
10369TIP3    H152598   6.287   3.878   3.490 -0.2300  1.1877  1.4227
10369TIP3    H252599   6.169   3.927   3.409  1.6636  2.8729 -0.4346
10370TIP3   OH252600   5.156   4.579  14.846  0.1185 -0.0673 -0.2467
10370TIP3    H152601   5.103   4.520  14.900  0.0830  0.2287  0.0451
10370TIP3    H252602   5.127   4.562  14.757  0.9289 -1.3345 -0.2881
10371TIP3   OH252603   6.505   5.200  12.794 -0.0097 -0.0321  0.5314
10371TIP3    H152604   6.547   5.119  12.766  0.5909  0.1009  1.0255
10371TIP3    H252605   6.538   5.215  12.883 -0.8046  0.2820  0.7892
10372TIP3   OH252606   5.760   5.128  12.131 -0.3026  0.8491  0.1556
10372TIP3    H152607   5.683   5.140  12.076  0.3198  1.4924 -0.5880
10372TIP3    H252608   5.814   5.205  12.116 -0.0987  1.0419  1.6645
10373TIP3   OH252609   0.531   1.586   4.413  0.0487  0.5491 -0.4718
10373TIP3    H152610   0.495   1.522   4.474 -0.5287 -0.0842 -1.4436
10373TIP3    H252611   0.475   1.663   4.423  0.0058  0.4765 -0.1507
10374TIP3   OH252612   0.473   0.913  11.901  0.0343 -0.0279  0.3537
10374TIP3    H152613   0.437   0.939  11.816 -0.8123 -0.0153  0.7100
10374TIP3    H252614   0.463   0.991  11.956 -1.4795 -0.7122  1.1038
10375TIP3   OH252615   3.193   2.897  16.193 -0.1928  0.1636  0.5588
10375TIP3    H152616   3.125   2.889  16.260 -1.7256  0.0401 -0.9155
10375TIP3    H252617   3.221   2.988  16.199 -0.4992  0.2229  1.1977
10376TIP3   OH252618   4.541   5.885   3.948  0.2830  0.5231 -0.2638
10376TIP3    H152619   4.458   5.838   3.947  0.3484  0.3928 -1.3936
10376TIP3    H252620   4.518   5.975   3.972 -0.1689  0.4508 -0.4261
10377TIP3   OH252621   3.063   1.920   4.127  0.0296  0.2573 -0.0592
10377TIP3    H152622   3.028   1.954   4.045  2.8199  0.8572 -1.0990
10377TIP3    H252623   3.027   1.831   4.133  1.8827 -0.8963 -3.4538
10378TIP3   OH252624   0.540   6.301   3.734 -0.6770 -0.1526  0.5981
10378TIP3    H152625   0.502   6.218   3.765  0.9507 -0.4683  1.8458
10378TIP3    H252626   0.635   6.289   3.743 -0.2674  0.9760 -1.4886
10379TIP3   OH252627   4.521   3.152  11.724  0.0357  0.6380  0.0356
10379TIP3    H152628   4.440   3.116  11.759  0.8370 -0.6644  0.6580
10379TIP3    H252629   4.587   3.131  11.791  1.3958 -0.8264 -1.6658
10380TIP3   OH252630   3.784   5.754   3.778  0.6054 -0.3526  0.6722
10380TIP3    H152631   3.805   5.674   3.729  1.2833  0.6715 -0.7884
10380TIP3    H252632   3.864   5.807   3.771  0.3524  0.2402  2.0710
10381TIP3   OH252633   5.682   4.265  16.006 -0.0775 -0.7520 -0.3854
10381TIP3    H152634   5.671   4.300  16.094  0.8724  1.3379 -1.0349
10381TIP3    H252635   5.708   4.174  16.019 -0.4110 -0.6227  1.4578
10382TIP3   OH252636   1.110   2.554  14.363  0.1275  0.5697  0.1248
10382TIP3    H152637   1.062   2.474  14.341  1.3855 -0.4133  0.8038
10382TIP3    H252638   1.150   2.582  14.281 -1.4153  1.2988 -0.4098
10383TIP3   OH252639   5.903   0.589   2.544  0.8109  0.3907  0.4144
10383TIP3    H152640   5.865   0.633   2.469  0.0435  0.7243  0.9816
10383TIP3    H252641   5.832   0.536   2.580  1.1857  0.1789  0.8631
10384TIP3   OH252642   6.025   3.242  14.022 -0.1533 -0.1273  0.2670
10384TIP3    H152643   6.113   3.263  13.992 -1.1362  3.3412 -0.7409
10384TIP3    H252644   5.998   3.168  13.968  1.4311  0.0536 -0.8412
10385TIP3   OH252645   4.087   3.526   4.025 -0.0659 -0.1203  0.3938
10385TIP3    H152646   4.009   3.502   3.976  0.1531 -0.4626  0.2077
10385TIP3    H252647   4.135   3.585   3.966 -0.6838  0.9254  0.9146
10386TIP3   OH252648   1.354   5.976  13.651  0.4399 -0.4987  0.3565
10386TIP3    H152649   1.284   5.920  13.617 -0.1477  0.6834 -0.4839
10386TIP3    H252650   1.308   6.042  13.703  0.9486  0.1346  0.0121
10387TIP3   OH252651   4.028   3.167  14.927 -0.3662 -0.0673  0.0119
10387TIP3    H152652   4.058   3.122  15.006 -0.4592  1.2652  0.8331
10387TIP3    H252653   4.046   3.105  14.856 -2.6388 -2.3797  1.2928
10388TIP3   OH252654   6.658   5.313  15.334 -0.3504  0.4483  0.0272
10388TIP3    H152655   6.631   5.351  15.250  1.2995  2.0808  0.1615
10388TIP3    H252656   6.584   5.330  15.392 -0.5086  1.6281 -0.4771
10389TIP3   OH252657   1.680   1.430   6.426 -0.1555 -0.4939  0.1273
10389TIP3    H152658   1.667   1.416   6.520 -0.4287 -0.1588  0.1396
10389TIP3    H252659   1.721   1.349   6.396 -0.6550 -0.8608  0.4135
10390TIP3   OH252660   1.031   4.586   3.455 -0.4597 -0.0862  0.1799
10390TIP3    H152661   1.086   4.541   3.391 -0.9570  0.4571 -0.6586
10390TIP3    H252662   1.091   4.646   3.499 -0.1982 -0.1432 -0.0899
10391TIP3   OH252663   4.589   0.016   2.706 -0.1860  0.2397  0.0660
10391TIP3    H152664   4.633  -0.032   2.636 -0.2521  1.1078 -0.5788
10391TIP3    H252665   4.652   0.017   2.778  0.5368  0.7668 -0.5652
10392TIP3   OH252666   5.776   3.563   1.616 -0.3386  0.0560  0.3387
10392TIP3    H152667   5.721   3.575   1.693  0.0783 -2.9173  1.2095
10392TIP3    H252668   5.842   3.499   1.643  0.3466 -0.4346 -2.2459
10393TIP3   OH252669   3.983   6.414   5.972 -0.6596  0.4287  0.5478
10393TIP3    H152670   3.978   6.504   5.939  0.0106  0.6953  1.1336
10393TIP3    H252671   3.899   6.400   6.015 -1.3520  0.2447 -0.8291
10394TIP3   OH252672   6.509   3.734  11.643  0.0296  0.0255 -0.0524
10394TIP3    H152673   6.471   3.766  11.725 -1.5105 -1.3986 -0.1590
10394TIP3    H252674   6.434   3.714  11.587  0.9794 -1.0631 -1.0122
10395TIP3   OH252675   1.707   3.169   1.794 -0.3867  0.0629  0.3594
10395TIP3    H152676   1.639   3.126   1.742 -0.3532  2.5076 -1.9142
10395TIP3    H252677   1.780   3.107   1.794 -0.7923 -0.4924 -1.6957
10396TIP3   OH252678   1.599   0.399  15.350  0.5269  0.8252 -0.3349
10396TIP3    H152679   1.567   0.358  15.269  0.9939 -0.9110  0.3109
10396TIP3    H252680   1.689   0.424  15.330 -0.0775  2.5493 -1.0580
10397TIP3   OH252681   4.280   1.799   0.540 -0.4407 -0.1707  0.3519
10397TIP3    H152682   4.232   1.797   0.622 -2.5585 -1.1331 -0.8410
10397TIP3    H252683   4.229   1.858   0.484  1.5640  1.3521  0.0237
10398TIP3   OH252684   5.876   2.622   1.533  0.0495  0.0136 -0.5077
10398TIP3    H152685   5.833   2.658   1.455 -1.7025 -0.9353 -0.0441
10398TIP3    H252686   5.810   2.564   1.572  1.6876 -1.3121  0.4282
10399TIP3   OH252687   2.694   5.139  16.798 -0.2211 -0.0072 -0.1068
10399TIP3    H152688   2.740   5.223  16.789  1.1356 -0.5781  1.0337
10399TIP3    H252689   2.614   5.150  16.747  0.4488  1.5883 -0.9020
10400TIP3   OH252690   4.278   2.116  16.227 -0.0741  0.2251  0.7531
10400TIP3    H152691   4.259   2.043  16.167 -0.0543  1.5757 -0.9748
10400TIP3    H252692   4.282   2.193  16.170 -0.7047  1.6894  2.5914
10401TIP3   OH252693   2.912   1.159   3.309 -0.0374 -0.0965 -0.0232
10401TIP3    H152694   2.828   1.150   3.263 -0.7545  1.4169  0.8940
10401TIP3    H252695   2.977   1.129   3.246 -1.2048 -0.5275 -1.0646
10402TIP3   OH252696   3.017   5.534   3.399  0.1536 -0.4836  0.1501
10402TIP3    H152697   2.966   5.489   3.332 -1.1509  1.7006 -0.4127
10402TIP3    H252698   3.105   5.540   3.362  0.5415 -3.0247  0.5165
10403TIP3   OH252699   4.526   2.319   2.932 -0.5739  0.1038  0.2353
10403TIP3    H152700   4.595   2.275   2.980 -0.8247  0.1280  0.6241
10403TIP3    H252701   4.479   2.248   2.887 -0.9048 -0.0208  0.7668
10404TIP3   OH252702   5.847   0.244  16.751 -0.3214  0.2974 -0.1383
10404TIP3    H152703   5.761   0.241  16.794  0.4646  0.1782  1.5424
10404TIP3    H252704   5.859   0.156  16.715 -0.4738 -0.0181  0.5622
10405TIP3   OH252705   6.342   6.836   0.464  0.1247 -0.3719  0.1052
10405TIP3    H152706   6.413   6.803   0.409  0.7444  0.1495  0.5790
10405TIP3    H252707   6.299   6.903   0.411  3.1903  3.0623  1.5607
10406TIP3   OH252708   3.245   5.240  12.541  0.1592  0.1004  0.0869
10406TIP3    H152709   3.187   5.316  12.531 -0.2768 -0.2716 -0.2666
10406TIP3    H252710   3.321   5.260  12.488  0.8418  1.0544  1.3719
10407TIP3   OH252711   6.286   4.389  14.168 -0.1855 -0.1339  0.2977
10407TIP3    H152712   6.331   4.437  14.238  0.8448 -1.0654  0.2806
10407TIP3    H252713   6.222   4.335  14.214  0.8374 -1.1315  0.5889
10408TIP3   OH252714   3.681   3.610   5.389  0.3045 -0.4746 -0.8599
10408TIP3    H152715   3.758   3.663   5.370 -0.1561  0.9503  0.9402
10408TIP3    H252716   3.617   3.636   5.322  0.8445 -0.4600 -1.3751
10409TIP3   OH252717   3.584   4.014   4.830 -0.6701 -0.1166  0.0478
10409TIP3    H152718   3.596   3.951   4.759 -0.5020  0.8989 -0.8590
10409TIP3    H252719   3.492   4.006   4.855 -0.5286 -1.0531  0.2787
10410TIP3   OH252720   0.568   4.454  16.971 -0.2327 -0.1027  0.2121
10410TIP3    H152721   0.539   4.506  16.896 -0.2384  0.8159  0.8337
10410TIP3    H252722   0.503   4.384  16.979 -0.8332  0.4275  0.0183
10411TIP3   OH252723   2.232   3.690  12.867  0.3290 -0.5182  0.6636
10411TIP3    H152724   2.218   3.784  12.867 -3.2618 -0.9075  1.3268
10411TIP3    H252725   2.321   3.679  12.833  0.4739  3.0149 -0.5255
10412TIP3   OH252726   3.216   1.985  13.549  0.1696  0.6780 -0.6157
10412TIP3    H152727   3.145   2.045  13.574 -0.6551 -0.7114  0.5045
10412TIP3    H252728   3.282   1.997  13.618 -0.1486  0.0590 -0.1999
10413TIP3   OH252729   5.042   6.785  11.956 -0.2230  0.1059 -0.3422
10413TIP3    H152730   5.028   6.866  12.004 -3.4082 -0.8522  0.5993
10413TIP3    H252731   4.978   6.787  11.885  1.6033 -0.3823 -2.1355
10414TIP3   OH252732   1.982   6.638  13.253  0.2508 -0.0783 -0.3732
10414TIP3    H152733   2.020   6.562  13.210 -2.1410 -1.5352 -0.0756
10414TIP3    H252734   2.021   6.639  13.340  0.8498 -0.5018 -0.6300
10415TIP3   OH252735   1.559   0.669  15.330 -0.4219 -0.4515  0.0347
10415TIP3    H152736   1.562   0.574  15.344 -0.3326 -0.3932  0.4480
10415TIP3    H252737   1.475   0.695  15.369  0.1496 -0.1838  1.1385
10416TIP3   OH252738   1.622   5.732   5.565 -0.1007  0.1323  0.1040
10416TIP3    H152739   1.593   5.642   5.579  0.0054 -0.2282 -1.7432
10416TIP3    H252740   1.603   5.749   5.472  0.3888  1.8171  0.2896
10417TIP3   OH252741   5.689   2.114  16.180  0.6329  0.3627  0.2322
10417TIP3    H152742   5.781   2.126  16.204  0.8962  0.5927 -0.8396
10417TIP3    H252743   5.689   2.117  16.084 -0.4841  0.2845  0.2209
10418TIP3   OH252744   6.153   1.225   2.048  0.5794 -0.2932  0.2185
10418TIP3    H152745   6.199   1.237   1.965 -1.2276 -1.1977 -0.9866
10418TIP3    H252746   6.182   1.299   2.102  0.9781  0.9593 -1.5958
10419TIP3   OH252747   5.190   3.570  12.774 -0.5552  0.1298  0.1321
10419TIP3    H152748   5.188   3.535  12.863 -1.6267  0.3325  0.2049
10419TIP3    H252749   5.226   3.499  12.721  1.9300  0.6671  0.9824
10420TIP3   OH252750   5.135   1.159  14.946 -0.2589 -0.2957  0.1007
10420TIP3    H152751   5.196   1.088  14.926 -1.0084 -2.1327  3.6988
10420TIP3    H252752   5.188   1.222  14.995 -0.0851  0.7631 -1.3690
10421TIP3   OH252753   4.267   4.409   3.431  0.0776 -0.5564 -0.2328
10421TIP3    H152754   4.282   4.329   3.481  1.3093 -0.6193 -0.6706
10421TIP3    H252755   4.346   4.461   3.443 -0.3510  0.2230 -0.6603
10422TIP3   OH252756   4.391   2.648   0.584 -0.1563 -0.4373  0.0877
10422TIP3    H152757   4.344   2.602   0.515  0.1753 -3.0670  1.5081
10422TIP3    H252758   4.402   2.584   0.654  0.8659  1.6565  2.0009
10423TIP3   OH252759   2.186   1.821   4.268 -0.6432 -0.2661 -0.2137
10423TIP3    H152760   2.228   1.864   4.194 -1.9229  0.0502 -0.7764
10423TIP3    H252761   2.231   1.856   4.345 -0.3824  0.6280 -0.7660
10424TIP3   OH252762   5.595   2.879  13.387 -0.0370  0.1798  0.1822
10424TIP3    H152763   5.670   2.820  13.384  0.1658  0.3702  1.1546
10424TIP3    H252764   5.626   2.960  13.347  0.6140  0.6019  1.4848
10425TIP3   OH252765   0.806   5.215  12.725 -0.5636  0.0332 -0.0297
10425TIP3    H152766   0.876   5.157  12.694 -1.8186 -0.7194 -1.6696
10425TIP3    H252767   0.800   5.283  12.658 -0.9533  0.4686  0.4449
10426TIP3   OH252768   5.630   2.871  14.568 -0.0904  0.7111 -0.2715
10426TIP3    H152769   5.564   2.861  14.637 -0.2259  0.9966 -0.3591
10426TIP3    H252770   5.595   2.938  14.511 -0.8062 -0.7265 -1.5961
10427TIP3   OH252771   3.642   4.933   4.022 -0.3460  0.4799  0.0331
10427TIP3    H152772   3.720   4.928   3.967  1.6610  0.9980  2.6078
10427TIP3    H252773   3.611   5.023   4.013 -2.1740 -0.2910 -2.7463
10428TIP3   OH252774   4.256   1.272  16.421  0.0582 -0.3194  0.5226
10428TIP3    H152775   4.254   1.181  16.393  0.7254  0.1303 -1.0946
10428TIP3    H252776   4.165   1.301  16.416 -0.1839 -0.9216  1.2102
10429TIP3   OH252777   5.951   5.951  15.896  0.0938 -0.0841  0.1332
10429TIP3    H152778   5.867   5.992  15.915  0.8871  0.4084  3.0651
10429TIP3    H252779   5.964   5.964  15.802 -2.3345  1.2479 -0.0814
10430TIP3   OH252780   6.704   1.786   1.898  0.1224 -0.0110  0.0885
10430TIP3    H152781   6.671   1.825   1.817  1.3930 -1.0710 -0.9713
10430TIP3    H252782   6.643   1.715   1.916  0.4303 -0.4346 -0.5213
10431TIP3   OH252783   4.265   5.553  13.019 -0.4829 -0.4396 -0.7354
10431TIP3    H152784   4.226   5.515  13.098  0.9106 -0.8743 -0.2434
10431TIP3    H252785   4.233   5.497  12.948 -0.5417 -0.9553 -0.3104
10432TIP3   OH252786   6.094   0.058   1.084  0.4450 -0.0289 -0.1403
10432TIP3    H152787   6.123  -0.030   1.109  0.1185 -0.3017 -0.6807
10432TIP3    H252788   6.001   0.047   1.061  0.5170  0.3614 -0.6469
10433TIP3   OH252789   0.929   5.539   1.198 -0.3298  0.2885  0.1896
10433TIP3    H152790   0.984   5.469   1.164 -0.2851  0.0503  0.7405
10433TIP3    H252791   0.914   5.516   1.290  0.5421  1.5097  0.6744
10434TIP3   OH252792   0.296   1.416  14.054 -0.6911 -0.8789  0.4149
10434TIP3    H152793   0.267   1.375  13.972  2.1473 -3.1284  0.3724
10434TIP3    H252794   0.329   1.343  14.106 -0.3562  0.7838  2.6754
10435TIP3   OH252795   1.185   0.929  11.814  0.5462  0.2370  0.0148
10435TIP3    H152796   1.127   0.926  11.738 -0.7920 -1.1873  1.0206
10435TIP3    H252797   1.265   0.885  11.785 -0.1747 -0.8237 -0.4080
10436TIP3   OH252798   0.930   1.626  16.483 -0.6781 -0.0241 -0.4218
10436TIP3    H152799   0.945   1.607  16.391  0.0856  0.9968 -0.5125
10436TIP3    H252800   0.881   1.708  16.484 -0.0201  0.3746  0.0937
10437TIP3   OH252801   6.116   5.938   5.638 -0.2777  0.0741  0.3704
10437TIP3    H152802   6.088   5.849   5.657 -2.6107  0.2123 -1.8971
10437TIP3    H252803   6.052   5.993   5.685 -0.2182  0.5015 -0.0403
10438TIP3   OH252804   5.323   1.043  15.801  0.4129 -0.1772 -0.3840
10438TIP3    H152805   5.346   1.063  15.892 -0.7679 -0.2330 -0.0599
10438TIP3    H252806   5.368   0.961  15.783  0.8695 -0.0298  0.0648
10439TIP3   OH252807   0.640   5.144  15.079 -0.0165 -0.4398  0.0796
10439TIP3    H152808   0.616   5.206  15.147  1.6396 -0.4083  0.6797
10439TIP3    H252809   0.579   5.162  15.007 -1.4346 -0.1065  1.3255
10440TIP3   OH252810   5.615   0.297  11.890  0.7576 -0.0797  0.3248
10440TIP3    H152811   5.571   0.288  11.806  1.7606  0.5374 -0.2815
10440TIP3    H252812   5.550   0.268  11.954 -0.5392  0.8162 -0.5395
10441TIP3   OH252813   5.624   6.224  12.681  0.4071 -0.7528  0.1687
10441TIP3    H152814   5.677   6.300  12.704 -1.0666  0.8288 -1.3316
10441TIP3    H252815   5.653   6.200  12.593 -0.2281 -0.8820 -0.0150
10442TIP3   OH252816   3.746   3.580   0.809  0.2955 -0.4744  0.3196
10442TIP3    H152817   3.651   3.582   0.800  0.1835 -0.1036  1.4358
10442TIP3    H252818   3.770   3.668   0.838  0.7661 -1.0576  1.8084
10443TIP3   OH252819   1.749   6.766   3.030  0.6358  0.6423 -0.0060
10443TIP3    H152820   1.793   6.733   2.951  0.9321 -0.8333  0.7364
10443TIP3    H252821   1.784   6.854   3.042  1.9833  0.1964 -0.4862
10444TIP3   OH252822   0.306   4.365   2.369 -0.0442 -0.6545  0.3803
10444TIP3    H152823   0.398   4.340   2.358  0.1690 -1.6099  3.4242
10444TIP3    H252824   0.309   4.454   2.403 -0.0529 -1.3956  2.4659
10445TIP3   OH252825   0.512   4.827   0.858 -0.4765  0.0356  0.0179
10445TIP3    H152826   0.427   4.836   0.815 -0.8849 -2.9890 -0.0698
10445TIP3    H252827   0.491   4.789   0.944  0.7283  0.0112  0.3191
10446TIP3   OH252828   5.683   5.735  12.173  0.0551  0.4486  0.2039
10446TIP3    H152829   5.728   5.796  12.114  0.7304  0.1177  0.3576
10446TIP3    H252830   5.715   5.759  12.260 -0.3599  0.4507  0.3547
10447TIP3   OH252831   4.288   1.774  12.841  0.4695 -0.3757  0.8223
10447TIP3    H152832   4.329   1.847  12.795  0.6818 -0.2338  1.2358
10447TIP3    H252833   4.355   1.742  12.902  0.4594 -1.0664  0.4800
10448TIP3   OH252834   4.052   1.484   3.617  0.0241  0.0200  0.3178
10448TIP3    H152835   4.052   1.412   3.681  1.4994 -0.3178 -0.0257
10448TIP3    H252836   4.057   1.563   3.671 -0.0335 -0.2021  0.6544
10449TIP3   OH252837   1.859   6.108  13.728 -0.4548 -0.0773  0.2234
10449TIP3    H152838   1.902   6.193  13.733 -1.1330  0.2216  1.1643
10449TIP3    H252839   1.770   6.123  13.760 -0.1423 -1.4133  1.8630
10450TIP3   OH252840   2.471   2.184   0.465 -0.7790  0.1383 -0.6826
10450TIP3    H152841   2.559   2.202   0.497  0.1056 -2.8879 -1.0940
10450TIP3    H252842   2.458   2.246   0.394  1.3648  0.1541 -1.1297
10451TIP3   OH252843   0.170   5.815   2.106  0.0449 -0.5790  0.1216
10451TIP3    H152844   0.189   5.863   2.025  0.3220 -0.9669 -0.0458
10451TIP3    H252845   0.225   5.858   2.172  0.7913 -1.0799 -0.1639
10452TIP3   OH252846   2.618   1.120  11.791  0.3783  0.5365 -0.4672
10452TIP3    H152847   2.558   1.166  11.849  0.5923  0.5809 -0.2788
10452TIP3    H252848   2.578   1.126  11.704 -2.2362 -3.2971  0.2718
10453TIP3   OH252849   5.942   5.709   6.354 -0.0336 -0.1021 -0.0103
10453TIP3    H152850   5.865   5.729   6.408  0.0263  0.3052 -0.0705
10453TIP3    H252851   5.966   5.793   6.314  1.0051 -0.0193  0.7380
10454TIP3   OH252852   1.958   5.721  15.152 -0.5663  0.1404  0.6635
10454TIP3    H152853   2.050   5.697  15.162 -0.5740 -0.2193 -0.0664
10454TIP3    H252854   1.944   5.791  15.216 -0.0381 -0.4718  1.4496
10455TIP3   OH252855   3.994   4.969   1.849  0.3131  0.0839  0.2206
10455TIP3    H152856   3.922   4.965   1.787 -0.0891  0.7937  0.6307
10455TIP3    H252857   4.007   5.062   1.865  1.6403 -0.0026 -0.2070
10456TIP3   OH252858   2.728   4.089   3.780 -0.1932  0.1342  0.3127
10456TIP3    H152859   2.666   4.026   3.744  1.1258 -1.5255  0.7832
10456TIP3    H252860   2.802   4.088   3.719 -0.7690  2.4650 -0.5312
10457TIP3   OH252861   4.442   0.934  16.561  0.4194  0.1912 -0.0246
10457TIP3    H152862   4.412   0.845  16.578 -1.4606  1.0775  1.6265
10457TIP3    H252863   4.392   0.962  16.484 -0.1580  0.3462  0.4026
10458TIP3   OH252864   2.338   2.035   1.595  0.3432 -0.5818 -0.2920
10458TIP3    H152865   2.373   1.946   1.588  0.9537 -0.2537 -1.8862
10458TIP3    H252866   2.385   2.074   1.668 -0.5542 -1.8090  1.0131
10459TIP3   OH252867   6.573   4.964  13.992  0.3275 -0.5495 -0.1372
10459TIP3    H152868   6.558   4.960  14.086  0.7393  1.1549  0.0496
10459TIP3    H252869   6.491   4.935  13.952 -0.7545  1.1089  0.7792
10460TIP3   OH252870   4.567   2.551   2.704  0.0049  0.5065  0.6405
10460TIP3    H152871   4.511   2.540   2.628 -1.2052  1.4535  1.3635
10460TIP3    H252872   4.535   2.487   2.767 -0.5889  1.3539  1.2217
10461TIP3   OH252873   0.246   4.337   1.332  0.4496 -0.2640  0.4072
10461TIP3    H152874   0.155   4.325   1.357 -0.4418  0.4505 -2.1887
10461TIP3    H252875   0.293   4.266   1.376 -0.9520  0.5493  3.4461
10462TIP3   OH252876   4.883   4.321  14.091 -0.8602 -0.2398  0.1167
10462TIP3    H152877   4.882   4.398  14.034  0.0515 -0.9565 -0.9022
10462TIP3    H252878   4.950   4.264  14.054  2.1681  0.5787  3.6702
10463TIP3   OH252879   0.861   5.831  10.166 -0.8622 -0.2543  0.1610
10463TIP3    H152880   0.879   5.836  10.260  1.3135  1.8951 -0.2669
10463TIP3    H252881   0.781   5.882  10.154 -1.2064 -0.6227  0.8232
10464TIP3   OH252882   3.991   0.629   2.815  0.0986  0.1216 -0.1600
10464TIP3    H152883   4.024   0.602   2.730  1.4596  0.5318  0.2055
10464TIP3    H252884   3.981   0.724   2.809  0.0357  0.1323  0.0746
10465TIP3   OH252885   4.122   3.772  11.016  0.4651  0.1824  0.7229
10465TIP3    H152886   4.049   3.831  10.999  0.0795 -0.2300  0.9506
10465TIP3    H252887   4.178   3.820  11.078  1.4747  1.3657 -1.0387
10466TIP3   OH252888   5.623   5.569   0.299  0.2547 -0.7336  0.1774
10466TIP3    H152889   5.682   5.612   0.237 -0.7969 -1.2701 -1.2683
10466TIP3    H252890   5.644   5.607   0.384  0.4018  1.5197 -0.8093
10467TIP3   OH252891   0.970   3.145  12.132  0.1857 -0.0603  0.0570
10467TIP3    H152892   0.981   3.050  12.139 -0.0118 -0.0037  1.4194
10467TIP3    H252893   0.969   3.162  12.038 -2.2026 -1.6874 -0.2806
10468TIP3   OH252894   6.677   4.876   2.552  0.9180 -0.3893  0.4641
10468TIP3    H152895   6.601   4.930   2.571  0.7964  0.0539 -1.1345
10468TIP3    H252896   6.650   4.787   2.571  0.3577 -0.1233  0.9211
10469TIP3   OH252897   3.984   0.576  16.068  0.4032  0.2623  0.1783
10469TIP3    H152898   3.913   0.567  16.005  0.1189 -0.2945  0.5726
10469TIP3    H252899   3.972   0.663  16.106  0.0353  0.2361  0.1215
10470TIP3   OH252900   4.257   4.475  14.496 -0.5193  0.1172 -0.0370
10470TIP3    H152901   4.205   4.523  14.560  1.7443  1.6359  0.7759
10470TIP3    H252902   4.299   4.405  14.546  0.2971  0.5541 -0.0943
10471TIP3   OH252903   0.615   4.146  14.354  0.0610  0.3043 -0.5022
10471TIP3    H152904   0.689   4.112  14.405 -0.1120  1.4927  0.5785
10471TIP3    H252905   0.648   4.226  14.314  0.8258 -1.5230 -3.9600
10472TIP3   OH252906   3.941   1.436   6.851 -0.0284  0.0263 -0.2101
10472TIP3    H152907   3.996   1.500   6.807  0.2829  0.3932  0.6831
10472TIP3    H252908   3.922   1.475   6.936  0.9110 -1.4127  0.7240
10473TIP3   OH252909   1.123   4.621  12.702 -0.2480  0.3206 -0.3772
10473TIP3    H152910   1.040   4.637  12.748  0.0295  0.1634  0.1818
10473TIP3    H252911   1.107   4.541  12.652 -0.4261  0.2710 -0.2445
10474TIP3   OH252912   2.409   6.385   1.727 -0.5752  0.0410 -0.0392
10474TIP3    H152913   2.416   6.474   1.691  1.1795 -0.0494  0.0250
10474TIP3    H252914   2.410   6.328   1.650  0.2372 -0.0070  0.0008
10475TIP3   OH252915   2.189   6.028   3.698 -0.1515  0.4284  0.0102
10475TIP3    H152916   2.117   6.091   3.700  0.4865  1.1714  0.2880
10475TIP3    H252917   2.179   5.982   3.615 -0.9942  0.4657  0.0865
10476TIP3   OH252918   0.874   4.185  11.095 -0.3903 -0.0238 -0.7588
10476TIP3    H152919   0.820   4.110  11.070  0.4368 -0.6007 -0.8617
10476TIP3    H252920   0.850   4.202  11.186  0.5063 -1.4212 -0.2256
10477TIP3   OH252921   3.997   6.341  17.005  0.2079 -0.7213 -0.5058
10477TIP3    H152922   3.923   6.361  17.063 -0.6909 -1.3879 -1.3902
10477TIP3    H252923   3.959   6.342  16.917  1.3817 -0.5423 -1.0253
10478TIP3   OH252924   1.933   0.580  11.715  0.0691 -0.7853 -0.4238
10478TIP3    H152925   1.978   0.536  11.643  3.4630 -0.9422  1.5732
10478TIP3    H252926   1.995   0.647  11.744 -2.0413  0.6296  1.0825
10479TIP3   OH252927   4.645   4.439   1.492  0.3972 -0.3500  0.3020
10479TIP3    H152928   4.648   4.345   1.478 -0.3081 -0.3057 -0.1614
10479TIP3    H252929   4.700   4.476   1.423 -0.7961 -0.3173 -0.6715
10480TIP3   OH252930   3.523   1.540   1.388  0.6515 -0.0821  0.5165
10480TIP3    H152931   3.507   1.476   1.319  2.2477 -0.1884  0.2212
10480TIP3    H252932   3.566   1.613   1.344 -2.3071  1.8692  0.5802
10481TIP3   OH252933   0.232   0.052  16.477  0.0296 -0.0101 -0.1938
10481TIP3    H152934   0.296   0.111  16.518 -0.2893 -0.3219  0.7578
10481TIP3    H252935   0.230   0.081  16.385  1.0044  0.4679 -0.0817
10482TIP3   OH252936   1.807   0.206  15.079 -0.4143  0.3418 -0.0070
10482TIP3    H152937   1.829   0.195  14.986  1.7676 -0.2942  0.5080
10482TIP3    H252938   1.797   0.116  15.111 -0.9581  0.5545  0.4232
10483TIP3   OH252939   5.468   0.723   2.913 -0.0858 -0.2088  0.0361
10483TIP3    H152940   5.431   0.647   2.958 -1.1329  0.3366  0.1195
10483TIP3    H252941   5.563   0.708   2.916 -0.2648 -1.4448  0.1540
10484TIP3   OH252942   4.310   0.144   5.482 -0.1529 -0.0485 -0.1351
10484TIP3    H152943   4.351   0.059   5.496  0.7525  0.3372 -0.3588
10484TIP3    H252944   4.314   0.187   5.567 -1.4288 -0.5590  0.2044
10485TIP3   OH252945   0.391   0.956  13.740 -0.7375 -0.2239  0.3925
10485TIP3    H152946   0.437   0.878  13.710 -0.1894  0.2189  0.0721
10485TIP3    H252947   0.407   0.958  13.835 -0.1777 -0.1269  0.2974
10486TIP3   OH252948   6.107   1.261  14.778 -0.3928  0.0706  0.2861
10486TIP3    H152949   6.046   1.188  14.774  1.0493 -1.2873  1.5092
10486TIP3    H252950   6.156   1.255  14.695 -1.5112  0.8344 -0.4539
10487TIP3   OH252951   6.134   0.711   0.087 -0.1827  0.2629  0.3076
10487TIP3    H152952   6.156   0.652   0.159 -0.6032  0.2192  0.4002
10487TIP3    H252953   6.209   0.770   0.081  1.1484 -1.4148 -0.9989
10488TIP3   OH252954   5.315   3.249   0.493 -0.5547  0.4155 -0.3571
10488TIP3    H152955   5.237   3.194   0.497 -0.7792  0.8186  1.6845
10488TIP3    H252956   5.287   3.334   0.525  0.9259  0.2780  1.4601
10489TIP3   OH252957   2.445   3.994   5.312  0.0592  0.3624  0.1086
10489TIP3    H152958   2.427   3.984   5.219 -1.3812  0.4073  0.3686
10489TIP3    H252959   2.456   4.088   5.324  1.2781  0.2759 -0.1743
10490TIP3   OH252960   0.997   4.609  12.357  0.0213 -0.3161 -0.8712
10490TIP3    H152961   0.960   4.556  12.286 -1.3577 -1.0447  0.3572
10490TIP3    H252962   1.083   4.636  12.324 -1.1767  0.6636 -3.4586
10491TIP3   OH252963   1.897   1.299   1.862  0.0098 -0.2300 -0.2196
10491TIP3    H152964   1.944   1.343   1.933  0.3022 -0.1713 -0.4451
10491TIP3    H252965   1.935   1.335   1.782  0.7422 -1.3787 -0.4184
10492TIP3   OH252966   0.994   1.684   1.705  0.1626  0.1875 -0.4565
10492TIP3    H152967   1.087   1.672   1.725  0.2462  0.4113 -0.7185
10492TIP3    H252968   0.993   1.737   1.626 -0.1671 -1.0614 -1.3105
10493TIP3   OH252969   5.156   5.086   4.857  0.2663  0.5245  0.0880
10493TIP3    H152970   5.216   5.159   4.838  1.0758 -0.3117 -0.6595
10493TIP3    H252971   5.213   5.010   4.868 -0.6574 -0.3528 -0.9365
10494TIP3   OH252972   5.963   1.473  14.702 -0.0516  0.1080 -0.6884
10494TIP3    H152973   6.030   1.537  14.677  0.4050  0.0700  0.3844
10494TIP3    H252974   6.013   1.398  14.735 -0.5884 -0.6815 -1.5859
10495TIP3   OH252975   0.891   5.817  14.368 -0.2242 -0.4821  0.0036
10495TIP3    H152976   0.966   5.875  14.385 -1.2568  0.8354  0.3048
10495TIP3    H252977   0.842   5.817  14.450 -1.2495 -0.2158 -0.5853
10496TIP3   OH252978   3.992   2.447   2.427  0.1623 -0.3981  0.1226
10496TIP3    H152979   3.955   2.461   2.339 -0.1849 -1.8552  0.0047
10496TIP3    H252980   4.086   2.452   2.414  0.1382 -1.2099 -0.4739
10497TIP3   OH252981   2.979   3.162  12.433 -0.1049 -0.2393 -0.0349
10497TIP3    H152982   2.959   3.112  12.512  1.5036  1.2580  1.4018
10497TIP3    H252983   2.910   3.229  12.430  0.4213  0.3410  0.6984
10498TIP3   OH252984   3.431   1.362  11.063 -0.2746 -0.2107 -0.0707
10498TIP3    H152985   3.365   1.431  11.048  0.4281  0.9337  1.7604
10498TIP3    H252986   3.428   1.347  11.157  1.9485 -0.2569  0.0268
10499TIP3   OH252987   0.790   4.952   1.441  0.5580  0.4541  0.0237
10499TIP3    H152988   0.861   4.897   1.474  1.2919  0.2497 -1.8016
10499TIP3    H252989   0.729   4.890   1.399  0.1032  0.7904  0.1792
10500TIP3   OH252990   5.104   6.127  14.468  0.3759  0.1970  0.2197
10500TIP3    H152991   5.043   6.200  14.459 -1.3231 -1.1522  0.2293
10500TIP3    H252992   5.074   6.062  14.404  0.5769 -1.2911  1.5621
10501TIP3   OH252993   2.917   0.775  12.339  0.5912  0.1444 -0.3597
10501TIP3    H152994   2.928   0.712  12.410  0.3747 -0.5135 -0.8967
10501TIP3    H252995   2.848   0.834  12.370  0.9438  0.2629  0.2341
10502TIP3   OH252996   2.314   5.207  15.555 -0.2760 -0.1019  0.2239
10502TIP3    H152997   2.266   5.164  15.484  2.0466  2.0922 -2.9409
10502TIP3    H252998   2.294   5.300  15.545  2.8604  0.6530  0.0707
10503TIP3   OH252999   5.142   5.783   2.246 -0.4600  0.3432  0.3177
10503TIP3    H153000   5.214   5.846   2.252 -0.2694  0.1645 -0.0902
10503TIP3    H253001   5.064   5.838   2.237 -0.4895  0.5631  1.7026
10504TIP3   OH253002   3.956   4.037  14.167  0.6927  1.2547 -0.0585
10504TIP3    H153003   3.877   4.039  14.113 -0.8893  0.5707  2.1110
10504TIP3    H253004   4.002   4.117  14.143  0.3437  0.7579 -2.7297
10505TIP3   OH253005   6.050   4.756  10.478  0.4651  0.4069  0.2132
10505TIP3    H153006   6.062   4.680  10.422  1.0769  1.1870 -0.7371
10505TIP3    H253007   5.957   4.776  10.472  0.1451 -0.7168  1.0898
10506TIP3   OH253008   2.094   4.671   1.620  0.4452  0.2951  0.0704
10506TIP3    H153009   2.092   4.742   1.683 -0.2172  0.2519  0.1069
10506TIP3    H253010   2.171   4.618   1.645 -0.8273 -0.7612  2.0102
10507TIP3   OH253011   4.300   2.352  11.246 -0.4772 -0.6987  0.0008
10507TIP3    H153012   4.254   2.376  11.166 -0.7014 -0.6463  0.1464
10507TIP3    H253013   4.324   2.435  11.286  1.7843 -0.6566 -1.2231
10508TIP3   OH253014   3.056   3.770   3.781 -0.0578 -0.2345 -0.0487
10508TIP3    H153015   3.011   3.825   3.846  2.5145  2.1378 -0.0573
10508TIP3    H253016   3.072   3.687   3.826  0.7876  0.9983  2.0953
10509TIP3   OH253017   0.583   2.142   5.884  0.2480  0.4731 -0.3567
10509TIP3    H153018   0.529   2.213   5.849 -0.8326 -1.2166 -2.3871
10509TIP3    H253019   0.562   2.140   5.978  0.2994  2.7586 -0.2525
10510TIP3   OH253020   2.352   0.139   4.993  0.6344 -0.1939 -0.3459
10510TIP3    H153021   2.318   0.050   5.000 -3.8170  1.3160  0.7317
10510TIP3    H253022   2.355   0.170   5.084  0.4904  1.2617 -0.8211
10511TIP3   OH253023   5.039   5.880   5.696 -0.0478 -0.3772  0.1044
10511TIP3    H153024   5.055   5.964   5.653 -2.3365 -0.3411 -0.8363
10511TIP3    H253025   5.043   5.816   5.625  2.6906 -1.2792  0.9671
10512TIP3   OH253026   1.352   6.417   4.195  0.3232  0.7219 -0.3348
10512TIP3    H153027   1.308   6.334   4.176  0.9919  0.2359  0.1907
10512TIP3    H253028   1.408   6.432   4.118 -0.4598  1.1555 -0.8362
10513TIP3   OH253029   5.977   5.806   3.878 -0.5840 -0.0937 -0.0452
10513TIP3    H153030   6.006   5.885   3.922 -0.5886  0.4463 -0.9810
10513TIP3    H253031   6.045   5.741   3.897  1.1604  1.0591 -1.9537
10514TIP3   OH253032   3.527   1.820   2.063 -0.4094  0.1441  0.1207
10514TIP3    H153033   3.448   1.860   2.099 -0.7470 -1.7880  1.6734
10514TIP3    H253034   3.497   1.736   2.027  1.1106 -1.3804  2.1763
10515TIP3   OH253035   6.495   2.698   4.498 -0.1436 -0.6033  0.0187
10515TIP3    H153036   6.567   2.677   4.439  1.6152  0.7983  1.5088
10515TIP3    H253037   6.534   2.758   4.563 -2.9442  1.2504  0.1967
10516TIP3   OH253038   1.114   3.717  12.547 -0.0039 -0.1758 -0.2488
10516TIP3    H153039   1.151   3.745  12.630 -2.3484  1.8450  0.2231
10516TIP3    H253040   1.190   3.704  12.490  1.6232 -1.2111  2.0251
10517TIP3   OH253041   3.201   5.422   5.883  0.1239  0.1457 -1.1118
10517TIP3    H153042   3.246   5.339   5.871  0.6616  0.1368  0.6020
10517TIP3    H253043   3.128   5.402   5.942 -0.4433  0.6739 -1.6208
10518TIP3   OH253044   4.683   6.212  16.612  0.3429 -0.1578  0.4682
10518TIP3    H153045   4.590   6.236  16.604  0.1767 -0.6180  0.9373
10518TIP3    H253046   4.727   6.293  16.637  0.2555  0.3418 -0.9309
10519TIP3   OH253047   5.517   6.112  11.097 -0.1467 -0.0094  0.3489
10519TIP3    H153048   5.508   6.186  11.037 -0.7567 -0.9559 -0.7777
10519TIP3    H253049   5.439   6.059  11.081 -0.3261 -0.2894  2.0237
10520TIP3   OH253050   0.367   5.866   5.739  0.0012  0.2043 -0.2477
10520TIP3    H153051   0.459   5.895   5.742 -0.2218  0.8712  2.6393
10520TIP3    H253052   0.317   5.941   5.772 -1.6384 -0.1602 -1.7397
10521TIP3   OH253053   1.957   3.982   4.959  0.5732  0.2688 -0.0756
10521TIP3    H153054   2.024   3.978   4.890  1.1499  0.9799  0.4364
10521TIP3    H253055   2.007   3.995   5.040 -0.1107 -0.3933  0.4627
10522TIP3   OH253056   0.154   3.534   5.007  0.0770 -0.2499  0.1067
10522TIP3    H153057   0.166   3.588   4.929 -0.9983  0.6697  0.5457
10522TIP3    H253058   0.204   3.580   5.076 -1.1412  0.4294  0.5680
10523TIP3   OH253059   2.387   1.874   0.596 -0.0322  0.0072 -0.0974
10523TIP3    H153060   2.298   1.909   0.603 -0.1684 -0.6220  1.8869
10523TIP3    H253061   2.440   1.948   0.566 -0.6626  1.3669  1.9728
10524TIP3   OH253062   2.678   4.919  11.467  0.0500 -0.5894  0.0698
10524TIP3    H153063   2.736   4.911  11.543 -0.7196  0.4334  0.7913
10524TIP3    H253064   2.590   4.918  11.504 -0.3106  1.7526 -0.5883
10525TIP3   OH253065   4.376   3.115   1.737 -0.1609  0.5326 -0.4625
10525TIP3    H153066   4.449   3.170   1.762 -1.2956  1.5331  0.7661
10525TIP3    H253067   4.416   3.031   1.712  1.3173  0.7867  0.9445
10526TIP3   OH253068   2.599   2.120  10.759  0.1235 -0.4314  0.2081
10526TIP3    H153069   2.626   2.115  10.668 -1.0847 -3.0472 -0.0884
10526TIP3    H253070   2.550   2.040  10.774  0.3254 -0.0993  3.1971
10527TIP3   OH253071   3.952   2.968   3.160  0.7347  0.1359  0.1684
10527TIP3    H153072   3.966   2.874   3.158 -0.8594 -0.1270 -0.5910
10527TIP3    H253073   3.932   2.988   3.251  2.3829 -0.0143  0.5921
10528TIP3   OH253074   1.980   2.920   0.096  0.0715  0.6678 -0.0595
10528TIP3    H153075   1.945   2.887   0.178 -0.8051  2.1648  0.1977
10528TIP3    H253076   2.037   2.993   0.121  1.7180 -0.3655 -0.6363
10529TIP3   OH253077   1.062   2.521  11.363 -0.2981  0.4166 -0.5563
10529TIP3    H153078   1.018   2.585  11.420  2.0300  0.5693  1.2340
10529TIP3    H253079   1.101   2.574  11.293 -0.9909  0.5563 -0.8414
10530TIP3   OH253080   6.235   3.425  14.896 -0.0668 -0.0135  0.1124
10530TIP3    H153081   6.277   3.340  14.882  0.7503  0.6978 -2.3547
10530TIP3    H253082   6.153   3.420  14.846 -0.1761  0.5178  0.2325
10531TIP3   OH253083   3.310   4.297   3.308  0.4991  0.4949 -0.1171
10531TIP3    H153084   3.347   4.234   3.370  0.3266 -1.0936 -1.5545
10531TIP3    H253085   3.371   4.295   3.234 -1.0997 -0.3156 -1.4723
10532TIP3   OH253086   3.142   6.513   3.662  0.0169  0.2629 -0.2931
10532TIP3    H153087   3.130   6.484   3.752  2.5340 -0.8162 -0.2065
10532TIP3    H253088   3.135   6.608   3.666 -1.1381  0.1533  0.7952
10533TIP3   OH253089   5.490   5.191   5.967  0.3492  0.4606  0.1593
10533TIP3    H153090   5.510   5.118   5.908  0.6080 -0.2973  1.1634
10533TIP3    H253091   5.396   5.203   5.959 -0.1914 -1.8328  1.9963
10534TIP3   OH253092   6.084   6.261   1.304 -0.1843  0.3973 -0.3839
10534TIP3    H153093   6.129   6.205   1.240  0.4173  0.2083  0.1842
10534TIP3    H253094   6.095   6.215   1.387  0.4665  1.4343  0.1288
10535TIP3   OH253095   3.074   3.801  14.395  0.5779 -0.2256  0.1890
10535TIP3    H153096   3.011   3.868  14.422  1.0684  0.0552  0.6463
10535TIP3    H253097   3.041   3.720  14.433  1.6682  0.2791  2.3575
10536TIP3   OH253098   4.740   4.854   2.002  0.1744 -0.1809 -0.4864
10536TIP3    H153099   4.651   4.826   1.979 -1.2886  3.4454  0.0810
10536TIP3    H253100   4.777   4.885   1.920  0.8149 -1.3187 -0.6457
10537TIP3   OH253101   0.678   1.362  13.515  0.0706  0.2773  0.6425
10537TIP3    H153102   0.690   1.293  13.580 -1.3299  1.2890  2.0517
10537TIP3    H253103   0.586   1.353  13.488  0.3624  0.5131 -0.4793
10538TIP3   OH253104   0.550   2.121  15.762  0.3992 -0.2149  0.5672
10538TIP3    H153105   0.630   2.073  15.781 -0.5987 -2.6644 -0.8850
10538TIP3    H253106   0.485   2.084  15.822 -0.7344 -1.8967 -1.5471
10539TIP3   OH253107   0.317   4.933  16.473 -0.5950 -0.0531 -0.1209
10539TIP3    H153108   0.378   4.876  16.520 -0.5349 -0.2565 -0.4405
10539TIP3    H253109   0.249   4.953  16.537  0.2868  0.9565  0.5372
10540TIP3   OH253110   2.083   0.706   2.404 -0.4310 -0.1808 -0.0331
10540TIP3    H153111   2.040   0.655   2.336  0.5595 -1.9254  0.5762
10540TIP3    H253112   2.031   0.786   2.411 -2.2893 -1.2640 -0.7623
10541TIP3   OH253113   6.577   3.283   1.196  0.8640  0.1211 -0.0075
10541TIP3    H153114   6.652   3.339   1.217  1.2107 -0.3331 -0.0289
10541TIP3    H253115   6.501   3.335   1.223  1.1946  0.4740  0.2652
10542TIP3   OH253116   0.962   4.889  16.261 -0.5475 -0.5136  0.0098
10542TIP3    H153117   1.033   4.865  16.201  0.4882 -0.9304  1.3444
10542TIP3    H253118   0.897   4.931  16.205  0.3402 -0.9382 -1.4098
10543TIP3   OH253119   0.253   3.977   2.759  0.3100 -0.4304 -0.2950
10543TIP3    H153120   0.267   4.072   2.762  0.6541 -0.4955  0.4954
10543TIP3    H253121   0.274   3.947   2.848  0.6282 -1.3076 -0.6560
10544TIP3   OH253122   5.111   3.331  12.038  0.2797  0.3928  0.1879
10544TIP3    H153123   5.105   3.273  11.962  1.9713 -0.3379  0.5550
10544TIP3    H253124   5.197   3.312  12.076  0.1502  1.9022  1.3546
10545TIP3   OH253125   5.956   2.933  14.693 -0.3094  0.2570 -0.0460
10545TIP3    H153126   5.976   2.840  14.703 -0.1939  0.3458  0.5720
10545TIP3    H253127   5.910   2.957  14.773 -1.4532  0.4508 -0.7263
10546TIP3   OH253128   5.301   0.011  13.032 -0.1710  0.2019  0.7816
10546TIP3    H153129   5.229  -0.028  13.082  0.3878 -2.1480 -0.1487
10546TIP3    H253130   5.378  -0.003  13.087  0.0205  0.1497  0.4970
10547TIP3   OH253131   6.672   5.337  13.799 -0.6910  0.2514  0.5762
10547TIP3    H153132   6.669   5.309  13.707 -0.3938 -1.7682  1.1387
10547TIP3    H253133   6.762   5.370  13.811 -0.8373  0.8547  0.0755
10548TIP3   OH253134   5.447   0.534   5.239 -0.1469  0.1844  0.6391
10548TIP3    H153135   5.428   0.547   5.146  0.5658  0.6770  0.5498
10548TIP3    H253136   5.425   0.442   5.256 -1.4276  0.4066  0.2807
10549TIP3   OH253137   6.496   1.696  12.488 -0.3205  0.0453 -0.4080
10549TIP3    H153138   6.506   1.732  12.576 -1.7079  0.0256 -0.2192
10549TIP3    H253139   6.416   1.737  12.454 -0.9193 -1.4376 -0.8845
10550TIP3   OH253140   4.667   3.205   0.881  0.1577  0.4407  0.0772
10550TIP3    H153141   4.721   3.243   0.951  1.9520  0.2683 -1.1384
10550TIP3    H253142   4.581   3.246   0.892  0.5327  0.8071  2.0394
10551TIP3   OH253143   3.172   6.744  13.688 -0.3177 -0.4154 -0.1449
10551TIP3    H153144   3.236   6.798  13.641 -0.9923 -0.2011 -0.8376
10551TIP3    H253145   3.110   6.717  13.621 -1.3872  0.0073  0.6454
10552TIP3   OH253146   0.618   2.612   0.443  0.3404  0.6696 -0.4651
10552TIP3    H153147   0.616   2.517   0.433 -0.6548  0.5897  0.3562
10552TIP3    H253148   0.581   2.645   0.361  0.2610  0.3346 -0.5642
10553TIP3   OH253149   5.766   3.521  12.928 -0.0903  0.0467  0.4867
10553TIP3    H153150   5.791   3.585  12.994  1.5705 -0.6916  0.6077
10553TIP3    H253151   5.671   3.511  12.939  0.0750  0.2951  2.4217
10554TIP3   OH253152   2.383   6.735  10.591 -0.4326 -0.5025  0.0881
10554TIP3    H153153   2.450   6.754  10.656 -0.7877 -0.3392  0.4123
10554TIP3    H253154   2.378   6.639  10.589 -0.8323 -0.5075  0.7422
10555TIP3   OH253155   2.786   2.516  16.606  0.6595 -0.4149 -0.0295
10555TIP3    H153156   2.837   2.597  16.603  2.6082 -1.4950  1.4228
10555TIP3    H253157   2.802   2.474  16.521 -0.9394  0.9911 -1.0778
10556TIP3   OH253158   1.585   2.530   3.193  0.6507 -0.3659  0.1927
10556TIP3    H153159   1.668   2.549   3.237  0.9390 -2.4039  0.6714
10556TIP3    H253160   1.594   2.571   3.106  0.3556  3.1234  1.6542
10557TIP3   OH253161   1.404   0.992  16.011  0.3279  0.2904 -0.4064
10557TIP3    H153162   1.498   1.011  16.011  0.5533 -0.6095  1.5709
10557TIP3    H253163   1.396   0.907  15.968  0.0614  1.5249 -2.9959
10558TIP3   OH253164   0.829   2.322  12.099 -0.1274  0.7741  0.8019
10558TIP3    H153165   0.810   2.254  12.164 -0.5704 -1.3827 -1.4398
10558TIP3    H253166   0.743   2.357  12.075 -0.3188 -0.7179 -0.8726
10559TIP3   OH253167   5.367   6.092  13.114 -0.0380  0.1034 -0.7151
10559TIP3    H153168   5.423   6.096  13.037  0.2498  1.6777 -0.4474
10559TIP3    H253169   5.280   6.119  13.083 -0.1911 -0.3591 -0.7050
10560TIP3   OH253170   0.464   3.956  14.667  0.3497  0.1407 -0.0335
10560TIP3    H153171   0.421   3.968  14.582 -1.1612  0.5696  0.7502
10560TIP3    H253172   0.405   3.998  14.729  2.0994  1.0316  1.0928
10561TIP3   OH253173   4.811   3.480  12.004  1.0455 -0.0902  0.2339
10561TIP3    H153174   4.780   3.449  11.918  1.1015 -0.6235  0.4049
10561TIP3    H253175   4.731   3.510  12.048  0.8000 -1.1781  0.5545
10562TIP3   OH253176   2.896   3.859  13.621 -0.3246  0.3938  0.1306
10562TIP3    H153177   2.959   3.890  13.556 -1.2831  0.3876 -0.8233
10562TIP3    H253178   2.845   3.937  13.644 -0.5635  0.2186  0.2045
10563TIP3   OH253179   2.947   4.318  11.558  0.3664  0.0729  0.0820
10563TIP3    H153180   2.987   4.356  11.479 -1.3309 -0.2759 -1.0092
10563TIP3    H253181   2.974   4.376  11.629  1.8042  0.5053 -0.7724
10564TIP3   OH253182   3.867   0.798   1.369  0.6323 -0.0563  0.3092
10564TIP3    H153183   3.864   0.765   1.280  1.6153  0.8544 -0.0798
10564TIP3    H253184   3.794   0.754   1.414 -0.4454  0.1691 -1.1614
10565TIP3   OH253185   0.382   6.758  11.209  0.7732  0.2085 -0.3940
10565TIP3    H153186   0.400   6.777  11.301  2.7043 -0.4645 -0.5894
10565TIP3    H253187   0.421   6.832  11.161  0.4590  0.1664 -0.7243
10566TIP3   OH253188   3.500   6.226   1.670  0.1718 -0.4088 -0.5129
10566TIP3    H153189   3.530   6.235   1.579  0.4002 -0.2049 -0.4207
10566TIP3    H253190   3.552   6.153   1.705 -0.8395 -1.3447 -0.9185
10567TIP3   OH253191   2.950   3.030  15.585  0.4712  0.4433 -0.1638
10567TIP3    H153192   3.014   2.966  15.616  1.7745  1.8647  0.2325
10567TIP3    H253193   2.987   3.115  15.611 -3.6467  1.3174  4.1551
10568TIP3   OH253194   2.352   6.796  10.312  0.6655 -0.5178 -0.1259
10568TIP3    H153195   2.446   6.798  10.297  0.6037  0.2380 -0.4503
10568TIP3    H253196   2.343   6.790  10.407  1.0390 -1.7409 -0.1545
10569TIP3   OH253197   2.943   3.740  14.724 -0.1554 -0.4524 -0.3721
10569TIP3    H153198   2.876   3.789  14.772 -0.9089  1.5172 -3.1462
10569TIP3    H253199   2.899   3.659  14.697 -1.1459  0.3472 -1.2659
10570TIP3   OH253200   5.292   4.424   5.697  0.1108  0.4714  0.7226
10570TIP3    H153201   5.262   4.474   5.772  2.9861  1.0950  1.6037
10570TIP3    H253202   5.325   4.490   5.636  0.6715 -0.1628  0.3151
10571TIP3   OH253203   4.137   4.556  12.216  0.7099  0.1909  0.7291
10571TIP3    H153204   4.124   4.521  12.127  3.5239 -1.6049  0.8822
10571TIP3    H253205   4.049   4.578  12.246 -0.3833  0.6790 -2.3905
10572TIP3   OH253206   1.319   6.852   1.340  0.4162  0.1437  0.7406
10572TIP3    H153207   1.331   6.946   1.352  0.5147  0.1525  0.5782
10572TIP3    H253208   1.297   6.842   1.248  1.4747 -0.0854  0.4968
10573TIP3   OH253209   1.827   2.949   5.569  0.0854  0.5806 -0.6258
10573TIP3    H153210   1.881   3.014   5.613  1.6435  0.2339 -1.9270
10573TIP3    H253211   1.888   2.880   5.544 -1.2998 -0.7275 -0.5169
10574TIP3   OH253212   6.263   1.724   1.708  0.4481 -0.0485  0.7675
10574TIP3    H153213   6.219   1.694   1.628 -0.7111  0.8344  1.0602
10574TIP3    H253214   6.309   1.646   1.740  0.1606 -0.6584 -0.2465
10575TIP3   OH253215   5.674   3.360   5.631  0.2108 -0.3168 -0.8858
10575TIP3    H153216   5.758   3.404   5.620  0.9254 -1.9139 -2.2339
10575TIP3    H253217   5.697   3.267   5.637 -1.3902 -0.6980 -0.1039
10576TIP3   OH253218   1.523   2.100   4.714  0.1487  0.2570  0.1884
10576TIP3    H153219   1.478   2.183   4.699 -0.9467 -0.4437 -0.5634
10576TIP3    H253220   1.456   2.033   4.699  1.0901 -0.7809  0.4396
10577TIP3   OH253221   3.448   2.574  13.718 -0.0725 -0.3759 -0.4671
10577TIP3    H153222   3.485   2.661  13.733 -2.0252  0.0328  2.9396
10577TIP3    H253223   3.461   2.559  13.624  1.6570  2.9196 -0.9208
10578TIP3   OH253224   3.982   3.198   3.730 -0.0167 -0.1455  0.1272
10578TIP3    H153225   4.022   3.126   3.778  2.0108  0.0193 -1.1929
10578TIP3    H253226   3.906   3.160   3.687 -1.0996 -0.5986  2.2930
10579TIP3   OH253227   5.833   1.882  16.461  0.0036 -0.3862  0.3220
10579TIP3    H153228   5.835   1.807  16.520 -2.5770 -1.7147 -1.1127
10579TIP3    H253229   5.847   1.958  16.518  1.6301 -1.8201  1.9643
10580TIP3   OH253230   0.551   2.182  14.216  0.1095 -0.3680  0.1380
10580TIP3    H153231   0.638   2.178  14.175 -0.2572 -0.2549 -0.6618
10580TIP3    H253232   0.529   2.275  14.215 -0.4320 -0.4953 -0.5446
10581TIP3   OH253233   6.258   0.798   4.629 -1.2239  0.5285  0.5575
10581TIP3    H153234   6.313   0.781   4.706 -0.4064  0.8011  0.0436
10581TIP3    H253235   6.236   0.711   4.597 -1.9173  0.4035  1.3318
10582TIP3   OH253236   4.877   1.280  12.428  0.6721 -0.0804 -0.2469
10582TIP3    H153237   4.960   1.275  12.382 -0.0991 -1.7491 -1.5667
10582TIP3    H253238   4.831   1.354  12.389  1.3061  0.5241  0.1315
10583TIP3   OH253239   5.890   1.146  13.320  0.0893  0.6554  0.6610
10583TIP3    H153240   5.875   1.205  13.246 -0.6228  0.6311  0.7805
10583TIP3    H253241   5.963   1.185  13.368  0.3884  0.8061  0.0925
10584TIP3   OH253242   4.630   0.110   4.312  0.5157  0.3031 -0.0638
10584TIP3    H153243   4.702   0.049   4.329  0.8356  0.8567  0.6296
10584TIP3    H253244   4.672   0.196   4.307  0.0783  0.4772 -1.0971
10585TIP3   OH253245   2.244   2.799  10.353  0.2167  0.0767 -0.4797
10585TIP3    H153246   2.319   2.788  10.294  1.0078  0.6101  0.4104
10585TIP3    H253247   2.219   2.891  10.343 -2.1782 -0.6713 -2.9028
10586TIP3   OH253248   3.424   0.462  17.026 -0.5371  0.5812 -0.0907
10586TIP3    H153249   3.381   0.404  16.964  1.6353 -1.3744  0.1004
10586TIP3    H253250   3.476   0.521  16.971  2.9605 -2.3968 -0.3503
10587TIP3   OH253251   5.397   1.676   2.662 -0.2152  0.7294 -0.3067
10587TIP3    H153252   5.442   1.734   2.601 -0.2349  2.5399  1.3050
10587TIP3    H253253   5.326   1.729   2.698 -1.3959 -0.9055 -0.1099
10588TIP3   OH253254   5.099   0.052  12.785 -1.1660  0.1722 -0.2501
10588TIP3    H153255   5.016   0.004  12.796 -0.6767 -0.2827  2.0917
10588TIP3    H253256   5.101   0.112  12.859 -0.4736  1.9159 -1.6327
10589TIP3   OH253257   0.968   5.715  16.204  0.1166 -0.3685 -0.4151
10589TIP3    H153258   0.883   5.751  16.229  1.4725  1.7824  1.5861
10589TIP3    H253259   0.969   5.627  16.242 -1.1075 -0.3418 -0.2789
10590TIP3   OH253260   2.222   1.910   0.254 -0.0558  0.5226  0.2849
10590TIP3    H153261   2.283   1.932   0.325 -0.2953  0.6888  0.4430
10590TIP3    H253262   2.138   1.945   0.284 -0.1428  0.6626 -0.1181
10591TIP3   OH253263   6.334   1.448  11.822 -0.3826  0.3564  0.2570
10591TIP3    H153264   6.250   1.491  11.807 -0.2425  0.1996 -1.1283
10591TIP3    H253265   6.353   1.464  11.914 -2.4030 -0.4494  0.8761
10592TIP3   OH253266   5.446   0.411  16.481  0.4754 -0.5005 -0.3762
10592TIP3    H153267   5.440   0.315  16.483 -0.1561 -0.5035 -1.5523
10592TIP3    H253268   5.539   0.430  16.494  0.4497 -1.2168  1.0421
10593TIP3   OH253269   5.459   6.273  10.862  0.4808  0.4090  0.1924
10593TIP3    H153270   5.368   6.260  10.888  0.1754  0.7884 -0.6230
10593TIP3    H253271   5.454   6.340  10.794  1.1484 -0.9813 -1.2925
10594TIP3   OH253272   2.601   0.932  15.689 -0.0073 -0.6095  0.4270
10594TIP3    H153273   2.584   0.856  15.744  1.8855 -0.0930  1.8061
10594TIP3    H253274   2.533   0.995  15.714 -0.8570 -1.3834  0.1235
10595TIP3   OH253275   4.658   0.042  15.876 -0.1634 -0.2541  0.0795
10595TIP3    H153276   4.710  -0.031  15.841 -0.6236 -0.1603 -0.8313
10595TIP3    H253277   4.686   0.117  15.824 -0.5350 -0.0158  0.2258
10596TIP3   OH253278   4.079   6.243   3.248 -0.6195 -0.5370  0.0444
10596TIP3    H153279   4.069   6.297   3.170 -2.1520 -0.7016  0.0940
10596TIP3    H253280   4.001   6.188   3.250 -1.4437  0.5534  2.5385
10597TIP3   OH253281   2.147   6.679   4.277  0.4719  0.0671 -0.2214
10597TIP3    H153282   2.211   6.615   4.243  1.1654 -0.5526  2.0921
10597TIP3    H253283   2.195   6.761   4.278  0.2576  0.2234 -1.2033
10598TIP3   OH253284   1.595   3.828  14.334  0.4559  0.5759  0.3119
10598TIP3    H153285   1.682   3.806  14.303  0.1286  0.9480 -0.9196
10598TIP3    H253286   1.563   3.893  14.272 -0.4408  0.9504  1.1359
10599TIP3   OH253287   1.085   0.579   0.635  0.3445 -0.4109  0.8631
10599TIP3    H153288   1.029   0.514   0.678 -0.9815  0.7598  0.9906
10599TIP3    H253289   1.064   0.571   0.542  0.2176 -0.2142  0.8737
10600TIP3   OH253290   2.042   5.415  15.481 -0.2379  0.5186  0.7278
10600TIP3    H153291   1.970   5.447  15.427  0.3264  0.1790 -0.2568
10600TIP3    H253292   2.058   5.326  15.448  0.7438  0.6546  0.8164
10601TIP3   OH253293   4.269   5.186  15.458  0.1201  0.0882 -0.4723
10601TIP3    H153294   4.289   5.184  15.365  0.5435  1.2600 -0.4257
10601TIP3    H253295   4.176   5.210  15.462 -0.0312 -0.4723 -0.6000
10602TIP3   OH253296   3.101   3.131   1.949 -0.0360  0.0751 -0.8364
10602TIP3    H153297   3.015   3.121   1.909  0.2752 -1.1791 -1.2605
10602TIP3    H253298   3.131   3.217   1.921 -1.0982  0.4829 -0.7683
10603TIP3   OH253299   4.061   0.923   4.659  0.0917  0.0081 -0.2356
10603TIP3    H153300   4.038   0.996   4.602  0.7177 -0.0858 -0.6073
10603TIP3    H253301   4.155   0.911   4.648 -0.1448 -1.4705 -0.9024
10604TIP3   OH253302   2.829   1.140   2.268 -0.9575 -0.6460  0.6193
10604TIP3    H153303   2.736   1.144   2.246 -0.9313  0.1953  0.6195
10604TIP3    H253304   2.838   1.197   2.344 -0.3463 -0.2472  0.2607
10605TIP3   OH253305   2.200   1.575  13.311 -0.6930  0.1401 -0.2157
10605TIP3    H153306   2.135   1.538  13.251 -0.6236  0.3086 -0.3934
10605TIP3    H253307   2.215   1.664  13.279 -0.6445  0.2241  0.0427
10606TIP3   OH253308   1.680   6.592   5.636  0.5721 -0.7593 -0.1254
10606TIP3    H153309   1.770   6.611   5.611  0.7129 -0.2647  0.6872
10606TIP3    H253310   1.688   6.542   5.717  0.1437 -2.7843 -1.2707
10607TIP3   OH253311   1.216   6.193  13.826  0.0372 -0.8413  0.2944
10607TIP3    H153312   1.146   6.174  13.888  0.6317 -1.5116  0.7884
10607TIP3    H253313   1.173   6.237  13.753 -1.2204 -2.8807 -0.2659
10608TIP3   OH253314   4.584   6.052  11.174  0.2187  0.4335  0.3962
10608TIP3    H153315   4.577   6.035  11.081  0.4952  1.2233  0.2189
10608TIP3    H253316   4.529   6.130  11.188 -1.2111 -0.6774  1.2030
10609TIP3   OH253317   6.188   1.007  16.845  0.8158 -0.1130 -0.1147
10609TIP3    H153318   6.183   0.926  16.795  0.3874 -0.6442  0.7590
10609TIP3    H253319   6.238   0.984  16.923 -0.4341  0.1065  0.7799
10610TIP3   OH253320   1.118   1.909  17.052  0.2942  0.1522 -0.1844
10610TIP3    H153321   1.202   1.897  17.095  0.1473  0.4903  0.2025
10610TIP3    H253322   1.139   1.922  16.960  0.5310 -1.8786 -0.4440
10611TIP3   OH253323   2.353   0.667  17.087  0.0814  0.1446  0.2745
10611TIP3    H153324   2.310   0.588  17.055 -0.4868  0.5192  0.1152
10611TIP3    H253325   2.296   0.700  17.156 -0.5505  1.3428 -0.7933
10612TIP3   OH253326   5.060   4.930  15.751  0.3814  0.1400  0.3902
10612TIP3    H153327   5.128   4.936  15.684 -0.3762  1.7737 -0.3069
10612TIP3    H253328   4.980   4.960  15.706 -0.2146  0.9554  1.9342
10613TIP3   OH253329   6.701   1.057  11.235 -0.0715  0.0975 -0.1227
10613TIP3    H153330   6.697   1.151  11.216 -0.8439 -0.0249 -0.6335
10613TIP3    H253331   6.777   1.026  11.186 -0.2513  0.3348 -0.5615
10614TIP3   OH253332   2.595   4.766  16.668  0.0410 -0.1224 -0.0266
10614TIP3    H153333   2.528   4.831  16.689 -1.1272 -1.9770  2.4886
10614TIP3    H253334   2.566   4.727  16.586 -1.2573  0.0009  0.3567
10615TIP3   OH253335   6.047   4.039   4.151 -0.0309  0.6721 -0.0924
10615TIP3    H153336   5.962   4.056   4.193 -0.0436 -0.1480  0.2322
10615TIP3    H253337   6.079   3.959   4.193  0.8418  0.8902 -0.3151
10616TIP3   OH253338   5.443   3.185  11.254 -0.2195  0.4992  0.3688
10616TIP3    H153339   5.348   3.181  11.254 -0.1995 -0.0959  0.6752
10616TIP3    H253340   5.467   3.201  11.163 -0.5852 -0.0757  0.1699
10617TIP3   OH253341   2.791   4.422   2.702 -0.4435  0.3956 -0.3893
10617TIP3    H153342   2.740   4.454   2.776  1.4067  0.5142  0.8854
10617TIP3    H253343   2.812   4.331   2.724  1.6106  0.9479  0.1361
10618TIP3   OH253344   6.745   5.628   4.062  0.0390  0.1301  0.3182
10618TIP3    H153345   6.815   5.570   4.091 -1.0114 -1.9736 -1.0826
10618TIP3    H253346   6.664   5.578   4.077 -0.9666  1.4646 -0.4019
10619TIP3   OH253347   4.936   0.089   4.367  0.2029  0.3525 -0.5645
10619TIP3    H153348   4.935   0.169   4.419 -1.4714  0.4774 -0.7439
10619TIP3    H253349   4.972   0.022   4.426 -0.8627  0.6755  0.4848
10620TIP3   OH253350   6.063   0.514  13.085 -0.1134 -0.1319  0.1547
10620TIP3    H153351   5.994   0.462  13.044  0.5602 -0.6607 -0.3461
10620TIP3    H253352   6.022   0.598  13.105 -1.3235 -0.9706  1.3157
10621TIP3   OH253353   3.421   3.342  15.664  0.0915  0.6812 -0.2865
10621TIP3    H153354   3.467   3.359  15.582 -1.2465  1.3566 -0.9348
10621TIP3    H253355   3.448   3.254  15.689  1.6668  1.0245 -0.6571
10622TIP3   OH253356   0.133   0.142   1.527 -0.1462 -0.0791 -0.0733
10622TIP3    H153357   0.208   0.178   1.479  1.5736 -1.1139  1.6771
10622TIP3    H253358   0.127   0.194   1.607  0.1971 -1.4215  0.8699
10623TIP3   OH253359   2.267   0.956   5.996 -0.1022  0.4369  0.3244
10623TIP3    H153360   2.279   1.014   5.922 -2.9920 -1.4315 -1.8528
10623TIP3    H253361   2.172   0.944   6.002  0.1860 -1.6406  2.5862
10624TIP3   OH253362   6.444   3.288  11.184 -0.0387 -0.1380 -0.2838
10624TIP3    H153363   6.353   3.310  11.204  0.8041  2.5658  1.0577
10624TIP3    H253364   6.438   3.222  11.115 -2.9989  0.0873 -0.3652
10625TIP3   OH253365   1.617   0.229   3.219 -0.0729 -0.3533  0.3537
10625TIP3    H153366   1.578   0.308   3.256 -0.2116 -0.3315  0.1613
10625TIP3    H253367   1.636   0.174   3.296  1.2197  0.3866  0.5935
10626TIP3   OH253368   2.658   3.629  12.411  0.3839 -0.0571  0.2186
10626TIP3    H153369   2.591   3.570  12.379 -1.2321  1.8836 -0.1662
10626TIP3    H253370   2.712   3.648  12.334 -0.0645  0.2006 -0.0350
10627TIP3   OH253371   6.632   5.036  12.411 -0.0069 -0.5039  0.1883
10627TIP3    H153372   6.587   5.005  12.489  0.1109  0.7714  0.7850
10627TIP3    H253373   6.563   5.042  12.345 -0.5236  0.3728  0.7841
10628TIP3   OH253374   4.222   2.784   0.211 -0.2836 -0.3956  0.0535
10628TIP3    H153375   4.294   2.721   0.219 -1.1026 -1.5741 -1.2923
10628TIP3    H253376   4.179   2.761   0.128 -1.7526  0.7583  0.4493
10629TIP3   OH253377   0.249   4.601   3.640  0.0560  0.5123  0.4296
10629TIP3    H153378   0.218   4.686   3.670  2.1647  2.0422 -1.4222
10629TIP3    H253379   0.169   4.556   3.610 -1.1220  1.6908  1.6612
10630TIP3   OH253380   5.420   6.295  14.328  0.0029 -0.1894 -0.3346
10630TIP3    H153381   5.357   6.313  14.397 -0.2753 -0.7463 -0.4361
10630TIP3    H253382   5.447   6.204  14.343 -0.6799 -0.5976 -1.4367
10631TIP3   OH253383   3.104   5.263  16.394 -0.5544  0.7599 -0.7479
10631TIP3    H153384   3.059   5.204  16.455 -1.1326  1.4581 -0.4932
10631TIP3    H253385   3.191   5.224  16.383  0.3236  1.6707  2.1235
10632TIP3   OH253386   6.645   2.694   4.277  0.2308  0.2311  0.0337
10632TIP3    H153387   6.660   2.787   4.288  1.5677 -0.1133  1.5028
10632TIP3    H253388   6.728   2.653   4.302  0.1168 -1.3131 -1.8117
10633TIP3   OH253389   5.322   2.559  16.785 -0.1244 -0.3350  0.4397
10633TIP3    H153390   5.355   2.473  16.811  0.7025 -0.0926  0.2354
10633TIP3    H253391   5.229   2.546  16.769 -0.4942 -0.7011  2.6142
10634TIP3   OH253392   4.764   6.255   0.977 -0.1657  0.8534  0.3108
10634TIP3    H153393   4.744   6.236   0.885 -1.2681 -2.3505  1.0917
10634TIP3    H253394   4.679   6.277   1.015 -0.1933 -0.4232  1.0495
10635TIP3   OH253395   0.675   4.157  15.079  0.1547 -0.1446 -0.7030
10635TIP3    H153396   0.718   4.105  15.147 -0.5932 -2.6170 -2.0017
10635TIP3    H253397   0.647   4.092  15.014 -4.6458  1.3219 -0.4569
10636TIP3   OH253398   6.360   0.594   1.510 -0.5000 -0.1401 -0.1022
10636TIP3    H153399   6.402   0.671   1.470  1.4899 -2.1610 -2.2000
10636TIP3    H253400   6.390   0.595   1.600  0.1007  1.1325 -0.2822
10637TIP3   OH253401   0.811   3.957  12.704  0.1900 -0.0368  0.3317
10637TIP3    H153402   0.768   4.032  12.664 -1.3141 -0.4735  1.0763
10637TIP3    H253403   0.903   3.968  12.681 -0.1837  1.3415 -0.6488
10638TIP3   OH253404   6.066   5.708  13.465  0.1154  0.1105  0.0900
10638TIP3    H153405   6.162   5.703  13.458  0.1707  0.3057  0.6779
10638TIP3    H253406   6.049   5.799  13.488 -0.0498 -0.4094  2.2921
10639TIP3   OH253407   1.412   0.654   4.766 -0.1118  0.1289  0.6232
10639TIP3    H153408   1.506   0.661   4.754  0.2667 -3.4283  0.3806
10639TIP3    H253409   1.376   0.727   4.714  2.4056 -0.0781 -1.6641
10640TIP3   OH253410   0.819   5.553  15.842 -0.0047  0.4786 -0.0870
10640TIP3    H153411   0.750   5.505  15.797  0.4802  1.0565 -1.4913
10640TIP3    H253412   0.888   5.489  15.856 -0.3735  0.1674  0.3147
10641TIP3   OH253413   3.190   4.938   5.598 -0.2038 -0.2479 -0.2728
10641TIP3    H153414   3.178   5.011   5.659 -2.0962 -0.0120 -0.8730
10641TIP3    H253415   3.273   4.899   5.624 -0.3203  0.6479  1.6070
10642TIP3   OH253416   5.500   2.869   4.255  0.0786 -0.2173  0.4445
10642TIP3    H153417   5.516   2.954   4.296  0.6062 -0.5913  1.0391
10642TIP3    H253418   5.412   2.875   4.219  0.5927  1.0362 -0.6883
10643TIP3   OH253419   1.426   4.296  11.282  0.0606  0.2264  0.2102
10643TIP3    H153420   1.428   4.324  11.373  0.7335 -0.8264  0.5426
10643TIP3    H253421   1.443   4.376  11.231  0.2819  0.7095  1.0336
10644TIP3   OH253422   6.563   3.307  14.393 -0.2974  0.5147  0.0882
10644TIP3    H153423   6.550   3.327  14.300 -1.4906 -0.0705  0.1172
10644TIP3    H253424   6.645   3.351  14.415  0.9379 -0.7910 -1.6721
10645TIP3   OH253425   2.220   6.002  17.065  0.0129 -0.8377  0.7137
10645TIP3    H153426   2.198   6.088  17.029  1.0282 -0.1559  1.6614
10645TIP3    H253427   2.224   5.944  16.989 -0.9867 -0.1333  0.0933
10646TIP3   OH253428   6.024   6.168  14.279  0.5528 -0.1196 -0.6143
10646TIP3    H153429   6.061   6.243  14.232  0.3096 -0.0665 -0.7184
10646TIP3    H253430   6.019   6.098  14.215  0.7146 -0.2051 -0.5344
10647TIP3   OH253431   3.361   4.322  11.177  0.3042 -0.1075 -0.6993
10647TIP3    H153432   3.346   4.416  11.187 -0.3129 -0.1849 -0.8358
10647TIP3    H253433   3.414   4.298  11.253 -1.8238 -0.1490  0.8639
10648TIP3   OH253434   6.471   1.702   1.005  0.0891 -0.5674 -0.0071
10648TIP3    H153435   6.446   1.746   0.924  0.6254 -0.5002 -0.1380
10648TIP3    H253436   6.552   1.656   0.984  0.2811 -0.4754  0.5143
10649TIP3   OH253437   1.419   1.566  13.281 -0.2794  0.0324  0.5328
10649TIP3    H153438   1.451   1.575  13.191  1.7216  2.2186  1.3549
10649TIP3    H253439   1.340   1.621  13.284 -1.4074 -1.4678 -0.2708
10650TIP3   OH253440   2.986   6.797   1.516  0.4922  0.1439  0.3451
10650TIP3    H153441   2.932   6.719   1.501  0.0485  0.9045 -2.5292
10650TIP3    H253442   2.931   6.855   1.569 -0.9106  0.2276 -1.1528
10651TIP3   OH253443   6.712   4.794   1.721 -0.1689 -0.5079 -0.2531
10651TIP3    H153444   6.709   4.825   1.630  0.7897  2.1383  0.5476
10651TIP3    H253445   6.634   4.831   1.762  1.7483  2.3556  1.0951
10652TIP3   OH253446   4.306   1.189  12.510  0.1436 -0.0057 -0.7155
10652TIP3    H153447   4.362   1.255  12.551 -1.2618  0.2185  0.9667
10652TIP3    H253448   4.304   1.117  12.574  0.8519 -1.3037 -2.0758
10653TIP3   OH253449   3.911   4.636  15.427 -0.3246  0.1068 -0.3167
10653TIP3    H153450   3.917   4.543  15.448 -0.2373 -0.0310 -0.9252
10653TIP3    H253451   3.841   4.669  15.482  0.9702  0.1193  1.4130
10654TIP3   OH253452   5.269   0.510   4.183 -0.3959  0.3430  0.1212
10654TIP3    H153453   5.332   0.486   4.251 -2.0600  1.4197  2.1496
10654TIP3    H253454   5.222   0.428   4.166  1.8960 -0.6843 -1.9915
10655TIP3   OH253455   5.069   3.341  15.732  0.6737 -0.1935 -0.0681
10655TIP3    H153456   5.012   3.299  15.796  0.5047 -1.7323 -1.1727
10655TIP3    H253457   5.142   3.374  15.783 -0.4629  0.5175  1.1797
10656TIP3   OH253458   4.392   0.360  16.214 -0.1595  0.1476  0.6297
10656TIP3    H153459   4.310   0.311  16.219 -0.5851  0.9746  2.1253
10656TIP3    H253460   4.460   0.294  16.229 -0.7479  0.0545  3.2562
10657TIP3   OH253461   3.964   1.620   6.313 -0.0753  0.0224 -0.0879
10657TIP3    H153462   3.933   1.705   6.281  0.1881  0.7827  1.5354
10657TIP3    H253463   3.885   1.577   6.345 -0.5939 -1.4144 -3.0612
10658TIP3   OH253464   6.823   0.522  10.576 -0.2142 -0.2874  0.2951
10658TIP3    H153465   6.883   0.581  10.531 -0.2206  0.7534  1.5864
10658TIP3    H253466   6.742   0.574  10.585 -0.1906 -0.4519  1.5240
10659TIP3   OH253467   2.694   5.125  14.602 -0.3832  0.1727  0.2805
10659TIP3    H153468   2.628   5.160  14.662  0.1850  0.0755  0.9827
10659TIP3    H253469   2.758   5.082  14.660  1.1629  1.6593 -0.2194
10660TIP3   OH253470   1.425   1.028   3.713 -0.1998  0.7266  0.2503
10660TIP3    H153471   1.363   1.032   3.786  0.2294 -0.0641  0.6689
10660TIP3    H253472   1.510   1.050   3.752  0.0947 -0.0647  0.0769
10661TIP3   OH253473   4.756   5.278   2.667  0.0396 -0.3766 -0.2944
10661TIP3    H153474   4.840   5.237   2.687  0.5285  0.0779 -1.3297
10661TIP3    H253475   4.754   5.282   2.571 -1.3687 -0.7974 -0.3033
10662TIP3   OH253476   0.652   5.601   3.638  0.0254 -0.2387  0.3803
10662TIP3    H153477   0.588   5.643   3.581  1.7670  0.0489 -1.4847
10662TIP3    H253478   0.645   5.508   3.617  0.2662 -0.1965  0.1028
10663TIP3   OH253479   5.547   0.110  14.791 -0.4560 -0.4382 -0.4578
10663TIP3    H153480   5.590   0.025  14.792 -1.9773 -1.2349 -0.7360
10663TIP3    H253481   5.581   0.155  14.869  1.5370 -0.6595 -1.1411
10664TIP3   OH253482   4.498   1.831   2.402  0.2022 -0.7250  0.1175
10664TIP3    H153483   4.557   1.811   2.475  0.8437 -0.5431 -0.3493
10664TIP3    H253484   4.535   1.909   2.362 -0.0922 -0.8814 -0.4638
10665TIP3   OH253485   3.493   6.068   2.485  0.1229  0.3267 -0.6381
10665TIP3    H153486   3.402   6.075   2.459 -0.2285  3.0545  0.9531
10665TIP3    H253487   3.533   6.150   2.456  1.7332 -0.2210 -0.0993
10666TIP3   OH253488   6.660   0.067  12.527  0.4933  0.6745  0.3730
10666TIP3    H153489   6.712  -0.001  12.484  0.4218  0.6116  0.3855
10666TIP3    H253490   6.680   0.147  12.479 -0.6515  0.3602 -0.6736
10667TIP3   OH253491   3.552   2.651  12.592 -0.2645  0.2380  0.1996
10667TIP3    H153492   3.474   2.611  12.552  1.0362  0.5422 -2.9477
10667TIP3    H253493   3.564   2.733  12.545  1.4321  0.6537  1.2598
10668TIP3   OH253494   2.694   1.724  12.675  0.2100 -0.1572  0.5241
10668TIP3    H153495   2.646   1.644  12.652 -0.1865  0.4868 -1.0365
10668TIP3    H253496   2.634   1.771  12.733  0.0900 -0.5907  0.7591
10669TIP3   OH253497   5.953   3.651   2.782  0.6693 -0.5587 -0.0535
10669TIP3    H153498   5.940   3.730   2.729 -0.6796  0.8455  2.2086
10669TIP3    H253499   5.865   3.615   2.793  1.2782 -2.5229 -1.1454
10670TIP3   OH253500   1.834   1.873   5.550 -0.1781  0.4812  0.2776
10670TIP3    H153501   1.833   1.939   5.618 -0.7929  1.3285 -0.5339
10670TIP3    H253502   1.913   1.892   5.499  0.7212 -0.6343  1.1731
10671TIP3   OH253503   3.668   0.285  14.004  0.2417  0.0780 -0.3944
10671TIP3    H153504   3.743   0.321  14.050 -0.3372  0.1036  0.5684
10671TIP3    H253505   3.654   0.199  14.045 -1.3362  0.8165  0.7155
10672TIP3   OH253506   4.775   3.819  14.871  0.7822  0.1859 -0.0132
10672TIP3    H153507   4.795   3.806  14.964  0.4817  2.6816  0.4639
10672TIP3    H253508   4.680   3.820  14.867  0.7936  0.0212 -0.3617
10673TIP3   OH253509   2.857   1.459   0.243 -0.2339  0.3741 -0.2593
10673TIP3    H153510   2.949   1.458   0.216 -0.2687 -0.4791 -0.3697
10673TIP3    H253511   2.852   1.529   0.309  0.0704  1.7418 -1.6313
10674TIP3   OH253512   0.468   0.552   5.665  0.3357  0.3201 -0.3434
10674TIP3    H153513   0.385   0.513   5.640  0.6990 -0.6897 -0.0325
10674TIP3    H253514   0.534   0.506   5.612  1.0132 -1.2197  1.6709
10675TIP3   OH253515   1.983   4.724  14.975  0.0525  0.3593  0.0109
10675TIP3    H153516   1.967   4.815  15.000 -3.8965  0.2951 -1.5445
10675TIP3    H253517   1.955   4.673  15.051  1.2735  0.3592  0.4863
10676TIP3   OH253518   1.855   2.247  12.567 -0.0003 -0.2168 -1.7294
10676TIP3    H153519   1.814   2.172  12.526  0.4408 -1.8249  0.5548
10676TIP3    H253520   1.782   2.306  12.587 -0.3990 -0.1881 -3.1650
10677TIP3   OH253521   4.715   2.782   3.427 -0.0649  0.3672 -0.7255
10677TIP3    H153522   4.714   2.808   3.519  0.6130  1.9985 -1.1320
10677TIP3    H253523   4.804   2.750   3.413 -1.2539 -3.9180  0.1252
10678TIP3   OH253524   3.133   2.822   5.629  0.4579 -0.5162  0.6883
10678TIP3    H153525   3.052   2.870   5.645  0.9843  0.0568  1.7291
10678TIP3    H253526   3.203   2.887   5.638  1.0058 -0.7021 -1.4805
10679TIP3   OH253527   5.792   1.934   0.901  0.1407  0.1611 -0.0298
10679TIP3    H153528   5.764   1.860   0.847 -0.3562  1.4394 -1.5932
10679TIP3    H253529   5.804   2.006   0.839 -1.1845  1.9182  1.6463
10680TIP3   OH253530   3.123   5.911   5.147 -0.0036 -0.2385  0.0795
10680TIP3    H153531   3.109   5.976   5.078  0.7614  0.6352  0.7146
10680TIP3    H253532   3.174   5.842   5.105  1.1666  0.6656 -0.0559
10681TIP3   OH253533   5.144   3.842  11.183  0.4743 -0.2368  0.0164
10681TIP3    H153534   5.191   3.808  11.107  0.7900  0.9036 -0.3218
10681TIP3    H253535   5.175   3.932  11.192  0.2460 -0.2639  1.3416
10682TIP3   OH253536   3.329   0.404   3.435  0.4624 -0.1811 -0.0665
10682TIP3    H153537   3.314   0.389   3.528  0.7078  0.2735  0.0508
10682TIP3    H253538   3.421   0.384   3.422  0.0248 -2.0549 -0.5998
10683TIP3   OH253539   2.899   3.903  10.649  0.0463  0.0135  0.8992
10683TIP3    H153540   2.835   3.885  10.579  1.3629 -0.0902 -0.3181
10683TIP3    H253541   2.853   3.880  10.730 -1.9978  1.3651  0.2119
10684TIP3   OH253542   3.680   5.015   3.130 -0.1314 -0.0496 -0.0887
10684TIP3    H153543   3.708   5.096   3.089 -0.6999 -1.1164 -2.7769
10684TIP3    H253544   3.755   4.955   3.118 -0.6884 -0.6808 -0.4746
10685TIP3   OH253545   0.261   4.425   5.696 -0.2131  0.0684 -0.8935
10685TIP3    H153546   0.338   4.369   5.688 -0.8758 -1.0201  0.0544
10685TIP3    H253547   0.233   4.441   5.606 -0.9424 -2.4920 -1.2043
10686TIP3   OH253548   1.792   3.552  14.539 -0.1260  0.5139  0.0068
10686TIP3    H153549   1.697   3.548  14.533 -0.0829 -0.2985 -0.2677
10686TIP3    H253550   1.818   3.466  14.571  0.5441  0.5989 -0.2851
10687TIP3   OH253551   6.250   2.227   1.817 -0.0209 -0.0130  1.3171
10687TIP3    H153552   6.323   2.175   1.851 -0.9416 -1.2813  1.4326
10687TIP3    H253553   6.211   2.172   1.748 -0.1349  1.1577  0.4194
10688TIP3   OH253554   4.407   3.720   2.422  0.0942  0.2199 -0.7377
10688TIP3    H153555   4.312   3.709   2.427  0.3775 -2.0462  1.0606
10688TIP3    H253556   4.419   3.798   2.367 -2.7366 -0.3788 -2.3968
10689TIP3   OH253557   1.034   3.908  12.068 -0.1392 -0.0009 -0.0114
10689TIP3    H153558   1.102   3.897  12.001 -0.0077 -0.4761  0.1958
10689TIP3    H253559   1.076   3.959  12.137  0.4319 -1.3624  0.6958
10690TIP3   OH253560   2.828   4.378   0.457  0.0162  0.7123 -0.6011
10690TIP3    H153561   2.808   4.471   0.446  1.4096  0.9485 -1.2713
10690TIP3    H253562   2.854   4.348   0.370 -1.1333 -0.5141 -0.5650
10691TIP3   OH253563   1.812   1.021   1.864 -0.2048 -0.2603 -0.7537
10691TIP3    H153564   1.745   0.979   1.812 -0.4076  1.3519 -1.8695
10691TIP3    H253565   1.810   1.113   1.837  1.6500  0.0625  0.0235
10692TIP3   OH253566   4.508   3.834   5.434 -0.6209 -0.4688 -0.2469
10692TIP3    H153567   4.415   3.839   5.456 -1.0183 -0.8575 -1.7708
10692TIP3    H253568   4.541   3.762   5.488 -1.1791 -0.3084  0.3290
10693TIP3   OH253569   4.506   4.130   1.906  0.6383  0.3342 -0.1214
10693TIP3    H153570   4.433   4.069   1.896  0.2012  0.8430 -0.0754
10693TIP3    H253571   4.584   4.078   1.884  0.4842 -0.7709  1.6828
10694TIP3   OH253572   5.974   5.968  13.641  0.8518 -0.2510  0.3319
10694TIP3    H153573   5.897   5.983  13.587  1.1725 -1.0510 -0.3787
10694TIP3    H253574   5.941   5.958  13.730  0.3530  1.5104  0.3691
10695TIP3   OH253575   4.959   3.455   3.579 -0.5492  0.5969 -0.6150
10695TIP3    H153576   4.899   3.452   3.505  0.0813 -0.9142 -1.1002
10695TIP3    H253577   5.015   3.378   3.569 -0.9830 -0.1515  1.8990
10696TIP3   OH253578   1.392   3.117   0.021  0.1056 -0.4110 -0.3309
10696TIP3    H153579   1.467   3.063  -0.002 -0.6376 -1.7913  0.4105
10696TIP3    H253580   1.422   3.169   0.096  0.4712 -0.5963 -0.3493
10697TIP3   OH253581   1.233   5.575  10.573  0.1862 -0.2953  0.1390
10697TIP3    H153582   1.217   5.493  10.618  1.8866 -1.0663 -0.5730
10697TIP3    H253583   1.186   5.567  10.490  0.2522 -0.5121  0.1229
10698TIP3   OH253584   6.061   6.694  11.653 -0.0092  0.0270 -0.0177
10698TIP3    H153585   6.094   6.611  11.688 -0.6812 -0.2093  0.0661
10698TIP3    H253586   5.990   6.669  11.594 -0.7696  0.5805  0.6336
10699TIP3   OH253587   0.938   5.257   2.110 -0.2405 -0.2952 -0.1532
10699TIP3    H153588   0.934   5.176   2.059 -1.8993 -0.0135 -0.5188
10699TIP3    H253589   0.847   5.281   2.125  0.2138  0.7151  1.2469
10700TIP3   OH253590   4.870   5.557  15.980 -0.2150  0.2432 -0.1582
10700TIP3    H153591   4.920   5.513  15.911 -0.6503 -0.0902 -0.2644
10700TIP3    H253592   4.780   5.527  15.967 -0.0862 -0.9405  1.4393
10701TIP3   OH253593   4.744   0.621  13.820  0.1190 -0.1156 -0.0754
10701TIP3    H153594   4.818   0.682  13.819 -1.0868  1.3900 -0.2464
10701TIP3    H253595   4.668   0.676  13.836 -1.0140 -1.6004 -0.2096
10702TIP3   OH253596   2.883   3.905  12.189 -0.5744 -0.0552 -0.2689
10702TIP3    H153597   2.810   3.954  12.149  0.3995  1.2939 -0.4595
10702TIP3    H253598   2.959   3.929  12.136  0.3141 -0.0927  0.9632
10703TIP3   OH253599   3.848   3.968  11.868 -1.0389  0.4542  0.3107
10703TIP3    H153600   3.776   3.953  11.929 -0.0527 -0.8994  1.2066
10703TIP3    H253601   3.927   3.959  11.921 -0.1794  0.5155 -0.9201
10704TIP3   OH253602   2.093   6.111   5.708  0.3300 -0.4215  0.3969
10704TIP3    H153603   2.068   6.029   5.666  0.6785 -0.2640 -0.1305
10704TIP3    H253604   2.128   6.085   5.793 -2.0312 -0.6283  1.3991
10705TIP3   OH253605   5.157   5.956   3.520 -0.5533  0.3187 -0.6144
10705TIP3    H153606   5.159   6.049   3.499  1.7050  0.2719 -0.8053
10705TIP3    H253607   5.158   5.912   3.435  0.1662  0.1229 -0.5070
10706TIP3   OH253608   3.652   2.559   1.127 -0.3628 -0.1114  0.0448
10706TIP3    H153609   3.699   2.588   1.205  0.4030  0.6435 -0.6876
10706TIP3    H253610   3.720   2.531   1.066 -0.6854  2.3263 -1.5848
10707TIP3   OH253611   0.461   3.390  10.979 -0.3207  0.2395 -0.2132
10707TIP3    H153612   0.375   3.385  10.938 -2.0623 -3.5219  3.0930
10707TIP3    H253613   0.447   3.440  11.060  0.8219  0.3303 -0.0435
10708TIP3   OH253614   5.594   0.978  11.434 -0.1623  0.3294  0.6703
10708TIP3    H153615   5.641   1.035  11.494 -0.5187  2.1773 -0.7216
10708TIP3    H253616   5.631   0.891  11.449  0.7650  0.9948  2.4998
10709TIP3   OH253617   6.251   1.043  13.319 -0.6936  0.3955 -0.6782
10709TIP3    H153618   6.211   0.957  13.320  1.0454 -0.5072 -2.1005
10709TIP3    H253619   6.345   1.026  13.326 -0.4306  2.3640  2.0653
10710TIP3   OH253620   5.940   3.495  10.515  0.4950  0.0356  0.0756
10710TIP3    H153621   5.851   3.488  10.547  0.5521 -0.0668  0.2128
10710TIP3    H253622   5.977   3.407  10.527  1.2551  0.5484  1.9169
10711TIP3   OH253623   2.338   6.500  13.848 -0.3114  0.2904  0.0870
10711TIP3    H153624   2.359   6.543  13.765  0.1847  0.6699  0.4011
10711TIP3    H253625   2.408   6.435  13.860  0.3491  1.1063  0.8171
10712TIP3   OH253626   6.786   0.379   3.555 -0.0556 -0.6993  0.3888
10712TIP3    H153627   6.740   0.400   3.474  0.1048 -1.8066  0.0054
10712TIP3    H253628   6.768   0.287   3.571 -0.0867 -0.4997  1.6252
10713TIP3   OH253629   4.981   4.095   3.050  0.4417  0.7082 -0.7211
10713TIP3    H153630   4.930   4.169   3.017 -1.9600 -0.4213  0.1794
10713TIP3    H253631   5.016   4.053   2.972  0.5183  1.8707 -1.3357
10714TIP3   OH253632   3.542   0.835  14.347  0.2406  0.0495  0.1529
10714TIP3    H153633   3.604   0.883  14.401 -0.7342  1.0232  0.4423
10714TIP3    H253634   3.524   0.755  14.395 -0.1632  0.6377  1.0042
10715TIP3   OH253635   4.482   3.946  14.525 -0.3823 -0.2800 -0.2753
10715TIP3    H153636   4.551   3.995  14.481  0.0811 -0.8168 -0.1626
10715TIP3    H253637   4.529   3.888  14.586 -0.9910  0.2245  0.6915
10716TIP3   OH253638   6.366   1.945  16.030 -0.3070 -0.3008 -0.1478
10716TIP3    H153639   6.434   1.896  16.075 -0.0472 -0.0544 -0.2635
10716TIP3    H253640   6.402   2.034  16.023  0.7032 -0.8121 -2.8932
10717TIP3   OH253641   0.049   3.492  15.539  0.2614  0.1104  0.4616
10717TIP3    H153642   0.135   3.535  15.548 -1.1267  3.7828 -1.6511
10717TIP3    H253643   0.023   3.510  15.449 -2.0163 -2.4641  0.5033
10718TIP3   OH253644   4.526   5.560  15.105  0.4555 -0.0049 -0.2704
10718TIP3    H153645   4.440   5.564  15.148  0.1218 -1.9572 -0.6586
10718TIP3    H253646   4.550   5.652  15.092 -0.9324  0.6069  1.0806
10719TIP3   OH253647   0.732   0.059   3.283  0.4721  0.3983  0.2061
10719TIP3    H153648   0.725   0.029   3.193 -3.3284 -1.7640  1.0061
10719TIP3    H253649   0.764  -0.017   3.332  2.0620  1.4095  0.8467
10720TIP3   OH253650   5.293   0.968   1.484 -0.1983  0.0138  0.2672
10720TIP3    H153651   5.279   1.062   1.482  0.8109  0.1971  1.1848
10720TIP3    H253652   5.216   0.931   1.439  1.3702  1.4364 -3.9891
10721TIP3   OH253653   5.285   6.425   5.530  0.4254 -0.5099 -0.2532
10721TIP3    H153654   5.294   6.521   5.533 -2.2698 -0.1687 -0.5502
10721TIP3    H253655   5.374   6.393   5.520  1.5727  1.8911  1.3416
10722TIP3   OH253656   2.736   1.377   6.174 -0.3663 -0.0914 -0.2559
10722TIP3    H153657   2.736   1.281   6.179  1.3472 -0.1302 -0.5061
10722TIP3    H253658   2.725   1.404   6.265  3.4856 -0.6318  0.5599
10723TIP3   OH253659   1.107   3.270  15.528  0.2762 -0.2438  0.1086
10723TIP3    H153660   1.012   3.262  15.520  0.2194  0.5717 -0.0678
10723TIP3    H253661   1.129   3.211  15.600 -0.5144  0.4127  0.9180
10724TIP3   OH253662   5.476   1.421   5.349  0.5702  0.5568  0.4832
10724TIP3    H153663   5.459   1.485   5.419  0.5685 -0.4317  1.4171
10724TIP3    H253664   5.429   1.455   5.273 -0.3353  1.1114  1.2645
10725TIP3   OH253665   5.215   4.719  11.860  0.3323  0.3599 -0.0716
10725TIP3    H153666   5.280   4.783  11.831  0.4036  0.1411 -0.3996
10725TIP3    H253667   5.260   4.665  11.924 -0.0065  1.2497  0.9676
10726TIP3   OH253668   0.093   6.297   1.198 -0.0773  0.8570  0.2617
10726TIP3    H153669   0.138   6.270   1.118 -0.7671  0.4571 -0.0051
10726TIP3    H253670   0.016   6.346   1.166 -0.2217  0.9077  0.6822
10727TIP3   OH253671   3.663   3.467  10.714 -0.5312 -0.1247 -0.4488
10727TIP3    H153672   3.717   3.479  10.636  0.1540  0.6613  0.1199
10727TIP3    H253673   3.580   3.433  10.681 -0.1347 -0.1349 -1.4793
10728TIP3   OH253674   4.587   2.187   4.843 -0.5579 -0.6281 -0.4084
10728TIP3    H153675   4.522   2.231   4.789  0.1457  1.0839  0.0879
10728TIP3    H253676   4.615   2.112   4.790 -0.6423  0.4079 -1.9761
10729TIP3   OH253677   1.893   0.316  16.346 -0.0605 -0.2885 -0.0010
10729TIP3    H153678   1.953   0.366  16.400 -1.9996 -0.2626  2.3038
10729TIP3    H253679   1.898   0.226  16.379 -1.7965 -0.1355  0.8098
10730TIP3   OH253680   0.447   4.649  11.540  0.4634 -0.3023 -0.3062
10730TIP3    H153681   0.425   4.579  11.477 -0.7915 -0.0640 -0.1549
10730TIP3    H253682   0.423   4.613  11.625 -2.2211  1.0325 -0.4034
10731TIP3   OH253683   1.836   6.167   4.602 -0.5682  0.1962  0.5462
10731TIP3    H153684   1.914   6.147   4.654  0.7296  0.6664 -1.1041
10731TIP3    H253685   1.795   6.241   4.646  0.2652  0.3252  1.1172
10732TIP3   OH253686   0.457   0.748   1.212 -0.2460  0.4052  0.2534
10732TIP3    H153687   0.452   0.741   1.307  0.2290 -2.0153  0.1461
10732TIP3    H253688   0.550   0.754   1.193 -0.3676  1.6290 -0.0562
10733TIP3   OH253689   6.669   4.016   3.533 -0.2645 -0.2766  0.0301
10733TIP3    H153690   6.697   4.092   3.584 -2.2772 -0.0093  0.8373
10733TIP3    H253691   6.603   4.050   3.472 -0.4830 -1.1935 -0.2701
10734TIP3   OH253692   2.097   3.067  14.884 -0.5523  0.3801  0.1308
10734TIP3    H153693   2.178   3.080  14.836  0.4855 -1.0144  1.4326
10734TIP3    H253694   2.116   2.998  14.947 -2.7234  0.0749  0.5501
10735TIP3   OH253695   3.350   1.416  14.471  0.4497  0.1822 -0.2202
10735TIP3    H153696   3.345   1.362  14.550 -1.3690 -0.6460 -0.8755
10735TIP3    H253697   3.436   1.397  14.434 -0.2622 -2.5541 -0.6207
10736TIP3   OH253698   6.178   1.634   1.447 -0.2227  0.1308  0.2821
10736TIP3    H153699   6.132   1.576   1.385 -0.2752 -1.1102  1.4375
10736TIP3    H253700   6.259   1.658   1.402  0.4635 -1.9862  0.2656
10737TIP3   OH253701   0.272   5.417   1.143  0.0599 -0.4774  0.2869
10737TIP3    H153702   0.327   5.382   1.214  0.5898  1.1717  0.7402
10737TIP3    H253703   0.203   5.465   1.189 -0.8530 -1.2128 -0.3042
10738TIP3   OH253704   6.707   3.767  14.792 -0.7616  0.4159 -0.7208
10738TIP3    H153705   6.649   3.792  14.864 -0.8409  0.2222 -0.7161
10738TIP3    H253706   6.668   3.806  14.714 -0.6041  0.7376 -0.6415
10739TIP3   OH253707   0.494   4.494   1.720  0.1194  0.3399 -0.5674
10739TIP3    H153708   0.530   4.443   1.647 -0.9369  0.4101 -1.1607
10739TIP3    H253709   0.400   4.473   1.719  0.1195  0.1747  0.9156
10740TIP3   OH253710   0.076   3.995  14.564  0.1458  0.3550 -0.8989
10740TIP3    H153711   0.140   4.065  14.566  0.1438  0.3637  1.1173
10740TIP3    H253712   0.032   4.004  14.479  0.9775  2.0119 -1.1822
10741TIP3   OH253713   4.348   0.708   2.041 -0.2249  0.0086 -0.7373
10741TIP3    H153714   4.409   0.634   2.047 -0.6068 -0.3621 -1.2947
10741TIP3    H253715   4.390   0.770   1.982 -0.4947 -0.3734 -1.3518
10742TIP3   OH253716   1.882   6.588   3.382  0.4794 -0.7995 -0.9096
10742TIP3    H153717   1.914   6.655   3.322  0.2469 -0.6887 -0.9142
10742TIP3    H253718   1.925   6.607   3.465 -1.1716  0.6788 -0.3260
10743TIP3   OH253719   1.541   1.080   0.256 -0.3161 -0.3999  0.0121
10743TIP3    H153720   1.525   1.171   0.230 -0.3589  0.2835  2.2324
10743TIP3    H253721   1.458   1.052   0.295 -0.7497 -1.8866 -1.8360
10744TIP3   OH253722   3.925   4.420   5.760  1.2862 -0.1001  0.3690
10744TIP3    H153723   3.921   4.515   5.759  3.2744  0.1001 -2.9111
10744TIP3    H253724   3.942   4.397   5.852  2.0529  2.7945  1.0365
10745TIP3   OH253725   1.556   2.137   5.372  0.2046  0.1089  0.6107
10745TIP3    H153726   1.651   2.131   5.382  0.3249  2.5807  1.6348
10745TIP3    H253727   1.528   2.193   5.444 -1.7335  1.3068 -0.9899
10746TIP3   OH253728   5.309   6.539   3.090 -0.0552  0.4020 -0.9724
10746TIP3    H153729   5.280   6.623   3.125 -1.3151  0.8503 -2.9421
10746TIP3    H253730   5.404   6.547   3.084 -0.1522  1.7031 -1.1457
10747TIP3   OH253731   3.966   0.436   4.018  0.1510  0.0526  0.1855
10747TIP3    H153732   3.907   0.510   4.009 -0.2666 -0.3439 -0.4371
10747TIP3    H253733   4.052   0.475   4.033 -0.3821  0.6340  2.0694
10748TIP3   OH253734   4.710   1.418   1.914 -0.1700  0.0272 -0.8188
10748TIP3    H153735   4.771   1.478   1.871 -0.4989  1.4228  0.5321
10748TIP3    H253736   4.710   1.448   2.006 -0.3795 -2.0462 -0.1047
10749TIP3   OH253737   6.086   3.253   1.298 -0.2903 -0.2618  0.1529
10749TIP3    H153738   6.056   3.337   1.331 -1.4397 -1.3534  2.0447
10749TIP3    H253739   6.028   3.189   1.338 -0.1828 -1.9171 -2.1016
10750TIP3   OH253740   0.615   3.415   2.545 -0.3170 -0.6675 -0.1038
10750TIP3    H153741   0.533   3.400   2.498 -0.6096  0.3782  0.0588
10750TIP3    H253742   0.595   3.484   2.608  0.9229  0.2281 -0.6659
10751TIP3   OH253743   2.580   4.484  16.340  0.4204 -0.5691  0.2896
10751TIP3    H153744   2.548   4.561  16.387  0.7923 -0.8917  1.0812
10751TIP3    H253745   2.669   4.471  16.372  0.5382 -1.0310 -0.2121
10752TIP3   OH253746   4.662   5.251  16.633 -0.1427 -0.0452 -0.2861
10752TIP3    H153747   4.648   5.159  16.613  2.4072  0.0597 -3.4233
10752TIP3    H253748   4.756   5.259  16.648 -0.5072  1.8569  1.4481
10753TIP3   OH253749   0.636   2.851   5.500  0.0160 -0.1260 -0.8453
10753TIP3    H153750   0.691   2.911   5.550 -0.0515 -0.1935 -0.6884
10753TIP3    H253751   0.696   2.807   5.439 -0.0550  0.6524 -1.4980
10754TIP3   OH253752   5.456   2.449  10.720 -0.4431  0.4934 -0.2584
10754TIP3    H153753   5.513   2.375  10.737  0.0375  0.5993 -1.2955
10754TIP3    H253754   5.381   2.436  10.778  0.5357  0.2505  0.9791
10755TIP3   OH253755   3.132   3.704  12.992  0.5637 -0.2624  0.6354
10755TIP3    H153756   3.131   3.799  12.993 -1.5994 -0.2395  1.7348
10755TIP3    H253757   3.100   3.680  12.905  0.8014  0.0140  0.4703
10756TIP3   OH253758   4.136   3.703   2.074 -0.0810  0.6223 -0.2172
10756TIP3    H153759   4.167   3.779   2.123 -0.0827 -1.7688  3.8900
10756TIP3    H253760   4.043   3.721   2.059 -0.0446  1.5129  0.5325
10757TIP3   OH253761   6.522   1.662  14.288 -0.0838 -0.0861  0.0087
10757TIP3    H153762   6.489   1.572  14.280  0.8180 -0.3706 -0.7955
10757TIP3    H253763   6.486   1.707  14.212 -0.0469  0.0662  0.0832
10758TIP3   OH253764   0.147   2.114  10.759  0.6406 -0.1378  0.6069
10758TIP3    H153765   0.171   2.109  10.852 -0.7663  0.3435  1.0230
10758TIP3    H253766   0.220   2.158  10.717  2.9842 -3.4435  0.8023
10759TIP3   OH253767   3.164   2.835   1.915 -0.0384 -0.6818 -0.0619
10759TIP3    H153768   3.258   2.824   1.901 -0.3289 -0.9544 -2.2092
10759TIP3    H253769   3.143   2.920   1.877 -0.4519  0.0704  1.7592
10760TIP3   OH253770   5.597   5.890   0.000 -0.2810 -0.5763 -0.1142
10760TIP3    H153771   5.566   5.855  -0.084  1.1247  0.2942 -1.0323
10760TIP3    H253772   5.692   5.897  -0.010 -0.1971  0.5723  1.1558
10761TIP3   OH253773   1.310   5.227  11.193  0.5427  0.0874 -0.5284
10761TIP3    H153774   1.262   5.301  11.155 -1.8299 -0.6369  0.8647
10761TIP3    H253775   1.251   5.153  11.185  1.8596 -1.1118  0.3603
10762TIP3   OH253776   5.005   3.965  15.022  0.0971 -0.9349 -0.3085
10762TIP3    H153777   4.941   3.911  15.069 -1.0695  0.0637 -0.7185
10762TIP3    H253778   4.985   3.951  14.930  0.3872 -0.5030 -0.4399
10763TIP3   OH253779   1.352   5.256  12.277  0.2423  0.1554 -0.3124
10763TIP3    H153780   1.407   5.273  12.354  1.8209  1.1010 -1.5697
10763TIP3    H253781   1.291   5.329  12.274  0.6382  0.4919 -0.3252
10764TIP3   OH253782   4.216   6.238   5.684 -0.5666  0.1922  0.3553
10764TIP3    H153783   4.270   6.200   5.753  0.4068 -1.0833 -1.0541
10764TIP3    H253784   4.218   6.174   5.613 -2.4811  0.9294 -0.4508
10765TIP3   OH253785   0.651   4.846  14.919 -0.2071  0.1638 -0.4086
10765TIP3    H153786   0.663   4.906  14.993 -0.2205 -1.2834  0.8176
10765TIP3    H253787   0.590   4.892  14.860 -1.7187  0.5861  1.3894
10766TIP3   OH253788   3.034   4.351  16.581 -0.3097 -0.2318  0.1863
10766TIP3    H153789   3.049   4.266  16.539  2.6952  0.0876  0.3937
10766TIP3    H253790   3.114   4.401  16.563 -2.1666  2.7477 -0.2826
10767TIP3   OH253791   4.365   4.660   0.460 -0.5711 -0.1747  0.4379
10767TIP3    H153792   4.414   4.577   0.462 -0.6340 -0.2021  0.9700
10767TIP3    H253793   4.282   4.639   0.502 -1.4175 -0.3647 -1.2746
10768TIP3   OH253794   4.278   2.828  16.495  0.1715  0.1015  0.1648
10768TIP3    H153795   4.353   2.770  16.482  0.5332  0.1211  1.9241
10768TIP3    H253796   4.228   2.821  16.414  2.4096  0.6229 -1.3788
10769TIP3   OH253797   1.647   6.465   5.378 -0.1164  0.5216 -0.0590
10769TIP3    H153798   1.615   6.537   5.325 -2.1484 -0.1152  0.2429
10769TIP3    H253799   1.659   6.503   5.465 -1.3142  0.4985  0.1334
10770TIP3   OH253800   0.386   1.502   1.735  0.5149 -0.4894 -0.0654
10770TIP3    H153801   0.427   1.527   1.652 -1.1629  1.7272 -0.2983
10770TIP3    H253802   0.322   1.435   1.711  1.1914 -1.0625 -0.2926
10771TIP3   OH253803   0.528   4.741  12.687  0.4870  0.4645 -0.5849
10771TIP3    H153804   0.548   4.835  12.689  3.1983 -0.0567  1.2895
10771TIP3    H253805   0.596   4.704  12.630 -1.6016 -0.2441 -2.7668
10772TIP3   OH253806   6.787   4.732  15.699  0.2747  0.2507 -0.5102
10772TIP3    H153807   6.788   4.824  15.723  2.0667  0.7792 -2.2598
10772TIP3    H253808   6.846   4.689  15.761 -0.0625  0.4124 -0.0838
10773TIP3   OH253809   3.316   4.005   4.904  0.2939 -0.4319 -0.1056
10773TIP3    H153810   3.230   3.974   4.932  1.5603 -2.8569  1.5243
10773TIP3    H253811   3.320   4.096   4.933 -0.9607 -0.9116  1.7370
10774TIP3   OH253812   0.527   1.925  16.358  0.5684  0.1688  0.1830
10774TIP3    H153813   0.480   1.955  16.280 -2.4369 -1.0850  1.3397
10774TIP3    H253814   0.516   1.996  16.421 -0.8678 -0.5841  0.8224
10775TIP3   OH253815   5.509   0.091   2.687  0.5679 -0.2208  0.1881
10775TIP3    H153816   5.520   0.145   2.766  0.3618 -0.4712  0.3860
10775TIP3    H253817   5.422   0.053   2.695  0.6743 -0.5089 -0.0018
10776TIP3   OH253818   6.697   3.071  13.498  0.8702  0.5081  0.1950
10776TIP3    H153819   6.615   3.118  13.509 -0.1202 -1.5699  2.5855
10776TIP3    H253820   6.753   3.104  13.568  1.8117  1.3009 -0.8967
10777TIP3   OH253821   1.413   4.441  10.631  0.6998 -0.1526  0.0487
10777TIP3    H153822   1.457   4.522  10.605 -1.0417  1.4125  1.6656
10777TIP3    H253823   1.322   4.467  10.648  0.7621 -1.6932  3.7392
10778TIP3   OH253824   4.450   4.559   4.050 -0.6863 -0.0255 -0.3589
10778TIP3    H153825   4.403   4.477   4.063 -0.2809 -0.3553 -0.9172
10778TIP3    H253826   4.535   4.544   4.090 -0.5745  0.0821 -0.5538
10779TIP3   OH253827   2.611   0.883   0.438  0.4247  0.1664 -0.5611
10779TIP3    H153828   2.695   0.875   0.393  0.2262 -0.9133 -0.7499
10779TIP3    H253829   2.626   0.846   0.525 -0.6832 -3.2651 -1.6796
10780TIP3   OH253830   4.614   1.952  11.863  0.1333 -0.6846  0.1312
10780TIP3    H153831   4.628   1.997  11.947  0.0525 -0.4640  0.0266
10780TIP3    H253832   4.609   2.023  11.799  3.4563 -0.9406 -0.5720
10781TIP3   OH253833   3.373   1.739   2.423  0.0259 -0.3479  0.3586
10781TIP3    H153834   3.433   1.763   2.494 -0.8461 -0.4574  1.1459
10781TIP3    H253835   3.358   1.820   2.375  1.0158 -0.3756 -0.0260
10782TIP3   OH253836   6.753   3.915   1.482  0.0584  0.2183 -0.0417
10782TIP3    H153837   6.662   3.894   1.461  0.4996 -0.3605 -1.4903
10782TIP3    H253838   6.803   3.842   1.446  1.3619  1.9827 -2.0686
10783TIP3   OH253839   2.471   1.858   2.241  0.1450  0.0847 -0.5300
10783TIP3    H153840   2.397   1.803   2.266  0.7973 -0.9772 -0.8664
10783TIP3    H253841   2.453   1.943   2.281 -1.2585 -0.1459 -0.6300
10784TIP3   OH253842   5.203   3.271   3.893  0.3495  0.1815 -0.1080
10784TIP3    H153843   5.218   3.186   3.852  1.1801 -0.1151  0.7889
10784TIP3    H253844   5.284   3.290   3.939 -0.5173  0.5590  1.3201
10785TIP3   OH253845   4.448   6.146  13.937  0.2479  0.4034  0.0992
10785TIP3    H153846   4.531   6.111  13.904 -1.0698 -0.2134 -2.9503
10785TIP3    H253847   4.383   6.082  13.907 -1.4686  1.5580  1.2324
10786TIP3   OH253848   5.471   3.747  12.450 -0.2021 -0.0362 -0.1012
10786TIP3    H153849   5.410   3.821  12.457  0.0583  0.0874  1.0999
10786TIP3    H253850   5.528   3.771  12.377 -1.5632 -0.1541 -1.2382
10787TIP3   OH253851   3.045   6.174  16.608  0.2256 -0.3409  0.3901
10787TIP3    H153852   3.003   6.252  16.645 -1.2630  0.0136 -1.7871
10787TIP3    H253853   2.976   6.108  16.607  0.7814 -0.9263  0.0604
10788TIP3   OH253854   3.424   1.090  11.774 -0.3349 -0.1262 -0.0093
10788TIP3    H153855   3.394   1.179  11.791  0.8786  0.0687  1.3109
10788TIP3    H253856   3.511   1.102  11.734 -0.4411 -0.7130 -0.4223
10789TIP3   OH253857   2.847   1.205   2.870  0.5473 -0.0224  0.1569
10789TIP3    H153858   2.784   1.177   2.937 -1.1620  0.3951 -1.2034
10789TIP3    H253859   2.929   1.162   2.895 -0.1553 -0.2935  2.2012
10790TIP3   OH253860   5.170   6.190   5.237 -0.0351  0.4220  0.1926
10790TIP3    H153861   5.237   6.255   5.257 -0.0368  0.4909 -0.0239
10790TIP3    H253862   5.167   6.134   5.314 -0.0948  0.7334  0.4172
10791TIP3   OH253863   4.172   4.658  14.021  0.0039 -0.1558 -0.6251
10791TIP3    H153864   4.104   4.694  13.964  1.6057  1.2639 -1.7651
10791TIP3    H253865   4.242   4.724  14.018  0.1457  0.0730  3.1608
10792TIP3   OH253866   2.156   6.326  14.015 -0.5580  0.3491  0.4910
10792TIP3    H153867   2.167   6.418  13.991 -0.5609  0.7455  1.9235
10792TIP3    H253868   2.236   6.284  13.984 -1.0540  0.5906 -1.2052
10793TIP3   OH253869   2.592   6.766  12.524  0.1306 -0.2112  0.2015
10793TIP3    H153870   2.617   6.681  12.488 -2.3827 -1.7317  1.7635
10793TIP3    H253871   2.674   6.816  12.527  1.8342 -2.8113 -0.0991
10794TIP3   OH253872   2.730   1.473   4.980 -0.3199  0.4678 -0.9159
10794TIP3    H153873   2.712   1.425   4.899  1.1768  0.2765 -1.1470
10794TIP3    H253874   2.796   1.421   5.025 -0.4153  1.0925 -0.0277
10795TIP3   OH253875   4.466   1.499  10.414  0.3033 -0.5073  0.3005
10795TIP3    H153876   4.388   1.468  10.459  1.2201  1.3069  3.4695
10795TIP3    H253877   4.537   1.443  10.447  0.9196  0.5284  0.7945
10796TIP3   OH253878   1.879   2.840   6.001  0.2050 -0.1168  0.5589
10796TIP3    H153879   1.792   2.807   6.025  0.7354 -0.9857  1.3218
10796TIP3    H253880   1.938   2.801   6.064  1.1169  0.7957  0.2932
10797TIP3   OH253881   0.824   3.727   1.991  0.0550 -0.8071 -0.3749
10797TIP3    H153882   0.813   3.638   2.026  0.5613 -1.5968 -2.1319
10797TIP3    H253883   0.850   3.779   2.067  0.1279 -2.2350  0.6210
10798TIP3   OH253884   0.011   5.935   4.392 -0.2638  0.3565 -0.1319
10798TIP3    H153885  -0.001   5.943   4.486 -0.5903  0.7705 -0.2035
10798TIP3    H253886   0.053   5.850   4.380  2.1417  1.3596  0.5914
10799TIP3   OH253887   3.206   1.152   6.400  0.0412  0.4310 -0.1250
10799TIP3    H153888   3.133   1.123   6.454  1.1836 -0.8864  0.8061
10799TIP3    H253889   3.256   1.072   6.383  3.1542  1.6428  2.2040
10800TIP3   OH253890   5.702   5.730  13.514  0.1372 -0.5672  0.4273
10800TIP3    H153891   5.675   5.728  13.606  1.0032 -0.3711  0.6881
10800TIP3    H253892   5.707   5.638  13.488 -0.7524 -0.6119  0.3751
10801TIP3   OH253893   3.421   0.144   5.190 -0.0348 -0.4399 -0.0268
10801TIP3    H153894   3.397   0.224   5.235  1.2409 -0.0589  0.0006
10801TIP3    H253895   3.362   0.141   5.114 -1.0479 -0.2274  0.7284
10802TIP3   OH253896   2.839   3.363  14.200 -0.1504  0.1790 -0.0636
10802TIP3    H153897   2.816   3.282  14.155  1.4862 -0.2239 -0.2630
10802TIP3    H253898   2.856   3.425  14.130 -1.0919  0.6152  0.0850
10803TIP3   OH253899   0.784   1.161   5.545 -0.2272 -0.5786 -0.5482
10803TIP3    H153900   0.789   1.192   5.454 -0.9142 -0.5577 -0.5859
10803TIP3    H253901   0.792   1.241   5.597  0.6972 -0.6487 -0.5712
10804TIP3   OH253902   2.102   6.494  15.860  0.1885  0.1911 -0.2255
10804TIP3    H153903   2.194   6.519  15.871  0.4658 -1.0566  0.6444
10804TIP3    H253904   2.081   6.446  15.941 -0.7127 -0.9920 -1.1199
10805TIP3   OH253905   0.311   1.738  11.960  0.3684 -0.2268 -0.1928
10805TIP3    H153906   0.285   1.828  11.981  1.8111  0.3790 -0.8642
10805TIP3    H253907   0.399   1.730  11.998  0.0967 -1.4905  0.1904
10806TIP3   OH253908   4.251   2.049   5.586  0.4525 -0.2024  0.2722
10806TIP3    H153909   4.331   2.066   5.637 -0.7813  1.1942  1.8793
10806TIP3    H253910   4.267   2.091   5.502  1.8091 -0.8713  0.1660
10807TIP3   OH253911   5.047   4.320  15.457 -0.5011  0.0299 -0.4996
10807TIP3    H153912   4.954   4.339  15.458 -0.2488  1.3735  0.1647
10807TIP3    H253913   5.063   4.271  15.538 -0.5646  0.1481 -0.4162
10808TIP3   OH253914   6.789   0.646  12.912  0.3848 -0.1335 -0.2022
10808TIP3    H153915   6.809   0.669  12.822  0.4718  1.1649  0.1368
10808TIP3    H253916   6.872   0.615  12.949  1.3424  2.8995  0.4856
10809TIP3   OH253917   3.022   0.565   1.443  0.2007  0.0707  0.1163
10809TIP3    H153918   3.040   0.563   1.349 -0.3871  1.7928 -0.0678
10809TIP3    H253919   2.998   0.475   1.465 -0.9674 -0.0987 -1.6562
10810TIP3   OH253920   0.404   3.744   1.300  0.1894  0.5555  0.2125
10810TIP3    H153921   0.338   3.682   1.330 -0.0013  0.2994 -0.6964
10810TIP3    H253922   0.485   3.693   1.293  0.0308  0.3913 -0.5429
10811TIP3   OH253923   4.490   0.964   1.598 -0.2515 -0.0972 -0.7243
10811TIP3    H153924   4.443   0.909   1.536 -2.0798  0.0150  0.4884
10811TIP3    H253925   4.446   1.049   1.593  0.3606  0.2649 -0.1423
10812TIP3   OH253926   2.152   0.165   2.872 -0.0173  0.3937  0.0215
10812TIP3    H153927   2.099   0.197   2.944  0.5326  1.7706 -0.1546
10812TIP3    H253928   2.226   0.121   2.914 -1.1670 -1.4033  0.2633
10813TIP3   OH253929   4.260   6.503   5.571  0.4383 -0.2740  0.6871
10813TIP3    H153930   4.322   6.497   5.499 -0.4278  0.6858 -0.1698
10813TIP3    H253931   4.263   6.416   5.613  2.5226 -0.1625  0.8606
10814TIP3   OH253932   4.170   5.275   4.692 -0.2279  0.6750  0.2457
10814TIP3    H153933   4.128   5.279   4.606 -0.9751  0.8034  0.6108
10814TIP3    H253934   4.213   5.360   4.702  0.3872  0.4331 -0.2567
10815TIP3   OH253935   6.674   5.531   2.445  0.8120 -0.7055  0.0607
10815TIP3    H153936   6.740   5.574   2.393  1.0860 -0.1262  0.8644
10815TIP3    H253937   6.601   5.516   2.385 -0.3531  3.1704  0.2639
10816TIP3   OH253938   0.275   6.645  12.024 -0.2626  0.4165  0.3763
10816TIP3    H153939   0.234   6.594  12.093 -1.7387  0.9739 -0.0335
10816TIP3    H253940   0.267   6.736  12.053 -0.4430  0.6222 -0.2842
10817TIP3   OH253941   3.554   3.789  12.384  0.1749  0.6547 -0.3830
10817TIP3    H153942   3.604   3.864  12.416  0.0048 -0.2672  2.2502
10817TIP3    H253943   3.599   3.712  12.420 -0.3901 -0.4978 -1.9754
10818TIP3   OH253944   1.027   0.099   4.771  0.5067 -0.5571  0.1680
10818TIP3    H153945   0.942   0.071   4.739  0.0068  0.2544  0.7575
10818TIP3    H253946   1.029   0.194   4.755 -0.4138  0.2388  3.8080
10819TIP3   OH253947   0.215   0.326  14.233 -0.7448 -0.1347 -0.1065
10819TIP3    H153948   0.229   0.295  14.322  2.0264 -2.5843 -1.2218
10819TIP3    H253949   0.303   0.335  14.197 -1.7614  1.2497 -2.5007
10820TIP3   OH253950   2.103   4.487   2.330 -0.2316 -0.7226  0.5155
10820TIP3    H153951   2.079   4.394   2.329 -1.5595 -0.4073 -1.1912
10820TIP3    H253952   2.194   4.488   2.300 -0.8614 -1.3869 -1.6168
10821TIP3   OH253953   6.506   2.385   5.576  0.0541 -0.1342  0.2582
10821TIP3    H153954   6.471   2.341   5.498 -1.0540  1.5576 -0.2603
10821TIP3    H253955   6.462   2.343   5.649 -0.9331  0.0177 -0.2261
10822TIP3   OH253956   4.352   1.740  10.338  0.0072 -0.7635  0.4875
10822TIP3    H153957   4.261   1.739  10.368 -0.2058 -0.7195 -0.1483
10822TIP3    H253958   4.384   1.652  10.355  0.2327 -0.4381  1.8679
10823TIP3   OH253959   4.785   4.566   1.299 -0.3352 -0.2737 -0.2163
10823TIP3    H153960   4.769   4.659   1.315 -0.3943 -0.4735  0.9385
10823TIP3    H253961   4.858   4.564   1.237 -1.0264  0.5502 -1.0928
10824TIP3   OH253962   6.010   1.681  15.549 -0.2989 -0.1428 -0.0497
10824TIP3    H153963   6.090   1.732  15.558 -0.5584 -0.0175  2.0484
10824TIP3    H253964   5.939   1.745  15.554 -0.5792 -0.5025  0.9296
10825TIP3   OH253965   4.304   2.719  10.296 -0.3035  0.2244  0.4660
10825TIP3    H153966   4.373   2.656  10.313 -0.2271  0.3783  0.7347
10825TIP3    H253967   4.322   2.791  10.356  0.6895  1.3325 -1.0725
10826TIP3   OH253968   0.595   6.083  14.481  0.4761 -0.1946 -0.2644
10826TIP3    H153969   0.562   5.994  14.469  1.7324 -0.5431 -1.4081
10826TIP3    H253970   0.604   6.117  14.393  1.7978  0.3716  0.0670
10827TIP3   OH253971   6.278   5.380   3.222  0.4979 -0.5545 -0.3242
10827TIP3    H153972   6.269   5.446   3.291 -0.8828 -1.7247  0.6623
10827TIP3    H253973   6.292   5.298   3.270  0.9979 -1.1679 -1.4934
10828TIP3   OH253974   2.662   5.456  12.859  0.5151 -0.5228  0.0856
10828TIP3    H153975   2.595   5.442  12.925 -0.2722 -1.9981 -0.9896
10828TIP3    H253976   2.744   5.457  12.909 -0.2001  0.5327  1.3178
10829TIP3   OH253977   1.348   1.900   0.076 -0.2728 -0.0874  0.4291
10829TIP3    H153978   1.380   1.925   0.163 -0.3121  0.3355  0.3249
10829TIP3    H253979   1.327   1.807   0.084  1.2539 -0.4520  0.4173
10830TIP3   OH253980   2.155   0.605  13.665  0.5234  0.8593  0.6667
10830TIP3    H153981   2.098   0.619  13.590 -0.0888  0.8272  1.1148
10830TIP3    H253982   2.114   0.655  13.736 -1.0197 -2.0104  1.9798
10831TIP3   OH253983   0.262   1.474   2.445 -0.2152  0.4166  0.0519
10831TIP3    H153984   0.255   1.440   2.356 -0.2166  0.9641 -0.1586
10831TIP3    H253985   0.187   1.437   2.491 -0.4097  0.4117 -0.2662
10832TIP3   OH253986   2.678   2.663  13.221 -0.4670 -0.4163 -0.3308
10832TIP3    H153987   2.595   2.693  13.184 -0.1969  0.3171 -0.3566
10832TIP3    H253988   2.681   2.701  13.309  1.6558  3.1034 -1.6909
10833TIP3   OH253989   5.668   4.493  10.979  0.1385 -0.0826  0.0446
10833TIP3    H153990   5.587   4.543  10.974  0.4768  0.3639 -1.3885
10833TIP3    H253991   5.702   4.493  10.890  1.6336 -0.4041  0.5813
10834TIP3   OH253992   0.054   4.416   2.497 -0.0003 -0.2292  0.5231
10834TIP3    H153993   0.070   4.324   2.518 -0.3149 -0.4750 -0.2830
10834TIP3    H253994   0.119   4.436   2.429  2.7078  1.2447  3.2593
10835TIP3   OH253995   0.921   2.880  15.395 -0.1025 -0.2515  0.2834
10835TIP3    H153996   0.964   2.887  15.310 -0.5192 -0.5900  0.0389
10835TIP3    H253997   0.883   2.792  15.396 -0.4515 -0.1009  0.6498
10836TIP3   OH253998   5.839   3.707   3.444 -0.2066  0.8943 -0.5882
10836TIP3    H153999   5.785   3.675   3.372 -1.2947 -1.8732  1.3082
10836TIP3    H254000   5.787   3.776   3.485 -1.6731 -0.6442  0.2376
10837TIP3   OH254001   0.885   3.484   1.776 -0.3193 -0.0538 -0.1345
10837TIP3    H154002   0.898   3.495   1.870 -1.0601  1.8310 -0.2116
10837TIP3    H254003   0.791   3.468   1.766 -0.1083 -1.1369 -0.4985
10838TIP3   OH254004   3.015   0.317   1.537  0.1397 -0.0546 -0.4623
10838TIP3    H154005   2.947   0.259   1.572 -0.9499 -0.9114 -3.6771
10838TIP3    H254006   3.094   0.263   1.533  0.0217 -0.2415 -0.2694
10839TIP3   OH254007   5.099   2.841   4.320 -0.1552 -0.1531 -0.5134
10839TIP3    H154008   5.153   2.764   4.306  1.0653  0.5900 -0.0503
10839TIP3    H254009   5.133   2.881   4.400 -1.1080  0.5776 -0.4456
10840TIP3   OH254010   0.550   3.477   4.792  0.1697 -0.5113 -0.1715
10840TIP3    H154011   0.502   3.535   4.734  1.5813 -0.1926 -1.0866
10840TIP3    H254012   0.563   3.527   4.873 -0.5735 -0.4186 -0.1078
10841TIP3   OH254013   5.354   1.451  11.970 -0.1795 -0.0959  0.0743
10841TIP3    H154014   5.404   1.471  12.049  1.8447  0.6431 -1.3208
10841TIP3    H254015   5.266   1.432  12.002  1.2205 -2.9115  2.8038
10842TIP3   OH254016   6.785   2.939   1.161  0.9809 -0.2683  0.7301
10842TIP3    H154017   6.862   2.884   1.171 -0.6758 -2.5763  1.5551
10842TIP3    H254018   6.815   3.013   1.107  3.6064 -1.3085  0.6462
10843TIP3   OH254019   2.921   6.564   0.132 -0.0741  0.7130  0.1492
10843TIP3    H154020   2.844   6.621   0.126 -0.4027  0.4298  1.3655
10843TIP3    H254021   2.976   6.606   0.198  0.0769  0.0769  0.4312
10844TIP3   OH254022   2.379   5.753  15.747  0.7786 -0.3301  0.1364
10844TIP3    H154023   2.329   5.800  15.814  1.1784 -0.7230  0.7236
10844TIP3    H254024   2.313   5.708  15.695  0.2869  1.7409 -1.1536
10845TIP3   OH254025   2.533   1.577  16.490 -0.2630  0.4152  0.2465
10845TIP3    H154026   2.485   1.536  16.419 -0.1791  0.1819  0.3231
10845TIP3    H254027   2.580   1.505  16.532 -0.0746  0.5974  0.3515
10846TIP3   OH254028   1.318   1.049  16.579  0.0107  0.2095  0.2181
10846TIP3    H154029   1.414   1.051  16.576 -0.0288  1.2218 -0.8533
10846TIP3    H254030   1.294   0.970  16.531  0.2879  0.5034 -0.4164
10847TIP3   OH254031   1.173   0.575   5.817 -0.0505 -0.1350  0.1579
10847TIP3    H154032   1.097   0.632   5.807  1.2169  1.8052  0.9891
10847TIP3    H254033   1.188   0.571   5.911  0.5177 -0.9929  0.0383
10848TIP3   OH254034   4.371   5.131  15.702 -0.2133 -0.4918 -0.5037
10848TIP3    H154035   4.330   5.203  15.750 -2.2180 -2.0243  0.2069
10848TIP3    H254036   4.344   5.144  15.611 -0.6939 -0.4339 -0.3549
10849TIP3   OH254037   1.157   6.209  14.705  0.3762 -0.5507 -0.0539
10849TIP3    H154038   1.158   6.130  14.760  0.5969 -2.0847 -2.1258
10849TIP3    H254039   1.095   6.267  14.748  0.7100 -1.5737  1.9126
10850TIP3   OH254040   5.506   5.106   2.322 -0.3488  0.5122  0.2061
10850TIP3    H154041   5.466   5.021   2.305 -0.7167  0.5478  0.8790
10850TIP3    H254042   5.434   5.162   2.351 -0.6419  1.8136 -2.6321
10851TIP3   OH254043   4.383   3.121   3.480  0.2001  0.1361 -0.0984
10851TIP3    H154044   4.411   3.044   3.530 -3.1288 -1.0070  0.3216
10851TIP3    H254045   4.357   3.086   3.395  1.0031  1.2568 -0.8256
10852TIP3   OH254046   4.955   0.491  14.084 -0.9828  0.0759 -0.1003
10852TIP3    H154047   5.029   0.474  14.025 -0.3317  0.2641  0.6486
10852TIP3    H254048   4.878   0.464  14.033 -0.3343 -1.0450 -0.5387
10853TIP3   OH254049   4.401   4.897   5.327  0.9813 -0.8669  0.3870
10853TIP3    H154050   4.388   4.898   5.421  0.0718  1.4593  0.2821
10853TIP3    H254051   4.350   4.821   5.297  1.7381 -1.9707  1.7722
10854TIP3   OH254052   1.276   2.000  11.266 -0.3298  0.5033 -0.8133
10854TIP3    H154053   1.252   2.092  11.256  2.7190  1.1934 -4.2072
10854TIP3    H254054   1.370   2.001  11.284 -0.3878 -1.9873  0.0898
10855TIP3   OH254055   0.494   3.170   1.642 -0.5713  0.4247 -0.2719
10855TIP3    H154056   0.446   3.150   1.723  0.6156 -1.9319 -0.0535
10855TIP3    H254057   0.567   3.108   1.642 -1.0777 -0.3935 -3.6309
10856TIP3   OH254058   4.350   0.749  14.253  0.3109 -0.6692 -0.0951
10856TIP3    H154059   4.370   0.716  14.165 -1.2007  0.0054 -0.7120
10856TIP3    H254060   4.393   0.835  14.256 -0.6106 -0.1784 -0.6179
10857TIP3   OH254061   1.158   3.656  12.958 -0.4874  0.5912  0.2033
10857TIP3    H154062   1.205   3.701  13.028 -1.8188  0.3290  1.3311
10857TIP3    H254063   1.141   3.723  12.892  1.9420  0.5539 -0.5429
10858TIP3   OH254064   1.570   4.770  16.841  0.0516  0.3291  0.6722
10858TIP3    H154065   1.623   4.849  16.831 -1.1531  1.1324  0.3874
10858TIP3    H254066   1.615   4.720  16.910  1.5228  0.6495 -0.0147
10859TIP3   OH254067   6.534   0.197  14.786 -0.5853  0.2701  0.1333
10859TIP3    H154068   6.592   0.215  14.860 -0.8111 -0.2893  0.4559
10859TIP3    H254069   6.450   0.174  14.827 -0.7214 -0.0060 -0.2983
10860TIP3   OH254070   4.153   2.570   3.344  0.3907  0.5671  0.0283
10860TIP3    H154071   4.150   2.572   3.248  1.1731  0.5116 -0.0060
10860TIP3    H254072   4.195   2.653   3.368  0.7122  0.3337  0.2877
10861TIP3   OH254073   5.956   2.858   5.002  0.1785  0.5018 -0.5779
10861TIP3    H154074   5.938   2.767   5.026  1.2215  0.0243 -1.5199
10861TIP3    H254075   6.015   2.852   4.927  0.9075  1.9537 -0.1641
10862TIP3   OH254076   4.136   0.225  11.356 -0.3278 -0.1835  0.5848
10862TIP3    H154077   4.183   0.181  11.285  0.2152  0.4250  0.5625
10862TIP3    H254078   4.093   0.299  11.314  0.8416  0.7930  1.0510
10863TIP3   OH254079   3.832   0.028  11.930 -0.0873 -0.1921  0.2180
10863TIP3    H154080   3.757  -0.006  11.979 -0.1535 -1.1301 -0.5030
10863TIP3    H254081   3.863   0.102  11.981 -1.2824 -0.0209  0.7237
10864TIP3   OH254082   0.774   3.596   3.060 -0.2323 -0.2108  0.2395
10864TIP3    H154083   0.803   3.679   3.099  0.7198  0.7055 -2.2223
10864TIP3    H254084   0.699   3.570   3.113  0.3664  1.4234  2.0209
10865TIP3   OH254085   5.521   5.670   1.654  0.2265 -0.5381 -0.4993
10865TIP3    H154086   5.442   5.627   1.622 -0.6830  0.6158  0.1300
10865TIP3    H254087   5.504   5.686   1.747 -0.1232  2.5166 -1.0064
10866TIP3   OH254088   2.573   3.747  12.142  0.3259  0.2617  0.0776
10866TIP3    H154089   2.599   3.681  12.078 -0.7846  0.5040 -0.6573
10866TIP3    H254090   2.484   3.720  12.169 -1.0235  2.5268 -1.7785
10867TIP3   OH254091   2.456   4.177   2.001 -0.2305 -0.4615 -0.6572
10867TIP3    H154092   2.473   4.130   2.083 -0.3024  2.7180  1.3335
10867TIP3    H254093   2.361   4.170   1.990 -0.7184  1.8023  1.4310
10868TIP3   OH254094   6.399   2.757  14.408 -0.2432  0.4146  0.0308
10868TIP3    H154095   6.410   2.819  14.479 -1.5253  0.6673  0.0296
10868TIP3    H254096   6.405   2.811  14.328  0.0219  0.3211 -0.0120
10869TIP3   OH254097   5.373   3.861  15.754 -0.3109  0.3396  0.2980
10869TIP3    H154098   5.366   3.770  15.780  1.2762  0.3906  1.0164
10869TIP3    H254099   5.284   3.886  15.729 -1.0924 -0.9038  1.6984
10870TIP3   OH254100   2.668   2.762   0.222 -0.3265 -0.2271  0.2673
10870TIP3    H154101   2.708   2.701   0.284  1.7973  1.2377  0.4517
10870TIP3    H254102   2.629   2.706   0.155  1.0968 -1.8215  0.7002
10871TIP3   OH254103   4.174   6.260  12.697 -0.5262 -0.3375  0.3803
10871TIP3    H154104   4.099   6.286  12.643 -0.0728 -0.3665 -0.2653
10871TIP3    H254105   4.250   6.300  12.655 -0.1864 -0.2003  1.1069
10872TIP3   OH254106   5.024   4.727  16.456 -0.2685 -0.1558  0.2113
10872TIP3    H154107   5.024   4.815  16.419  0.7567  0.0808  0.7582
10872TIP3    H254108   4.932   4.700  16.452  0.0041 -1.3794 -5.3279
10873TIP3   OH254109   0.278   1.863  15.882 -0.6914 -0.6193 -0.0350
10873TIP3    H154110   0.255   1.938  15.826 -0.4047 -0.0885  0.5515
10873TIP3    H254111   0.330   1.806  15.825  1.1734  0.7835  0.1669
10874TIP3   OH254112   1.894   4.934   1.440 -0.1028 -0.1134 -0.2776
10874TIP3    H154113   1.877   4.840   1.440 -1.6432  0.1083  1.1881
10874TIP3    H254114   1.825   4.972   1.386 -1.8017  0.4384  2.1380
10875TIP3   OH254115   5.258   5.836  15.490 -0.0117 -0.5393 -0.2569
10875TIP3    H154116   5.262   5.824  15.396  0.5367 -1.4146 -0.1446
10875TIP3    H254117   5.349   5.826  15.519  0.1397  1.6162  0.1742
10876TIP3   OH254118   6.850   4.587   3.508  0.0751  0.0085 -0.3092
10876TIP3    H154119   6.778   4.525   3.521  0.0425 -0.0843 -0.9197
10876TIP3    H254120   6.807   4.668   3.482  0.1737  0.0385 -0.3792
10877TIP3   OH254121   4.274   2.272   1.025 -0.2243  0.1921  0.2779
10877TIP3    H154122   4.292   2.183   1.055 -0.0737 -0.2960 -1.1567
10877TIP3    H254123   4.296   2.328   1.100  1.4444 -0.8384  0.6217
10878TIP3   OH254124   6.700   3.464   3.171  0.0486 -0.6516 -0.5020
10878TIP3    H154125   6.771   3.482   3.109  1.0535  2.2985  1.2929
10878TIP3    H254126   6.740   3.409   3.238  0.0350 -0.7908 -0.6095
10879TIP3   OH254127   5.869   3.469  14.085 -0.5169  0.0881 -0.4356
10879TIP3    H154128   5.925   3.394  14.066 -0.8980 -0.1223 -0.7536
10879TIP3    H254129   5.908   3.542  14.036 -0.1435  0.1015 -0.1222
10880TIP3   OH254130   1.347   3.166  11.559  0.1951  0.0610 -0.1992
10880TIP3    H154131   1.380   3.077  11.561 -0.7335 -0.2912 -0.0379
10880TIP3    H254132   1.418   3.219  11.597  0.9598 -0.5261 -0.7899
10881TIP3   OH254133   0.729   2.095  13.394 -0.4753  0.2957 -0.2785
10881TIP3    H154134   0.726   2.190  13.381  1.1459  0.4209  0.0291
10881TIP3    H254135   0.766   2.061  13.312 -0.1089  0.0333 -0.0047
10882TIP3   OH254136   5.225   5.222  13.604  0.0483 -0.2710 -0.1734
10882TIP3    H154137   5.211   5.310  13.640 -2.2095 -0.3656 -0.6718
10882TIP3    H254138   5.155   5.169  13.643  1.4510 -1.9170  0.2234
10883TIP3   OH254139   3.599   0.686   1.371  0.6236 -0.2766  0.0138
10883TIP3    H154140   3.594   0.627   1.446  0.5696  1.0729  1.1062
10883TIP3    H254141   3.616   0.628   1.296 -0.9963 -1.8463  0.7806
10884TIP3   OH254142   3.586   6.735   2.457  0.0708  0.1914  0.0081
10884TIP3    H154143   3.580   6.817   2.408 -2.4820  0.2886  0.3275
10884TIP3    H254144   3.677   6.707   2.446  0.2738  1.5149 -2.6139
10885TIP3   OH254145   2.045   4.784   6.095  0.3203  0.2082 -0.2540
10885TIP3    H154146   2.073   4.854   6.036  0.4932 -0.2876 -0.7655
10885TIP3    H254147   2.051   4.705   6.042 -0.3564 -0.1296  0.1686
10886TIP3   OH254148   1.358   4.908   3.103 -0.4912 -0.6462 -0.6121
10886TIP3    H154149   1.324   4.819   3.110 -1.7400 -0.1696 -0.3910
10886TIP3    H254150   1.335   4.950   3.185 -1.7806  0.4833 -1.5050
10887TIP3   OH254151   6.386   2.417   4.560 -0.0329  0.3318 -0.4016
10887TIP3    H154152   6.365   2.370   4.480 -0.2895 -0.4452  0.1078
10887TIP3    H254153   6.375   2.509   4.538 -2.6228  0.0398 -0.5585
10888TIP3   OH254154   1.589   4.300   3.916 -0.0781  0.0864  0.4316
10888TIP3    H154155   1.675   4.266   3.939  1.6510  2.9611 -1.0709
10888TIP3    H254156   1.562   4.249   3.840 -0.3003 -1.5959  1.6005
10889TIP3   OH254157   3.888   4.029  15.533  0.4419  0.0600  0.2933
10889TIP3    H154158   3.872   3.947  15.580  0.3932 -0.3209 -0.3741
10889TIP3    H254159   3.811   4.040  15.477  0.7565  0.2064 -0.1171
10890TIP3   OH254160   1.065   2.625  12.208 -0.2939  0.9044 -0.1854
10890TIP3    H154161   1.091   2.688  12.140  1.3733  0.2609 -0.1692
10890TIP3    H254162   1.147   2.599  12.250 -1.1851  0.4113  1.3182
10891TIP3   OH254163   4.114   1.992  13.420 -0.4250  0.4803  0.1223
10891TIP3    H154164   4.046   1.987  13.488 -2.0990  0.3985 -1.4945
10891TIP3    H254165   4.068   2.023  13.342  1.6475  1.5966 -0.7381
10892TIP3   OH254166   1.375   2.121  10.216  0.3620  0.0593  0.2072
10892TIP3    H154167   1.409   2.188  10.275  2.5844 -0.2678 -0.6029
10892TIP3    H254168   1.322   2.064  10.272  0.4685  1.0811  1.3834
10893TIP3   OH254169   5.313   3.292   4.848 -0.4235  0.4326 -0.0116
10893TIP3    H154170   5.285   3.211   4.890 -1.0750  0.3859 -0.5118
10893TIP3    H254171   5.325   3.268   4.756  0.3828  0.6716  0.0231
10894TIP3   OH254172   3.973   2.655  10.796  0.1396 -0.2733 -0.1455
10894TIP3    H154173   3.904   2.590  10.793 -1.0731  0.9716 -0.1583
10894TIP3    H254174   4.041   2.621  10.737 -0.1302 -1.8408  0.4027
10895TIP3   OH254175   3.632   4.672   2.892  0.3567  0.2380  0.2742
10895TIP3    H154176   3.664   4.635   2.974 -2.0426 -0.9725  0.7392
10895TIP3    H254177   3.602   4.760   2.915 -0.7854 -0.2860  0.8360
10896TIP3   OH254178   0.802   5.530  11.818 -0.6343 -0.2610  0.1085
10896TIP3    H154179   0.800   5.434  11.824 -0.5691 -0.3019 -0.4713
10896TIP3    H254180   0.718   5.554  11.780 -1.1324  0.0039  1.3542
10897TIP3   OH254181   1.051   5.685   5.632  0.3757  0.7203 -0.2991
10897TIP3    H154182   1.065   5.622   5.703  0.1378  1.1155  0.1020
10897TIP3    H254183   0.960   5.671   5.606  0.4793  0.5355 -0.5720
10898TIP3   OH254184   0.863   5.114  12.338  0.3310 -0.2760 -0.0683
10898TIP3    H154185   0.862   5.024  12.306  0.1826 -0.3735  0.2057
10898TIP3    H254186   0.891   5.167  12.263  1.0383 -0.6216 -0.0595
10899TIP3   OH254187   6.678   4.875  15.168  0.0074  0.6347 -0.0731
10899TIP3    H154188   6.758   4.915  15.133  0.1453  1.3646  1.0225
10899TIP3    H254189   6.702   4.785  15.188  0.8542  1.1018  1.1306
10900TIP3   OH254190   0.247   6.445  13.114 -0.4465 -0.0771  0.7334
10900TIP3    H154191   0.337   6.444  13.080 -0.4025 -0.2665  0.8563
10900TIP3    H254192   0.206   6.519  13.069 -0.3481 -0.2431  0.3666
10901TIP3   OH254193   5.296   5.776  15.203  0.1937 -0.0561 -0.0459
10901TIP3    H154194   5.388   5.780  15.229  0.5725  1.0575 -1.4211
10901TIP3    H254195   5.293   5.713  15.131 -0.0908 -0.0072 -0.0824
10902TIP3   OH254196   3.578   5.350  12.191 -0.3913 -0.3565  0.1357
10902TIP3    H154197   3.607   5.437  12.162 -0.8357  0.1017  1.0208
10902TIP3    H254198   3.487   5.363  12.217 -0.0176 -0.7135  1.7306
10903TIP3   OH254199   2.988   3.905  15.761  0.2071  0.1550 -0.5134
10903TIP3    H154200   2.947   3.978  15.713  1.0556  0.2406 -1.1369
10903TIP3    H254201   3.069   3.942  15.796 -0.3119  0.0389  0.8643
10904TIP3   OH254202   5.237   3.512   0.299  0.1853  0.3095 -0.3492
10904TIP3    H154203   5.168   3.542   0.240 -0.5534 -0.0884  0.2993
10904TIP3    H254204   5.225   3.417   0.305  1.0658  0.1736 -0.5706
10905TIP3   OH254205   3.123   2.230  16.512  0.0205  0.0047 -0.6450
10905TIP3    H154206   3.168   2.287  16.574  0.7699 -0.5695 -0.6452
10905TIP3    H254207   3.179   2.153  16.505 -1.8130 -1.5567  0.6931
10906TIP3   OH254208   1.562   2.695   2.890  0.9001 -0.3399 -0.2777
10906TIP3    H154209   1.598   2.639   2.820  1.9705  0.9602 -0.8086
10906TIP3    H254210   1.483   2.732   2.852 -0.2711 -2.0828  0.3698
10907TIP3   OH254211   1.827   6.273   3.607  0.1974 -0.1545  0.3596
10907TIP3    H154212   1.913   6.278   3.565  0.8045  1.1778  1.6650
10907TIP3    H254213   1.839   6.316   3.692 -1.4029 -1.2455  1.2019
10908TIP3   OH254214   6.269   1.993   3.898  0.2359 -0.2492 -0.1455
10908TIP3    H154215   6.357   2.024   3.921 -0.0119  0.0256  0.4540
10908TIP3    H254216   6.267   1.996   3.802 -0.3628  3.3177 -0.1623
10909TIP3   OH254217   3.024   0.592   4.125  0.3852 -0.6208  0.2473
10909TIP3    H154218   3.014   0.677   4.081  1.9760 -0.5779 -0.1007
10909TIP3    H254219   3.118   0.574   4.119  0.2381 -1.8404  1.3893
10910TIP3   OH254220   6.054   4.687  11.675  0.5770  0.0001  0.3071
10910TIP3    H154221   6.111   4.756  11.708  0.3357  0.2475  0.2121
10910TIP3    H254222   6.010   4.653  11.753 -0.5612  1.0991  0.1818
10911TIP3   OH254223   5.313   2.799  14.174 -0.0533  0.0134  0.0540
10911TIP3    H154224   5.278   2.856  14.107 -0.0982  1.0051  0.9003
10911TIP3    H254225   5.407   2.798  14.159 -0.2239 -1.3072 -1.1780
10912TIP3   OH254226   5.763   3.441  15.615 -0.2095 -0.0943 -0.5887
10912TIP3    H154227   5.769   3.383  15.691 -1.7909 -1.8524 -1.7088
10912TIP3    H254228   5.758   3.382  15.540 -3.1757  1.4054 -1.7213
10913TIP3   OH254229   3.629   1.578  12.731  0.1786 -0.0314 -0.8728
10913TIP3    H154230   3.596   1.534  12.809 -0.4737  0.3401 -0.9337
10913TIP3    H254231   3.691   1.643  12.765 -1.4559  1.4024 -0.4819
10914TIP3   OH254232   5.138   5.208   3.592 -0.1749 -0.1473  0.4114
10914TIP3    H154233   5.204   5.151   3.553  0.0820  2.1709 -2.9946
10914TIP3    H254234   5.063   5.150   3.608  0.7214 -1.8020 -1.0086
10915TIP3   OH254235   2.310   6.444   2.499 -0.1708  0.2600  0.8418
10915TIP3    H154236   2.241   6.379   2.490  0.9272 -0.7469 -1.2391
10915TIP3    H254237   2.279   6.519   2.449 -0.5494  0.5351  1.4866
10916TIP3   OH254238   6.417   3.814  14.761  0.0730  0.5051  0.0981
10916TIP3    H154239   6.347   3.804  14.697  1.2669 -1.3485 -0.9789
10916TIP3    H254240   6.388   3.763  14.837  0.0003  0.2347 -0.1128
10917TIP3   OH254241   5.565   0.670  16.239  0.1059 -0.2810  0.4485
10917TIP3    H154242   5.616   0.718  16.174  1.9643 -0.7173  1.5438
10917TIP3    H254243   5.483   0.720  16.247  0.3657  0.4799 -1.2622
10918TIP3   OH254244   3.236   5.392   3.839  0.4039 -0.0082  0.0313
10918TIP3    H154245   3.157   5.344   3.816  0.0229  0.4700  0.3162
10918TIP3    H254246   3.302   5.360   3.778  0.0902 -0.6911  0.0416
10919TIP3   OH254247   0.348   6.853   3.889 -0.3745  0.0243 -0.2017
10919TIP3    H154248   0.375   6.852   3.981 -1.5340  1.3857  0.1951
10919TIP3    H254249   0.284   6.782   3.883 -1.8359  1.2129  0.5973
10920TIP3   OH254250   5.993   6.703   0.189  0.4573  0.2508  0.2221
10920TIP3    H154251   5.978   6.609   0.178 -2.5830  0.5013  1.2948
10920TIP3    H254252   6.074   6.720   0.141  1.3627 -2.9660  0.3758
10921TIP3   OH254253   4.784   4.821   0.506  0.0147 -0.0264 -0.6699
10921TIP3    H154254   4.801   4.868   0.588  0.3148  0.2629 -0.8934
10921TIP3    H254255   4.871   4.794   0.476  0.1822  1.9651 -2.1277
10922TIP3   OH254256   0.490   5.701  16.419  0.7625 -0.1504  0.3413
10922TIP3    H154257   0.483   5.754  16.499 -0.4545  0.7487 -0.3320
10922TIP3    H254258   0.484   5.611  16.450  1.6906  0.1245  1.3942
10923TIP3   OH254259   6.239   2.704   1.328  0.6544  0.1285  0.2917
10923TIP3    H154260   6.275   2.737   1.246 -0.4358  0.9595  0.1251
10923TIP3    H254261   6.164   2.761   1.346  0.8803 -0.0319  1.8705
10924TIP3   OH254262   2.315   2.610  11.712 -0.3657  0.2582  0.1086
10924TIP3    H154263   2.222   2.587  11.717 -0.5364  0.5950 -1.1165
10924TIP3    H254264   2.354   2.542  11.659  0.3777 -0.6076  1.7042
10925TIP3   OH254265   3.125   5.335   1.811 -0.5154 -0.6576 -0.4727
10925TIP3    H154266   3.044   5.374   1.846  0.1723  0.7687 -0.4017
10925TIP3    H254267   3.101   5.307   1.722 -0.9160  0.3914 -0.7113
10926TIP3   OH254268   2.905   2.808   4.833  0.3683  0.1560 -0.7575
10926TIP3    H154269   2.907   2.901   4.812 -0.4253  0.4057  0.1927
10926TIP3    H254270   2.904   2.805   4.929  0.3058 -0.8311 -0.7765
10927TIP3   OH254271   4.567   3.223  16.113 -0.6254  0.0911 -0.2114
10927TIP3    H154272   4.574   3.165  16.036 -1.8928  0.9298 -0.9811
10927TIP3    H254273   4.566   3.311  16.077 -1.0890  0.5103  0.7917
10928TIP3   OH254274   5.649   6.384  13.445 -0.1935 -0.0324 -0.1468
10928TIP3    H154275   5.557   6.368  13.426 -0.5072 -0.1529  1.3353
10928TIP3    H254276   5.656   6.374  13.540  1.0624  1.4189 -0.0516
10929TIP3   OH254277   4.328   5.824   0.588 -0.6625  0.2621 -0.1809
10929TIP3    H154278   4.304   5.912   0.560 -0.4115  0.8036  1.2724
10929TIP3    H254279   4.273   5.766   0.534  0.8786  1.1641 -2.9047
10930TIP3   OH254280   5.149   3.211   6.074  0.3618 -0.0987  0.3389
10930TIP3    H154281   5.124   3.226   5.983  0.8118  0.9651  0.3755
10930TIP3    H254282   5.084   3.148   6.106 -1.2901  1.3117 -0.0363
10931TIP3   OH254283   6.248   4.388  12.787  0.0937 -0.4311  0.3622
10931TIP3    H154284   6.205   4.352  12.710  0.1669  0.0222  0.1063
10931TIP3    H254285   6.309   4.453  12.752 -0.4707  0.3770  0.8582
10932TIP3   OH254286   1.716   4.171  13.384  0.0253  0.4366 -0.1250
10932TIP3    H154287   1.742   4.114  13.456 -1.5804 -1.0422 -0.6582
10932TIP3    H254288   1.697   4.111  13.312 -2.9822  1.4941 -0.3222
10933TIP3   OH254289   4.409   6.207  16.608 -0.0199 -0.0680 -0.1110
10933TIP3    H154290   4.368   6.130  16.569  1.2839 -0.2860 -1.1139
10933TIP3    H254291   4.348   6.279  16.590  0.6520 -0.0709 -2.9758
10934TIP3   OH254292   2.400   5.884   5.538  0.3078 -0.0191  0.0311
10934TIP3    H154293   2.388   5.895   5.443 -1.8853  0.9277  0.3695
10934TIP3    H254294   2.450   5.802   5.546  1.6824  0.5507 -1.9606
10935TIP3   OH254295   5.948   4.265   1.164 -0.5077  0.7554 -0.5308
10935TIP3    H154296   5.919   4.345   1.208 -2.7937  0.0110 -0.5458
10935TIP3    H254297   5.872   4.207   1.168  0.7094 -0.9907 -1.5509
10936TIP3   OH254298   1.777   0.132  13.115 -0.0825 -0.1464 -0.0464
10936TIP3    H154299   1.706   0.178  13.159 -0.2665 -0.1308 -0.3575
10936TIP3    H254300   1.762   0.147  13.021  1.0671  0.9520 -0.0817
10937TIP3   OH254301   4.095   0.481  12.531  0.5499  0.5052 -0.3153
10937TIP3    H154302   4.163   0.476  12.464 -0.7440 -0.0530 -1.6319
10937TIP3    H254303   4.036   0.409  12.511 -0.6943  1.2637  0.4906
10938TIP3   OH254304   6.722   1.293   4.483  0.3149  0.6502  0.2212
10938TIP3    H154305   6.666   1.281   4.560 -0.8581  1.1636 -0.5127
10938TIP3    H254306   6.686   1.231   4.419  0.9574  0.5872 -0.0801
10939TIP3   OH254307   6.695   5.226   4.609 -0.7488  0.0949  0.8832
10939TIP3    H154308   6.729   5.206   4.521 -2.1736 -0.2223  0.3827
10939TIP3    H254309   6.740   5.306   4.634  0.5080 -0.4047  0.3346
10940TIP3   OH254310   1.153   2.673  12.857 -0.0103  0.6106 -0.1570
10940TIP3    H154311   1.093   2.598  12.854  0.2470  0.4237 -1.8610
10940TIP3    H254312   1.169   2.694  12.765  1.5168  1.4730  0.2708
10941TIP3   OH254313   3.425   1.365  15.916 -0.7239  0.2467  0.3064
10941TIP3    H154314   3.388   1.284  15.880 -0.4165 -0.5288  1.6682
10941TIP3    H254315   3.476   1.402  15.844 -2.1582  0.0905 -0.8501
10942TIP3   OH254316   0.013   0.041   0.628 -0.2554  0.2843  0.3581
10942TIP3    H154317   0.044  -0.044   0.659  0.1786  0.3880  0.2133
10942TIP3    H254318  -0.027   0.081   0.705 -0.9422 -0.2692  0.2959
10943TIP3   OH254319   3.196   2.655   2.697  0.3850  0.6500  0.2218
10943TIP3    H154320   3.237   2.623   2.617  1.7139  0.9644  0.7583
10943TIP3    H254321   3.164   2.576   2.741  1.6281  0.2511  0.4375
10944TIP3   OH254322   5.835   5.160  15.844 -0.6845  0.5161  0.3311
10944TIP3    H154323   5.785   5.197  15.771  0.6882  0.7336 -0.5403
10944TIP3    H254324   5.768   5.128  15.905 -2.0275 -2.1620 -2.2280
10945TIP3   OH254325   4.203   1.763  17.021 -0.2095  0.0412 -0.0597
10945TIP3    H154326   4.251   1.778  17.102 -0.2020 -0.9327  0.1265
10945TIP3    H254327   4.249   1.690  16.979 -2.1804 -1.7148  0.6836
10946TIP3   OH254328   2.778   4.780  12.638  0.0049 -0.3092 -0.5180
10946TIP3    H154329   2.696   4.798  12.682  0.7779 -0.5339  1.0946
10946TIP3    H254330   2.776   4.686  12.620 -0.2408 -0.2482 -0.8079
10947TIP3   OH254331   2.276   1.987  10.887  0.2671 -0.5118  0.4274
10947TIP3    H154332   2.247   2.058  10.831 -0.1546 -0.2722  0.9353
10947TIP3    H254333   2.348   1.945  10.839  0.9979  0.6923  0.4290
10948TIP3   OH254334   6.570   6.323  14.410 -0.0934 -0.1738  0.2891
10948TIP3    H154335   6.535   6.325  14.320  2.7401 -1.0416 -0.9318
10948TIP3    H254336   6.639   6.389  14.410 -0.6329  0.4415  2.1490
10949TIP3   OH254337   2.654   6.366  12.537  0.2128 -0.0706 -0.2256
10949TIP3    H154338   2.589   6.375  12.467  0.7645 -0.4289 -0.7892
10949TIP3    H254339   2.602   6.362  12.617 -0.3903  1.3199 -0.5158
10950TIP3   OH254340   5.597   6.050  12.881  0.2540 -0.3898 -0.6447
10950TIP3    H154341   5.534   5.995  12.835  0.3073 -0.7361 -0.3051
10950TIP3    H254342   5.610   6.126  12.823 -1.9513  0.6528  0.1084
10951TIP3   OH254343   4.653   5.165  16.953  0.1814 -0.5391  1.0125
10951TIP3    H154344   4.723   5.100  16.949  0.0083 -0.7411  1.2042
10951TIP3    H254345   4.680   5.234  16.893 -1.5518 -2.6261 -2.4712
10952TIP3   OH254346   2.895   6.156  12.108 -0.0883  0.1943  0.0496
10952TIP3    H154347   2.822   6.120  12.158 -2.4525  1.5823 -2.1601
10952TIP3    H254348   2.903   6.246  12.138 -2.4662  1.5007 -2.7359
10953TIP3   OH254349   1.441   0.599  13.826 -0.3919 -0.6073  0.1449
10953TIP3    H154350   1.504   0.565  13.889  0.3537 -0.4153 -0.4753
10953TIP3    H254351   1.383   0.525  13.806 -1.3037 -0.3830  1.8350
10954TIP3   OH254352   1.872   0.131  16.103  0.4603 -0.6596  0.1973
10954TIP3    H154353   1.925   0.204  16.135 -0.9973  0.4790  0.1561
10954TIP3    H254354   1.817   0.170  16.035 -0.9585 -1.5805  0.7670
10955TIP3   OH254355   6.217   3.643  13.551 -0.2409 -0.4024 -0.2307
10955TIP3    H154356   6.180   3.686  13.474 -0.6427  0.2056  0.2961
10955TIP3    H254357   6.229   3.552  13.523  2.5130  0.3763 -2.0554
10956TIP3   OH254358   5.472   0.767  13.276  0.4889  0.1776 -0.1112
10956TIP3    H154359   5.377   0.772  13.287  0.4961  2.7974 -0.5307
10956TIP3    H254360   5.486   0.767  13.182  0.9217 -3.9889 -0.2343
10957TIP3   OH254361   1.718   1.383   3.844 -0.0890  0.3675 -0.0963
10957TIP3    H154362   1.810   1.358   3.849  0.2486  1.6158  0.3173
10957TIP3    H254363   1.708   1.423   3.758 -0.2743  0.1647 -0.1713
10958TIP3   OH254364   1.666   6.573  14.569 -0.2203 -0.1150 -0.1240
10958TIP3    H154365   1.708   6.555  14.485 -0.6794 -0.1483 -0.3529
10958TIP3    H254366   1.718   6.526  14.634  1.7797  2.0774 -0.0117
10959TIP3   OH254367   6.156   4.495  14.887 -0.0763 -0.1762 -0.2089
10959TIP3    H154368   6.239   4.531  14.920 -0.4620 -0.6004  1.2462
10959TIP3    H254369   6.117   4.451  14.962 -1.3697 -0.4663 -1.0301
10960TIP3   OH254370   4.191   5.114  17.032  0.0866  0.3422  0.3003
10960TIP3    H154371   4.247   5.074  17.098  0.2622  1.8439  1.1042
10960TIP3    H254372   4.144   5.183  17.079 -1.1484  0.2634 -0.7474
10961TIP3   OH254373   5.264   2.525  14.238  0.6638  0.3256  0.6328
10961TIP3    H154374   5.317   2.466  14.184 -0.4191  0.0581 -0.1817
10961TIP3    H254375   5.297   2.612  14.216  0.9839  0.1479  0.3857
10962TIP3   OH254376   3.725   1.594  14.547 -0.3702 -0.4348  0.4715
10962TIP3    H154377   3.666   1.529  14.585 -0.2692  0.1163  1.6291
10962TIP3    H254378   3.672   1.673  14.541 -0.5481 -0.6453 -1.1058
10963TIP3   OH254379   0.337   2.496   6.565  0.0422 -0.4912 -0.2620
10963TIP3    H154380   0.399   2.429   6.537  1.1927  0.0331  0.9147
10963TIP3    H254381   0.251   2.454   6.559  0.8127 -2.5607  1.7101
10964TIP3   OH254382   5.906   1.337   4.772  0.1115  0.0727  0.0486
10964TIP3    H154383   5.812   1.319   4.761  0.3849 -1.0364 -0.6651
10964TIP3    H254384   5.940   1.259   4.816  0.7127  0.4341  0.2289
10965TIP3   OH254385   2.238   5.119  13.736  0.1994  0.4907 -0.4246
10965TIP3    H154386   2.152   5.135  13.774 -0.1033  2.2791 -1.7465
10965TIP3    H254387   2.299   5.164  13.795  0.1526 -0.0180  0.0216
10966TIP3   OH254388   6.754   0.529   1.657  0.2208  0.6245  0.1256
10966TIP3    H154389   6.677   0.563   1.703 -0.4788  0.5598 -0.9634
10966TIP3    H254390   6.756   0.577   1.574  0.3561 -0.5668 -0.5933
10967TIP3   OH254391   5.702   0.249   3.411  0.1852  0.3265  0.3339
10967TIP3    H154392   5.687   0.314   3.479  0.9515 -0.2891  1.1046
10967TIP3    H254393   5.755   0.294   3.346 -2.7019  1.7641 -1.2299
10968TIP3   OH254394   4.478   0.540  14.389 -0.0815 -0.3460  0.2702
10968TIP3    H154395   4.440   0.617  14.349  2.0090  0.8963  0.5285
10968TIP3    H254396   4.469   0.471  14.322 -0.7901  0.4604 -0.4871
10969TIP3   OH254397   1.253   6.374   4.471 -0.3797 -0.1914 -0.7305
10969TIP3    H154398   1.192   6.310   4.434 -2.1582  1.0269 -0.0394
10969TIP3    H254399   1.284   6.424   4.396 -2.0478  0.6541 -0.8997
10970TIP3   OH254400   1.905   1.128   2.888  0.0461  1.1957 -0.0637
10970TIP3    H154401   1.895   1.206   2.942 -0.3129  3.1075 -2.6790
10970TIP3    H254402   1.990   1.139   2.845  0.1000  0.0156 -0.3122
10971TIP3   OH254403   6.686   0.992  15.599 -0.3985 -0.2867 -0.0986
10971TIP3    H154404   6.731   0.927  15.544 -1.7544 -0.9028 -0.5077
10971TIP3    H254405   6.705   0.965  15.689 -1.8188 -1.9229 -0.2455
10972TIP3   OH254406   4.569   3.600  16.723  0.4423  0.0494  0.2056
10972TIP3    H154407   4.515   3.590  16.645 -0.5656 -0.5865  0.9489
10972TIP3    H254408   4.606   3.513  16.737  0.7578  0.2049  0.3382
10973TIP3   OH254409   4.367   2.302   0.546  0.6577  0.3715  0.3246
10973TIP3    H154410   4.428   2.376   0.540  3.7570 -2.0819 -2.0324
10973TIP3    H254411   4.295   2.326   0.487  1.6152  1.5217 -0.4340
10974TIP3   OH254412   3.535   0.391   5.977  0.4302  0.4852  0.2108
10974TIP3    H154413   3.530   0.334   6.054 -1.6846  2.3201  1.5645
10974TIP3    H254414   3.490   0.343   5.909 -0.6425  0.1832  1.1060
10975TIP3   OH254415   2.870   3.813  16.587  0.2394  0.1342  0.0623
10975TIP3    H154416   2.803   3.855  16.533  0.2525  0.0655 -0.0067
10975TIP3    H254417   2.953   3.848  16.553  0.3142 -0.6929 -0.6482
10976TIP3   OH254418   1.949   6.690   4.643 -0.1730 -0.2191 -0.4056
10976TIP3    H154419   1.949   6.785   4.650  0.4257 -0.1809 -0.7642
10976TIP3    H254420   1.861   6.667   4.614 -0.5824  0.1525  0.5298
10977TIP3   OH254421   4.025   3.950  16.678 -0.0759 -0.4198 -0.4300
10977TIP3    H154422   3.992   3.887  16.614 -1.7559  0.1168 -0.1332
10977TIP3    H254423   4.037   4.031  16.630 -1.0052 -0.1105 -0.1571
10978TIP3   OH254424   3.883   1.501  12.581 -0.3482  0.2403 -0.1747
10978TIP3    H154425   3.958   1.471  12.530  0.8822  3.8959 -0.7747
10978TIP3    H254426   3.914   1.578  12.628 -3.5314  1.4960  0.1713
10979TIP3   OH254427   4.901   2.723  11.339 -0.5769  0.5317 -0.5279
10979TIP3    H154428   4.941   2.636  11.332 -1.1355  0.0555  1.5371
10979TIP3    H254429   4.918   2.764  11.254 -0.7318 -1.7639 -1.7440
10980TIP3   OH254430   1.427   1.392  14.325  0.9036  0.4637  0.5021
10980TIP3    H154431   1.345   1.435  14.303  0.1116 -0.2990  1.8434
10980TIP3    H254432   1.493   1.439  14.274 -0.2100  1.7937  0.2346
10981TIP3   OH254433   6.360   1.123  16.436  0.1510  0.0417  0.4207
10981TIP3    H154434   6.444   1.077  16.433 -0.0567 -0.3044 -0.3640
10981TIP3    H254435   6.352   1.150  16.527  1.1668  0.1838  0.4872
10982TIP3   OH254436   3.808   4.118   0.496 -0.1382 -0.5402 -0.2669
10982TIP3    H154437   3.721   4.141   0.464 -0.1353  1.0554  0.7654
10982TIP3    H254438   3.867   4.180   0.453  0.0596  0.5152  1.4251
10983TIP3   OH254439   5.244   5.571  11.338  0.5460  1.0125 -0.1156
10983TIP3    H154440   5.172   5.539  11.392 -1.2504  1.1245 -2.2696
10983TIP3    H254441   5.248   5.665  11.358  0.8020  0.8213  0.7662
10984TIP3   OH254442   3.006   0.383  14.805 -0.1756  0.0499  0.6241
10984TIP3    H154443   3.051   0.409  14.886  0.3747 -2.4287  1.2231
10984TIP3    H254444   2.960   0.302  14.829  0.5761 -1.1422 -1.7030
10985TIP3   OH254445   0.737   5.497  14.570  0.3454 -0.2504 -0.5931
10985TIP3    H154446   0.663   5.531  14.622  1.1363  1.3539 -0.4389
10985TIP3    H254447   0.761   5.415  14.613  1.8897  1.6748  2.5809
10986TIP3   OH254448   6.840   3.483   0.994  0.3619 -0.2576 -0.2612
10986TIP3    H154449   6.874   3.458   1.080 -1.0929 -2.2553 -0.2093
10986TIP3    H254450   6.913   3.530   0.953  1.5519 -0.4187  1.5451
10987TIP3   OH254451   6.326   2.660   4.779  0.4589 -0.6082  0.9174
10987TIP3    H154452   6.392   2.718   4.817  0.1268 -0.2389  0.9442
10987TIP3    H254453   6.361   2.572   4.792  1.0519 -0.4050  0.7162
10988TIP3   OH254454   2.344   4.561   2.233 -0.2183 -0.1222  1.6120
10988TIP3    H154455   2.389   4.477   2.235  3.0171  1.3642 -0.7788
10988TIP3    H254456   2.320   4.573   2.141  0.2902  1.9952  1.7166
10989TIP3   OH254457   6.034   4.291   2.299  0.0395 -0.2825  1.0707
10989TIP3    H154458   5.961   4.259   2.245 -0.0948  0.7158  0.6399
10989TIP3    H254459   6.099   4.221   2.295  0.1446 -0.1222 -0.6213
10990TIP3   OH254460   5.279   2.032  14.890  0.0889  0.0542 -0.3262
10990TIP3    H154461   5.217   2.041  14.963 -0.7415  1.9642 -1.2212
10990TIP3    H254462   5.274   1.939  14.867 -2.7021  0.1753 -0.5492
10991TIP3   OH254463   1.070   2.539   3.686  0.2937 -0.8947  0.2901
10991TIP3    H154464   1.149   2.579   3.722  0.1529 -0.7786  0.4720
10991TIP3    H254465   1.034   2.607   3.629 -0.1062 -0.6494  0.8296
10992TIP3   OH254466   5.151   5.787   0.720 -0.0738 -0.6639  0.2899
10992TIP3    H154467   5.239   5.806   0.754 -0.5344  0.4764  0.9041
10992TIP3    H254468   5.166   5.748   0.634  1.0063  1.2813 -0.4592
10993TIP3   OH254469   4.271   3.358   3.420  0.6341  0.3925  0.2835
10993TIP3    H154470   4.308   3.277   3.455  1.2818  0.9711  0.9788
10993TIP3    H254471   4.347   3.412   3.396  0.2102  0.6831 -0.4527
10994TIP3   OH254472   4.388   4.811  16.027 -0.3080  0.2732  0.0755
10994TIP3    H154473   4.371   4.786  15.936 -1.8895 -2.2823  0.9566
10994TIP3    H254474   4.467   4.764  16.051  0.6169  1.6487 -0.1920
10995TIP3   OH254475   2.136   1.263  15.348 -0.6897  0.6647 -0.1849
10995TIP3    H154476   2.130   1.244  15.441 -0.4772 -2.4166 -0.6925
10995TIP3    H254477   2.113   1.181  15.305  0.5893  1.5592 -2.8372
10996TIP3   OH254478   5.161   2.707  13.009  0.1350 -0.2034 -0.7078
10996TIP3    H154479   5.191   2.713  13.099 -0.4149 -2.1474 -0.3619
10996TIP3    H254480   5.114   2.789  12.994 -1.1781 -0.5112  1.3204
10997TIP3   OH254481   5.647   3.731   3.016 -0.3550  0.1221 -0.0196
10997TIP3    H154482   5.639   3.700   2.925 -0.5135  0.8824 -0.2696
10997TIP3    H254483   5.642   3.826   3.009  2.8026  0.4208  0.4355
10998TIP3   OH254484   2.434   2.707   2.941  0.1783 -0.1287  0.0072
10998TIP3    H154485   2.341   2.687   2.934 -0.0239  1.1266 -1.1678
10998TIP3    H254486   2.460   2.668   3.024 -1.5542  0.1159  0.7098
10999TIP3   OH254487   2.918   0.877   0.978 -0.3784 -0.0365  0.3291
10999TIP3    H154488   2.988   0.856   0.917 -2.1827 -3.5883 -0.7677
10999TIP3    H254489   2.963   0.905   1.058  2.2386 -0.9801 -0.7253
11000TIP3   OH254490   1.528   4.111   4.185  0.6462 -0.3791  0.5933
11000TIP3    H154491   1.465   4.153   4.244  1.3025  1.6254 -0.0386
11000TIP3    H254492   1.475   4.063   4.122 -0.1782 -0.1397  1.0929
11001TIP3   OH254493   5.077   0.905  16.737  0.2262 -0.3431 -0.3381
11001TIP3    H154494   5.018   0.831  16.752  0.3401 -0.4341 -0.3368
11001TIP3    H254495   5.142   0.871  16.675  0.8311 -0.5346  0.3847
11002TIP3   OH254496   0.812   2.508  15.176  0.4398  0.3070  0.1349
11002TIP3    H154497   0.813   2.558  15.094 -0.9504  0.6560  0.3123
11002TIP3    H254498   0.820   2.417  15.149 -0.6349  0.3758 -0.4347
11003TIP3   OH254499   3.534   5.240   2.902 -0.9540 -0.1616  0.1210
11003TIP3    H154500   3.568   5.155   2.874  0.3133  0.9050 -1.7840
11003TIP3    H254501   3.492   5.276   2.824  0.2674  1.7794  0.2952
11004TIP3   OH254502   0.297   3.574   1.476  0.4925  0.5549  0.3826
11004TIP3    H154503   0.356   3.499   1.466  0.4520  0.5107  0.4803
11004TIP3    H254504   0.307   3.601   1.567 -0.0797  0.1779  0.5618
11005TIP3   OH254505   5.985   1.020   0.085  0.3013  0.3605 -0.1798
11005TIP3    H154506   5.901   1.023   0.040  1.4975  0.5212 -2.5506
11005TIP3    H254507   6.033   0.948   0.042  1.3561  0.2159  1.1723
11006TIP3   OH254508   6.684   3.057   4.987 -0.0630 -0.4259 -0.0018
11006TIP3    H154509   6.746   3.075   5.058 -0.1754  2.8465 -0.5993
11006TIP3    H254510   6.621   3.129   4.991 -3.5996 -3.2028  0.1557
11007TIP3   OH254511   5.774   2.705   3.930  0.2885 -0.1254  0.3842
11007TIP3    H154512   5.830   2.779   3.908  0.5076 -0.1028  1.0122
11007TIP3    H254513   5.757   2.662   3.846  0.7602  0.2100  0.1157
11008TIP3   OH254514   3.206   4.595   1.169  0.2340  0.0832  0.4766
11008TIP3    H154515   3.272   4.649   1.126  0.5487 -0.4413  0.2862
11008TIP3    H254516   3.138   4.657   1.197  1.3242  0.7707  1.6662
11009TIP3   OH254517   0.398   6.337  16.539 -0.1117  0.0503  0.1867
11009TIP3    H154518   0.454   6.339  16.462 -0.4592  1.2454 -0.0512
11009TIP3    H254519   0.422   6.256  16.584 -0.5335 -1.1196 -1.6219
11010TIP3   OH254520   6.555   0.301  11.987 -0.1286  0.2087  0.3181
11010TIP3    H154521   6.545   0.394  12.008 -1.6329  0.5113 -1.4532
11010TIP3    H254522   6.478   0.260  12.027 -0.3613  0.0194 -0.3071
11011TIP3   OH254523   2.625   4.658  14.199  0.2484  0.1698  0.3483
11011TIP3    H154524   2.618   4.753  14.199  0.7833  0.4091 -4.0317
11011TIP3    H254525   2.711   4.640  14.161 -0.4009 -2.0272 -0.2363
11012TIP3   OH254526   4.992   3.564  15.529  0.4752 -0.1588 -0.5709
11012TIP3    H154527   4.900   3.581  15.551  0.3615 -1.1236 -0.2520
11012TIP3    H254528   5.019   3.495  15.590  1.3687 -0.0045 -0.7720
11013TIP3   OH254529   3.326   3.461  12.888  0.0538  0.3924  0.2140
11013TIP3    H154530   3.336   3.415  12.805 -1.2708  1.2494 -0.4558
11013TIP3    H254531   3.246   3.425  12.926 -1.3806  2.5040 -0.6267
11014TIP3   OH254532   1.301   3.529   3.949 -0.7073 -0.5736  0.0798
11014TIP3    H154533   1.359   3.550   4.023  0.3934 -0.0281 -0.9074
11014TIP3    H254534   1.245   3.459   3.982  1.5633 -2.2508  0.5788
11015TIP3   OH254535   6.634   1.780   5.077  0.0729  0.1400  0.3718
11015TIP3    H154536   6.605   1.731   5.154  1.1097  0.0464  0.7203
11015TIP3    H254537   6.670   1.861   5.113 -1.3912  1.0572 -0.1799
11016TIP3   OH254538   0.115   3.291   2.553 -0.1968 -0.0339 -0.6704
11016TIP3    H154539   0.141   3.200   2.535 -0.7151  0.1866 -2.9093
11016TIP3    H254540   0.169   3.317   2.627  1.2139 -1.6372 -1.0562
11017TIP3   OH254541   1.602   5.765  16.084 -0.3252  0.2445  0.3503
11017TIP3    H154542   1.589   5.673  16.108 -2.3284  0.4111  0.1029
11017TIP3    H254543   1.661   5.762  16.009  0.6098 -0.7403  1.0996
11018TIP3   OH254544   6.798   0.085   6.201 -1.1529  0.0113  0.1589
11018TIP3    H154545   6.800   0.175   6.234 -1.3540  0.1387 -0.1711
11018TIP3    H254546   6.778   0.032   6.278 -1.0604  0.2501  0.3502
11019TIP3   OH254547   0.966   1.932   1.103 -0.0590  0.2358 -0.2425
11019TIP3    H154548   1.020   1.996   1.057 -1.1465  0.8741 -0.6569
11019TIP3    H254549   0.943   1.867   1.037 -2.1906  1.5131 -0.8532
11020TIP3   OH254550   3.744   4.127  16.798 -0.3067 -0.0025  0.1821
11020TIP3    H154551   3.771   4.213  16.831 -0.8186  0.2266  0.0211
11020TIP3    H254552   3.823   4.090  16.759 -0.2974  0.8015 -0.5974
11021TIP3   OH254553   0.519   5.706  14.634 -0.9219 -0.0492 -0.0434
11021TIP3    H154554   0.474   5.748  14.560 -0.7991 -1.3535 -0.8896
11021TIP3    H254555   0.612   5.724  14.618 -0.9606  0.5964  0.4052
11022TIP3   OH254556   4.759   2.771   5.926 -0.3257  0.7144 -0.3137
11022TIP3    H154557   4.748   2.786   6.020  0.9074  0.4940 -0.1230
11022TIP3    H254558   4.736   2.679   5.913 -0.9445  0.8606 -0.3222
11023TIP3   OH254559   5.229   3.413   4.196  0.1954 -0.2947 -0.8767
11023TIP3    H154560   5.168   3.487   4.197  1.3119  0.6899 -1.9181
11023TIP3    H254561   5.175   3.337   4.217 -1.4990  0.4539 -2.2409
11024TIP3   OH254562   6.211   1.586   4.987  0.3303 -0.0756  0.3591
11024TIP3    H154563   6.286   1.546   4.943 -0.0590  0.4316 -0.7845
11024TIP3    H254564   6.154   1.615   4.916 -0.0743  1.2245  1.1787
11025TIP3   OH254565   0.327   0.610  11.223  0.0177 -0.6306 -0.3196
11025TIP3    H154566   0.389   0.681  11.205 -1.7879  1.2420  0.4527
11025TIP3    H254567   0.360   0.569  11.302 -0.9612  1.9884  1.5881
11026TIP3   OH254568   6.641   3.029  15.596  0.6856 -0.6199  0.3254
11026TIP3    H154569   6.692   3.061  15.671  0.8823 -0.4450  0.1160
11026TIP3    H254570   6.591   2.955  15.632  0.6360 -0.4190  0.6770
11027TIP3   OH254571   0.743   6.685   2.426 -0.1523  0.0780 -0.1722
11027TIP3    H154572   0.699   6.626   2.365  0.3611 -1.1580  0.5952
11027TIP3    H254573   0.676   6.705   2.491  0.7502 -3.5300  2.2166
11028TIP3   OH254574   2.207   6.697   2.364  0.2338  0.0547 -0.0879
11028TIP3    H154575   2.192   6.726   2.274 -0.3047  1.1524  0.3398
11028TIP3    H254576   2.139   6.740   2.415  1.5704  0.8434  1.1053
11029TIP3   OH254577   5.240   2.396   1.145  0.2570  0.3365  0.1056
11029TIP3    H154578   5.273   2.359   1.227 -0.3085 -1.1296 -0.2922
11029TIP3    H254579   5.306   2.371   1.080  0.2886  0.7792 -0.0379
11030TIP3   OH254580   6.406   4.605   2.476 -0.1594  0.3825 -0.0557
11030TIP3    H154581   6.436   4.666   2.408  1.0997 -0.0423  0.0922
11030TIP3    H254582   6.458   4.626   2.553  0.4953 -1.0252 -0.0748
11031TIP3   OH254583   4.132   0.832   1.768 -0.2423  1.0224  0.0284
11031TIP3    H154584   4.154   0.812   1.677  1.3989 -0.7715  0.7536
11031TIP3    H254585   4.212   0.869   1.804 -0.0269 -0.6048  1.3545
11032TIP3   OH254586   5.144   1.309   2.806 -0.0343 -0.0374 -0.2121
11032TIP3    H154587   5.234   1.309   2.840 -0.4480  2.7031  1.1254
11032TIP3    H254588   5.152   1.344   2.717  0.2877 -0.7263 -0.4658
11033TIP3   OH254589   6.752   6.514   1.159  0.0757  0.2168 -0.8272
11033TIP3    H154590   6.672   6.471   1.189  0.5515 -0.0547  0.0912
11033TIP3    H254591   6.736   6.533   1.066 -0.3330 -1.5317 -1.1519
11034TIP3   OH254592   5.812   4.511  10.692  0.3176 -0.0944  0.3724
11034TIP3    H154593   5.765   4.594  10.702  0.1992 -0.0972 -0.1416
11034TIP3    H254594   5.813   4.495  10.598 -1.5562 -1.7287  0.5488
11035TIP3   OH254595   1.917   0.649   4.903 -0.9897 -0.3974 -0.5037
11035TIP3    H154596   1.980   0.658   4.975  1.9428 -0.6711 -2.8349
11035TIP3    H254597   1.832   0.640   4.947  0.4627  0.4651  2.8547
11036TIP3   OH254598   5.685   6.066  11.800 -0.1367 -0.1642  0.2277
11036TIP3    H154599   5.621   6.011  11.754  1.4629 -1.9740  0.0476
11036TIP3    H254600   5.652   6.071  11.889 -1.3175  0.2256 -0.2080
11037TIP3   OH254601   2.179   2.343  11.095 -0.0911  0.4314  0.1220
11037TIP3    H154602   2.141   2.350  11.008  1.1076  2.0106 -0.3339
11037TIP3    H254603   2.274   2.340  11.080  0.3508  3.7008  1.3730
11038TIP3   OH254604   5.562   0.656   4.747  0.2353  0.1209  0.4141
11038TIP3    H154605   5.568   0.664   4.842  0.8255 -1.4178  0.5160
11038TIP3    H254606   5.576   0.563   4.729  0.1338  0.3894 -1.1805
11039TIP3   OH254607   0.534   5.095  14.458 -0.6816 -0.7158  0.7732
11039TIP3    H154608   0.525   5.187  14.484 -0.3027 -0.3429 -0.3397
11039TIP3    H254609   0.606   5.062  14.512 -0.8382 -0.3650  1.2031
11040TIP3   OH254610   3.616   5.653  15.368 -0.2787  0.0194 -0.1422
11040TIP3    H154611   3.668   5.707  15.309 -0.6545  0.0739 -0.4277
11040TIP3    H254612   3.534   5.638  15.321 -0.0219 -1.1552 -0.2509
11041TIP3   OH254613   0.619   5.094  10.721 -0.3124  0.0294  0.3865
11041TIP3    H154614   0.654   5.046  10.796  0.1607  1.9071  1.4449
11041TIP3    H254615   0.696   5.111  10.666  0.4866  3.3151  2.2365
11042TIP3   OH254616   2.992   2.465  15.342 -0.2389 -0.4191  0.5306
11042TIP3    H154617   3.025   2.496  15.257 -1.7755  1.1185  0.4461
11042TIP3    H254618   3.059   2.402  15.371  1.9774  1.3975 -0.3027
11043TIP3   OH254619   5.966   3.953   1.241 -0.0480  0.8779 -0.0615
11043TIP3    H154620   5.872   3.960   1.259 -0.5359 -1.7020 -1.2183
11043TIP3    H254621   5.976   3.990   1.153  0.0503  1.1509  0.0609
11044TIP3   OH254622   4.170   6.105  11.204 -0.0882  0.4244  0.2305
11044TIP3    H154623   4.235   6.085  11.137  0.7097 -0.0823  1.1296
11044TIP3    H254624   4.087   6.110  11.156 -0.0751 -3.0787 -0.4335
11045TIP3   OH254625   3.144   4.335   2.189 -0.4547 -0.0504  0.3800
11045TIP3    H154626   3.225   4.284   2.197  0.4808  1.5740  1.8313
11045TIP3    H254627   3.103   4.328   2.275 -0.9864  0.5690  0.1812
11046TIP3   OH254628   5.046   0.731  12.871  0.1206 -0.5705 -0.3651
11046TIP3    H154629   5.059   0.685  12.789  0.6930  0.6060 -0.9591
11046TIP3    H254630   4.985   0.802  12.850  0.1724 -0.3365  0.2355
11047TIP3   OH254631   4.368   5.462   5.530  0.2670 -0.3707 -0.4674
11047TIP3    H154632   4.448   5.495   5.572  1.6319  0.9574 -3.7808
11047TIP3    H254633   4.396   5.439   5.441 -2.9695 -0.2037 -1.6430
11048TIP3   OH254634   1.442   6.154   6.682 -0.1739  0.3050  0.2090
11048TIP3    H154635   1.389   6.075   6.689  0.6284 -0.3575 -0.7564
11048TIP3    H254636   1.484   6.147   6.596  2.0138  0.4233  1.1888
11049TIP3   OH254637   5.100   1.156   1.207 -1.0357  0.7754 -0.2155
11049TIP3    H154638   5.024   1.099   1.220  0.4507 -1.5503 -1.1282
11049TIP3    H254639   5.141   1.161   1.294  0.4077 -2.0526 -0.6311
11050TIP3   OH254640   2.637   3.677   3.005 -0.4270  0.9405  0.2044
11050TIP3    H154641   2.590   3.595   3.023  1.9262 -0.6413 -0.4206
11050TIP3    H254642   2.583   3.722   2.940 -1.3064 -0.5679 -0.1530
11051TIP3   OH254643   3.948   6.457  14.277  0.4565 -0.1954 -0.4017
11051TIP3    H154644   3.978   6.429  14.191  0.1560  1.7077 -1.1798
11051TIP3    H254645   4.022   6.507  14.313 -0.3002  1.2117 -0.6971
11052TIP3   OH254646   0.723   5.214   1.901 -0.1974  0.0849 -0.1749
11052TIP3    H154647   0.686   5.289   1.855  0.8676  0.3532 -0.6396
11052TIP3    H254648   0.812   5.206   1.865  0.2684 -0.3913  1.0259
11053TIP3   OH254649   1.491   5.565  16.391 -0.3305 -0.1418 -0.0133
11053TIP3    H154650   1.493   5.544  16.298  1.4016  1.0613 -0.2902
11053TIP3    H254651   1.525   5.486  16.434  0.4641 -0.0993 -0.5463
11054TIP3   OH254652   6.418   1.314  16.711  0.2272  0.1375 -0.2747
11054TIP3    H154653   6.450   1.326  16.801  0.0806 -1.4692  0.0190
11054TIP3    H254654   6.334   1.360  16.709  1.2947  2.2216 -0.3149
11055TIP3   OH254655   5.161   1.129  16.284 -0.1336  0.2248  0.1748
11055TIP3    H154656   5.194   1.056  16.336  1.6699  0.3868 -0.6567
11055TIP3    H254657   5.237   1.188  16.276 -1.4410  2.0344  0.5440
11056TIP3   OH254658   2.935   1.613  12.750  0.2128 -0.6789 -0.2804
11056TIP3    H154659   2.855   1.656  12.718 -0.5024 -2.0449 -0.3970
11056TIP3    H254660   2.910   1.521  12.760  1.6933 -1.0698 -0.0133
11057TIP3   OH254661   6.720   3.960   0.606  0.0781  0.1615 -0.8533
11057TIP3    H154662   6.807   3.937   0.638 -0.5159 -0.9492  0.0252
11057TIP3    H254663   6.672   3.878   0.605 -1.1253  0.8424 -0.7995
11058TIP3   OH254664   0.015   2.107  12.888  0.5528 -0.3074  0.2940
11058TIP3    H154665  -0.012   2.179  12.832  0.1010  0.2555  1.2118
11058TIP3    H254666   0.094   2.138  12.932  1.8929 -1.3702 -1.2265
11059TIP3   OH254667   6.454   5.679   3.850  0.1367  0.4626  0.1714
11059TIP3    H154668   6.523   5.716   3.795 -0.0222 -0.1541 -0.4489
11059TIP3    H254669   6.468   5.720   3.936  2.7721 -1.3480  0.7517
11060TIP3   OH254670   2.260   3.575  15.356  0.4955  0.1965 -0.0768
11060TIP3    H154671   2.320   3.556  15.428  0.3335 -0.7115 -0.1708
11060TIP3    H254672   2.175   3.542  15.386  0.6265 -1.1310 -1.0681
11061TIP3   OH254673   2.239   4.278  16.032  0.0261 -0.3512  0.5867
11061TIP3    H154674   2.183   4.249  16.104 -1.2113  0.3153 -0.0784
11061TIP3    H254675   2.306   4.332  16.074  1.0581 -2.2923  1.5650
11062TIP3   OH254676   2.410   2.736  14.416  0.1688  0.1718  0.4769
11062TIP3    H154677   2.332   2.694  14.380 -0.6278  1.0529  1.1247
11062TIP3    H254678   2.467   2.663  14.442  0.3725 -0.4830 -1.6560
11063TIP3   OH254679   6.034   2.502  15.565 -0.2066  0.1219 -0.1722
11063TIP3    H154680   5.943   2.534  15.566  0.3388  1.7884  1.1264
11063TIP3    H254681   6.051   2.483  15.473 -0.9301  2.8246 -0.9762
11064TIP3   OH254682   6.083   2.754   2.719 -0.8688  0.1869 -0.1344
11064TIP3    H154683   6.130   2.837   2.712 -0.4021 -0.0721 -0.0711
11064TIP3    H254684   6.100   2.710   2.636 -1.0451  0.1128 -0.1318
11065TIP3   OH254685   5.425   1.997   3.490  0.2842 -0.1774 -0.4779
11065TIP3    H154686   5.512   1.965   3.466  0.7004 -0.9493  1.8843
11065TIP3    H254687   5.373   1.918   3.501 -0.4110  0.2412 -0.6886
11066TIP3   OH254688   6.576   4.075   3.975 -0.4096  0.5005  0.7703
11066TIP3    H154689   6.566   3.982   3.995 -0.3026  0.8128  2.4544
11066TIP3    H254690   6.658   4.100   4.019  0.3094  1.1065 -0.8178
11067TIP3   OH254691   0.048   0.448  11.912  0.2214  0.7084 -0.3734
11067TIP3    H154692   0.105   0.523  11.925 -1.7249  2.1975  0.0659
11067TIP3    H254693   0.025   0.419  12.001 -1.7004  1.7794 -0.4754
11068TIP3   OH254694   3.188   6.860  14.981  0.3662  0.5181  0.0421
11068TIP3    H154695   3.134   6.865  15.060  0.1389  2.4275 -0.2000
11068TIP3    H254696   3.270   6.820  15.011 -0.7886 -1.6657  0.5758
11069TIP3   OH254697   5.804   5.638  14.983  0.7313  0.7218 -0.8636
11069TIP3    H154698   5.853   5.583  14.922  0.6928  0.7393 -0.9098
11069TIP3    H254699   5.715   5.641  14.947  0.2651 -0.6535  0.1058
11070TIP3   OH254700   1.530   2.469   6.672 -0.3143 -0.4660 -0.0937
11070TIP3    H154701   1.604   2.439   6.618  0.0981 -0.3169  0.3750
11070TIP3    H254702   1.562   2.549   6.714 -1.1912  0.3140 -0.8568
11071TIP3   OH254703   4.880   2.508   3.757  0.2460  0.3339 -0.1320
11071TIP3    H154704   4.957   2.522   3.702  0.2206  1.0866  0.0190
11071TIP3    H254705   4.913   2.462   3.834  0.8207  1.9849  0.6381
11072TIP3   OH254706   6.814   5.165  15.636 -0.1587  0.2454 -0.4542
11072TIP3    H154707   6.851   5.250  15.657 -1.5333  0.8245 -0.2971
11072TIP3    H254708   6.740   5.184  15.578 -1.7156 -0.6560  1.1520
11073TIP3   OH254709   4.679   3.903   4.484  0.2549 -0.2358  0.7945
11073TIP3    H154710   4.768   3.871   4.500 -0.0303  0.0738  3.5355
11073TIP3    H254711   4.630   3.825   4.456  1.1707 -0.6210  0.2422
11074TIP3   OH254712   4.547   3.291   0.457  0.2489 -0.3315 -0.4798
11074TIP3    H154713   4.484   3.334   0.516  0.9079  0.5430 -0.3944
11074TIP3    H254714   4.504   3.291   0.372  0.3308  0.7436 -0.5351
11075TIP3   OH254715   5.176   1.279   1.943  0.5835  0.6515  0.2580
11075TIP3    H154716   5.228   1.208   1.904 -0.4694  0.4694 -0.8573
11075TIP3    H254717   5.174   1.258   2.037  0.5813 -0.5975 -0.0062
11076TIP3   OH254718   2.781   0.124   1.568 -0.0802 -0.4066  0.3856
11076TIP3    H154719   2.732   0.063   1.514  1.2328 -1.3513  0.2289
11076TIP3    H254720   2.760   0.099   1.658 -2.4842  1.3426  0.3928
11077TIP3   OH254721   2.569   6.065   0.817  0.2885  0.0721 -0.1718
11077TIP3    H154722   2.477   6.089   0.809  0.3317  0.0423 -0.8306
11077TIP3    H254723   2.610   6.104   0.739  0.6549 -0.7462 -0.3931
11078TIP3   OH254724   1.472   4.820  16.319 -0.0618  0.3376 -0.0915
11078TIP3    H154725   1.442   4.911  16.318  0.1511  0.4072 -1.4547
11078TIP3    H254726   1.443   4.786  16.405 -2.2976  0.9787 -0.5204
11079TIP3   OH254727   1.678   5.535  13.483  0.7992 -0.4493  0.2041
11079TIP3    H154728   1.757   5.582  13.507  0.5643 -0.9162  2.0823
11079TIP3    H254729   1.709   5.455  13.439  1.3603 -0.5228  0.7302
11080TIP3   OH254730   3.094   6.380   5.722  0.3393  0.1363  0.0020
11080TIP3    H154731   3.051   6.314   5.667  0.0396 -0.6515  1.1425
11080TIP3    H254732   3.055   6.367   5.809  1.5401  0.6590  0.6357
11081TIP3   OH254733   1.507   0.149  13.826  0.0449  0.1303 -0.4341
11081TIP3    H154734   1.434   0.158  13.764  0.8263 -2.8694 -2.0041
11081TIP3    H254735   1.468   0.158  13.912 -2.1740 -1.0596 -1.2432
11082TIP3   OH254736   1.812   2.893  15.739  0.3275 -0.0614 -0.0673
11082TIP3    H154737   1.883   2.936  15.691 -0.0981  1.4824  0.6513
11082TIP3    H254738   1.733   2.912  15.688  0.3562 -1.7069 -0.8203
11083TIP3   OH254739   0.573   2.884  16.587 -0.6874  0.2215 -0.1426
11083TIP3    H154740   0.597   2.879  16.679 -1.4508 -0.5078  0.0341
11083TIP3    H254741   0.639   2.940  16.547  0.1176 -0.1148  0.6940
11084TIP3   OH254742   2.082   5.016   6.245  0.1373  0.1028  0.0627
11084TIP3    H154743   2.176   5.022   6.263  0.4832  0.3922 -1.6400
11084TIP3    H254744   2.067   4.923   6.228  0.4127  0.2393 -1.0052
11085TIP3   OH254745   1.157   1.093   1.201 -0.0878 -0.1616 -0.1213
11085TIP3    H154746   1.114   1.009   1.190 -1.4041  0.2751  1.2950
11085TIP3    H254747   1.199   1.110   1.117 -0.9101 -1.6036 -0.8591
11086TIP3   OH254748   1.964   3.690  13.851 -0.0558  0.2766  0.0653
11086TIP3    H154749   1.873   3.677  13.827  0.3986 -1.1325 -1.0575
11086TIP3    H254750   1.995   3.602  13.875  1.4790  0.3732 -1.3711
11087TIP3   OH254751   6.665   3.112   1.869  0.0173  0.1367  0.1040
11087TIP3    H154752   6.649   3.098   1.962 -0.7738  0.4726  0.0269
11087TIP3    H254753   6.675   3.207   1.860 -1.1850  0.2469 -0.3255
11088TIP3   OH254754   5.764   1.975  13.285 -0.7214 -0.2406 -0.2794
11088TIP3    H154755   5.822   2.012  13.219 -1.2265  1.2500  0.0819
11088TIP3    H254756   5.794   2.013  13.367 -1.2567 -0.6338  0.1057
11089TIP3   OH254757   0.588   0.448  12.815  0.2535 -0.7982 -0.5544
11089TIP3    H154758   0.664   0.395  12.791 -1.3676 -2.9245 -1.4076
11089TIP3    H254759   0.513   0.392  12.793 -1.5416  0.6214  1.5674
11090TIP3   OH254760   3.451   1.602   1.860  0.3349 -0.6991 -0.4108
11090TIP3    H154761   3.363   1.636   1.845 -0.3137 -1.5128  1.2743
11090TIP3    H254762   3.502   1.633   1.785 -1.5908 -1.0015 -1.9251
11091TIP3   OH254763   4.674   6.478  17.108 -0.4333 -1.0289 -0.6994
11091TIP3    H154764   4.676   6.389  17.141 -1.3064 -0.7590  0.1254
11091TIP3    H254765   4.601   6.479  17.045 -0.5893 -0.8391 -0.5164
11092TIP3   OH254766   2.005   4.211   2.373 -0.1132  0.3138  0.2264
11092TIP3    H154767   1.924   4.192   2.421  1.4806 -1.6981  2.3471
11092TIP3    H254768   2.006   4.147   2.302 -0.9365  1.1639 -0.5748
11093TIP3   OH254769   4.189   4.744  10.577 -0.1354  0.2061  0.1461
11093TIP3    H154770   4.115   4.784  10.531  0.3825  0.4975 -0.4453
11093TIP3    H254771   4.149   4.683  10.638 -0.8298 -0.5694 -1.0527
11094TIP3   OH254772   0.494   4.457   4.149  0.8326 -0.0805  0.2943
11094TIP3    H154773   0.451   4.523   4.204 -2.3699 -1.4415 -0.3302
11094TIP3    H254774   0.547   4.508   4.088 -1.6981  2.0346 -0.3321
11095TIP3   OH254775   3.151   2.921   4.270  0.8090  0.4470  0.2298
11095TIP3    H154776   3.191   2.845   4.228 -1.6175 -1.4681  1.1963
11095TIP3    H254777   3.213   2.946   4.338  1.5499 -0.8473  0.0640
11096TIP3   OH254778   3.875   6.592  11.403 -0.0411 -0.2609 -0.4221
11096TIP3    H154779   3.812   6.575  11.334  0.3375  0.0725 -0.8512
11096TIP3    H254780   3.930   6.662  11.370 -0.1665  0.2505  0.4186
11097TIP3   OH254781   4.457   6.303   4.667  0.0835  0.0630  0.6596
11097TIP3    H154782   4.511   6.228   4.643  0.8613  0.4085  1.2853
11097TIP3    H254783   4.494   6.376   4.617  1.3199  0.6564  2.3511
11098TIP3   OH254784   6.184   1.745  13.869  0.6013 -0.0596 -0.1477
11098TIP3    H154785   6.151   1.805  13.936 -0.8224  0.7337 -1.4929
11098TIP3    H254786   6.253   1.794  13.825 -0.0468  0.3337 -0.7507
11099TIP3   OH254787   5.000   4.170  13.073  0.3201  0.3596 -0.0643
11099TIP3    H154788   5.038   4.096  13.026  1.2220  0.1628  0.9325
11099TIP3    H254789   4.906   4.165  13.055  0.1331 -1.9379  1.1926
11100TIP3   OH254790   3.250   6.231   2.093 -0.6733 -0.4194 -0.3028
11100TIP3    H154791   3.250   6.227   1.998 -1.1484  0.8065 -0.3693
11100TIP3    H254792   3.160   6.211   2.118 -0.6758 -0.2002 -0.1367
11101TIP3   OH254793   1.949   3.647   3.819  0.3866 -0.3770  0.9376
11101TIP3    H154794   1.875   3.602   3.779  0.2110 -0.3569  1.2347
11101TIP3    H254795   1.973   3.714   3.755  0.8290 -1.0626  0.3714
11102TIP3   OH254796   2.239   1.285  14.200  0.0251  0.1532  0.0069
11102TIP3    H154797   2.161   1.337  14.218 -0.6051 -1.0142  0.7779
11102TIP3    H254798   2.312   1.344  14.220 -0.6151  0.0040  3.5408
11103TIP3   OH254799   4.726   6.737   0.174 -0.0046 -0.2598 -0.3281
11103TIP3    H154800   4.681   6.655   0.154  1.6331 -1.5080  0.8590
11103TIP3    H254801   4.703   6.756   0.264  0.6881 -0.1447 -0.1707
11104TIP3   OH254802   5.732   3.053   1.213 -0.0720  0.1613  0.2811
11104TIP3    H154803   5.707   2.964   1.240 -0.3851  0.2465  0.2759
11104TIP3    H254804   5.655   3.086   1.166 -0.2164  0.6884  0.8757
11105TIP3   OH254805   1.207   4.903   1.058  0.0234 -0.6818  0.6814
11105TIP3    H154806   1.162   4.945   1.131 -0.4649 -0.8386  0.4747
11105TIP3    H254807   1.137   4.875   0.999  0.4470  1.2655 -0.8810
11106TIP3   OH254808   1.981   2.180   0.052 -0.3893 -0.2588 -0.1922
11106TIP3    H154809   1.974   2.118   0.124 -1.1696 -1.1322 -0.9932
11106TIP3    H254810   1.890   2.193   0.022 -0.1284  0.4424 -0.7209
11107TIP3   OH254811   4.841   0.307   2.722 -0.3407  0.2853  0.5600
11107TIP3    H154812   4.757   0.351   2.712  0.4166  1.5323 -0.5013
11107TIP3    H254813   4.878   0.303   2.634  1.6191  1.6130  1.2557
11108TIP3   OH254814   0.077   4.521  11.991 -0.2099  0.3989  1.0368
11108TIP3    H154815   0.014   4.459  12.030  0.6093 -1.0654  0.1136
11108TIP3    H254816   0.068   4.508  11.897  1.6813 -0.0911  0.8817
11109TIP3   OH254817   2.800   5.525  13.683  0.2135  0.5740 -0.0223
11109TIP3    H154818   2.735   5.495  13.746 -0.3129 -0.6327 -1.0926
11109TIP3    H254819   2.807   5.619  13.698  0.4486  0.2588  2.1118
11110TIP3   OH254820   4.395   5.109   2.596 -0.1596 -0.0485  0.3305
11110TIP3    H154821   4.430   5.042   2.654  0.1833 -0.8279 -0.7501
11110TIP3    H254822   4.427   5.191   2.633  0.6836 -0.5773  0.8148
11111TIP3   OH254823   3.600   2.004  14.863 -0.5831 -0.5594 -0.3921
11111TIP3    H154824   3.507   2.012  14.887 -0.3189  0.2453  0.4208
11111TIP3    H254825   3.617   2.081  14.809 -0.1801 -0.2653  0.1562
11112TIP3   OH254826   5.892   6.775   4.658  0.2748  0.1498  0.6610
11112TIP3    H154827   5.820   6.730   4.612 -0.1646  0.3524  1.1455
11112TIP3    H254828   5.959   6.708   4.668  0.6927  0.2823 -0.9342
11113TIP3   OH254829   5.484   6.352   3.564  0.4035  0.2866 -0.1162
11113TIP3    H154830   5.549   6.292   3.602  0.2109  0.1807  0.0482
11113TIP3    H254831   5.516   6.368   3.475  0.9986  0.7480  0.1761
11114TIP3   OH254832   0.591   5.108   5.000 -0.6495  0.5058 -0.3032
11114TIP3    H154833   0.567   5.163   4.925 -2.7576 -2.3645 -1.9535
11114TIP3    H254834   0.684   5.089   4.986 -0.9314  0.2343 -2.1377
11115TIP3   OH254835   0.515   1.187   0.831  0.4593  0.3678  0.1085
11115TIP3    H154836   0.436   1.136   0.817  0.2365  1.0197 -1.1511
11115TIP3    H254837   0.574   1.161   0.760  0.5301  1.4737 -0.2644
11116TIP3   OH254838   4.896   6.554   3.071 -0.4395 -0.2250 -0.7256
11116TIP3    H154839   4.961   6.591   3.012 -1.6294  0.5900 -1.5833
11116TIP3    H254840   4.818   6.542   3.016 -0.6312 -2.4877 -0.0862
11117TIP3   OH254841   3.095   4.876   6.384  0.0993  0.2378 -0.4359
11117TIP3    H154842   3.168   4.938   6.379 -0.1883  0.7992  1.6309
11117TIP3    H254843   3.018   4.929   6.360 -0.3013  1.0761  2.3352
11118TIP3   OH254844   2.710   1.678   4.663  0.1384 -0.2784 -0.1879
11118TIP3    H154845   2.755   1.720   4.590  0.1507 -0.6424 -0.3939
11118TIP3    H254846   2.772   1.612   4.694  0.6384  0.6917  0.9483
11119TIP3   OH254847   4.253   3.921  13.642  0.1153 -0.2417  0.0626
11119TIP3    H154848   4.278   3.961  13.559 -1.1988  1.0080  0.2371
11119TIP3    H254849   4.283   3.983  13.709 -2.1525  0.6699  0.3292
11120TIP3   OH254850   0.313   6.296   6.146  0.1755  0.3439 -0.3883
11120TIP3    H154851   0.334   6.274   6.237  0.4976  1.4066 -0.1958
11120TIP3    H254852   0.364   6.234   6.094 -0.2828 -0.5051  0.1509
11121TIP3   OH254853   4.407   2.449  12.725 -0.1814 -0.0769 -0.6028
11121TIP3    H154854   4.487   2.415  12.686 -0.2697 -1.2394  0.1957
11121TIP3    H254855   4.356   2.482  12.650  1.1667  0.9933 -1.0811
11122TIP3   OH254856   2.137   3.120  11.427  0.1134 -0.1095  0.0074
11122TIP3    H154857   2.159   3.195  11.372 -1.0529  0.5759  0.4508
11122TIP3    H254858   2.126   3.156  11.515 -2.4393 -0.4152 -0.1104
11123TIP3   OH254859   5.403   1.484  15.681  0.0215 -0.8022 -0.3444
11123TIP3    H154860   5.351   1.426  15.736 -2.0420  0.6911 -0.5906
11123TIP3    H254861   5.493   1.453  15.691 -0.6467 -2.2953  1.6562
11124TIP3   OH254862   1.762   0.176   4.165  0.0349 -0.0274 -0.2339
11124TIP3    H154863   1.704   0.252   4.160 -0.8822 -0.6678  0.5048
11124TIP3    H254864   1.705   0.103   4.186  0.7887 -1.1004 -1.7769
11125TIP3   OH254865   4.788   0.061  12.528  0.0737 -0.4332  0.3744
11125TIP3    H154866   4.880   0.040  12.544  0.1196 -0.1522  0.4802
11125TIP3    H254867   4.787   0.095  12.439  0.0806 -0.3879  0.3912
11126TIP3   OH254868   1.739   1.984   1.011  0.1589 -0.1879  0.0439
11126TIP3    H154869   1.708   2.022   0.930 -3.4535  1.2157  1.8662
11126TIP3    H254870   1.826   1.950   0.990  1.1278  3.6169 -3.3390
11127TIP3   OH254871   6.273   1.950  14.095 -0.1273  0.1378  0.2383
11127TIP3    H154872   6.357   1.904  14.090  0.2664  0.8552  0.1662
11127TIP3    H254873   6.288   2.032  14.048 -1.5160 -0.6824 -1.7380
11128TIP3   OH254874   0.137   2.279  11.802 -0.0748 -0.5253 -0.4737
11128TIP3    H154875   0.062   2.325  11.840  1.3273  2.2586 -0.8555
11128TIP3    H254876   0.200   2.272  11.873  0.9131  0.9778 -1.1468
11129TIP3   OH254877   0.712   3.071  10.389 -0.0828  0.1589 -0.4924
11129TIP3    H154878   0.726   3.161  10.420  3.8672 -0.7782  1.0751
11129TIP3    H254879   0.781   3.057  10.324  0.1686 -2.0914  0.1881
11130TIP3   OH254880   2.846   6.504  15.401  0.6686  0.2874  0.0170
11130TIP3    H154881   2.929   6.483  15.443  0.3902  0.6600  0.7802
11130TIP3    H254882   2.832   6.597  15.420  0.2289  0.3055 -0.3605
11131TIP3   OH254883   3.062   5.798  12.084  0.2165  0.0662  0.1525
11131TIP3    H154884   3.076   5.865  12.017 -0.8106  0.0811 -0.0603
11131TIP3    H254885   3.149   5.781  12.120  0.6010  0.9342 -0.3503
11132TIP3   OH254886   0.229   4.421  15.024 -0.1902 -0.2341  0.2360
11132TIP3    H154887   0.155   4.362  15.010  0.2746 -1.2287  1.7488
11132TIP3    H254888   0.195   4.487  15.085 -0.4987  0.6952 -0.9040
11133TIP3   OH254889   0.488   0.098  12.080 -0.3369  0.2565 -0.4164
11133TIP3    H154890   0.409   0.131  12.038 -1.5430 -1.9928 -0.0836
11133TIP3    H254891   0.493   0.147  12.162 -1.6170  0.1753 -0.2615
11134TIP3   OH254892   2.940   5.696  12.615  0.3914  0.2159  0.1292
11134TIP3    H154893   2.857   5.713  12.659 -0.1397  1.4496 -1.2538
11134TIP3    H254894   2.989   5.778  12.621  0.1283  0.5749 -1.8543
11135TIP3   OH254895   2.394   4.079  15.953 -0.0901  0.0468 -1.2187
11135TIP3    H154896   2.416   4.106  15.864 -1.4689 -0.1061 -1.6180
11135TIP3    H254897   2.329   4.143  15.982  1.8774  1.4008  0.5029
11136TIP3   OH254898   2.964   2.139  14.908  0.4604 -0.3452 -0.4575
11136TIP3    H154899   3.029   2.135  14.978  0.6636  2.7087 -0.3267
11136TIP3    H254900   2.929   2.050  14.902  2.3877 -1.3351  1.6190
11137TIP3   OH254901   3.898   1.242  12.768 -0.1022  0.1957 -0.1580
11137TIP3    H154902   3.888   1.318  12.710  0.8668  1.7593  1.6308
11137TIP3    H254903   3.992   1.237  12.784 -0.2255 -1.0183  0.2523
11138TIP3   OH254904   3.911   1.944  12.500 -0.0797  0.0438 -0.2954
11138TIP3    H154905   3.992   1.993  12.482 -0.7949  0.8435 -1.5467
11138TIP3    H254906   3.841   2.005  12.475 -1.0283 -1.0909 -0.4702
11139TIP3   OH254907   3.794   3.245   6.460  0.1519  0.1075  0.6975
11139TIP3    H154908   3.747   3.301   6.398 -0.6891  0.0209  1.2476
11139TIP3    H254909   3.812   3.302   6.534 -0.2793 -0.2230  1.0569
11140TIP3   OH254910   4.774   6.016  12.080 -0.3090 -0.1054  0.4203
11140TIP3    H154911   4.696   5.963  12.098 -0.4515 -0.6308 -1.5155
11140TIP3    H254912   4.746   6.079  12.014  1.1342 -1.0598 -1.1943
11141TIP3   OH254913   2.556   1.322   0.737  0.4823  0.1938  0.2785
11141TIP3    H154914   2.511   1.401   0.766 -0.7508 -0.3306 -0.1117
11141TIP3    H254915   2.506   1.293   0.660  0.5678 -1.2713  0.7448
11142TIP3   OH254916   4.070   6.713   3.086 -0.6445 -0.5032 -0.3548
11142TIP3    H154917   4.133   6.767   3.134  0.3158 -0.7364 -1.3024
11142TIP3    H254918   4.003   6.691   3.150  0.1129 -0.0412  0.6228
11143TIP3   OH254919   0.198   3.072   2.111 -0.2505 -0.8287  0.5964
11143TIP3    H154920   0.114   3.085   2.157 -1.5039 -0.1975 -1.7016
11143TIP3    H254921   0.194   3.133   2.037  0.9427 -2.8843 -1.2823
11144TIP3   OH254922   4.811   0.920  11.864 -0.1040  0.3935  0.4707
11144TIP3    H154923   4.753   0.960  11.929 -0.2652  0.9244  0.0157
11144TIP3    H254924   4.827   0.990  11.800  0.7270  0.1324  0.3810
11145TIP3   OH254925   6.546   0.285   3.821  0.5283  0.3784  0.1250
11145TIP3    H154926   6.596   0.357   3.860  2.2202 -0.5896 -0.1566
11145TIP3    H254927   6.612   0.225   3.788 -0.8501 -0.4097 -1.3499
11146TIP3   OH254928   2.348   6.806  15.835  0.0872 -0.1790 -0.3156
11146TIP3    H154929   2.348   6.865  15.911  2.2313  1.1945 -1.3028
11146TIP3    H254930   2.337   6.719  15.874 -1.0418  0.6401  1.3628
11147TIP3   OH254931   6.040   6.767   0.454  0.1407  0.0383 -0.5705
11147TIP3    H154932   6.123   6.722   0.470 -1.0472 -1.9416  0.3711
11147TIP3    H254933   6.001   6.720   0.381 -1.8525 -1.6888  1.4560
11148TIP3   OH254934   5.087   4.121  12.500 -0.2835 -0.3153 -0.1272
11148TIP3    H154935   4.995   4.099  12.487 -1.0130  2.0558  0.5378
11148TIP3    H254936   5.105   4.190  12.436  0.3849  0.7304  1.1303
11149TIP3   OH254937   3.984   3.539  10.958 -0.4089 -0.2660 -0.8660
11149TIP3    H154938   4.004   3.616  11.011  0.1759 -1.1761  0.2653
11149TIP3    H254939   3.922   3.489  11.011  0.4041 -1.3313 -0.8885
11150TIP3   OH254940   3.740   0.127   6.576  0.4828 -0.0531 -0.3039
11150TIP3    H154941   3.725   0.090   6.663  1.7838  0.0908 -0.0015
11150TIP3    H254942   3.684   0.075   6.518  1.4526 -1.8144  0.2590
11151TIP3   OH254943   4.481   2.741   4.072  0.0344  0.6809 -1.0198
11151TIP3    H154944   4.504   2.675   4.007 -1.6667  0.1985 -1.1647
11151TIP3    H254945   4.463   2.691   4.151 -0.8028  1.0120 -1.0012
11152TIP3   OH254946   5.875   6.856  12.117 -0.3985  0.0354 -0.0855
11152TIP3    H154947   5.816   6.922  12.153  0.0356 -0.4544  1.6448
11152TIP3    H254948   5.819   6.779  12.103 -0.6436  0.3446 -0.8400
11153TIP3   OH254949   2.412   0.369   3.163  0.1659  0.0337 -0.3634
11153TIP3    H154950   2.407   0.289   3.110 -0.6359 -0.2444  0.1181
11153TIP3    H254951   2.494   0.361   3.211 -0.8122 -1.4689  1.1604
11154TIP3   OH254952   1.325   5.383   0.513  0.6724  0.0580  0.7057
11154TIP3    H154953   1.334   5.476   0.491  2.7842 -0.0290  1.0328
11154TIP3    H254954   1.409   5.359   0.551 -0.0445 -1.8613  1.1774
11155TIP3   OH254955   6.140   5.796   1.660  0.0597 -0.7769  0.0256
11155TIP3    H154956   6.065   5.777   1.716  0.3658  0.2485  0.8106
11155TIP3    H254957   6.200   5.724   1.674 -0.8344 -1.7183 -0.7598
11156TIP3   OH254958   3.877   0.651   1.097  0.1016 -0.0409 -0.1799
11156TIP3    H154959   3.816   0.577   1.099  0.8755 -0.6889 -0.2463
11156TIP3    H254960   3.831   0.718   1.046 -1.5442  0.3811  1.7428
11157TIP3   OH254961   5.705   5.321   5.775 -0.4681  0.2524  0.0046
11157TIP3    H154962   5.637   5.255   5.764  0.0173 -0.4810  1.2023
11157TIP3    H254963   5.764   5.285   5.841  0.0337  1.7204  0.4150
11158TIP3   OH254964   6.775   0.196   0.928  0.5902 -0.4883  0.1496
11158TIP3    H154965   6.701   0.226   0.875  0.1025 -1.3050  0.3525
11158TIP3    H254966   6.778   0.258   1.001 -0.1920 -0.7271  0.3894
11159TIP3   OH254967   6.694   0.325   1.152 -0.4158 -0.3648  0.3047
11159TIP3    H154968   6.728   0.320   1.241 -0.3642 -0.9748  0.2521
11159TIP3    H254969   6.600   0.337   1.163 -0.6702 -2.2804  0.4488
11160TIP3   OH254970   4.981   4.071  10.997 -0.7848  0.3929  0.9638
11160TIP3    H154971   5.069   4.088  11.031 -0.2360 -2.8532  1.5018
11160TIP3    H254972   4.984   4.103  10.907  1.0844  0.0347  0.8466
11161TIP3   OH254973   3.070   2.084   1.856 -0.2861  0.3769  0.0726
11161TIP3    H154974   3.092   1.993   1.874  0.5481  0.2165 -1.6045
11161TIP3    H254975   3.155   2.126   1.840 -0.8774  0.4617 -3.3753
11162TIP3   OH254976   3.120   6.239   2.912  0.3073  0.9945 -0.1362
11162TIP3    H154977   3.156   6.294   2.982 -2.7581  0.7389  1.7995
11162TIP3    H254978   3.084   6.302   2.849 -0.1579  1.2503  0.3730
11163TIP3   OH254979   5.455   6.080   0.128  0.3400  0.4432 -0.0212
11163TIP3    H154980   5.506   6.005   0.096  1.1987  0.5053  1.1155
11163TIP3    H254981   5.486   6.154   0.076  0.0160  0.1428 -0.6486
11164TIP3   OH254982   2.380   5.288   5.751  0.0918  0.1877 -0.4270
11164TIP3    H154983   2.389   5.265   5.843  0.3849 -1.4068 -0.8253
11164TIP3    H254984   2.329   5.217   5.713  1.3734 -0.0403 -1.8165
11165TIP3   OH254985   2.818   1.789  16.176 -0.3068  0.5647 -0.0520
11165TIP3    H154986   2.893   1.841  16.146 -1.3390  2.2530  0.1494
11165TIP3    H254987   2.814   1.805  16.270 -0.2716 -0.3991  0.1171
11166TIP3   OH254988   2.382   3.878  14.766  0.1127  0.5221  0.2150
11166TIP3    H154989   2.403   3.874  14.859  0.4630  1.0136  0.1632
11166TIP3    H254990   2.354   3.790  14.744  1.7071 -0.0694  0.4036
11167TIP3   OH254991   0.439   1.424  15.644  0.3294  0.3721  0.2909
11167TIP3    H154992   0.498   1.350  15.633 -0.4468 -0.2185 -0.0268
11167TIP3    H254993   0.416   1.449  15.554 -1.2384 -0.5237  0.3981
11168TIP3   OH254994   6.850   6.706  13.796 -0.1965 -0.8597  0.3272
11168TIP3    H154995   6.761   6.673  13.813 -0.1553 -2.6673 -2.3159
11168TIP3    H254996   6.898   6.630  13.764  1.1207  0.9016 -2.2305
11169TIP3   OH254997   6.185   0.521  12.771 -0.3618 -0.2457  0.1161
11169TIP3    H154998   6.175   0.535  12.866 -0.0246 -1.8958  0.4246
11169TIP3    H254999   6.169   0.427  12.759  0.1023 -0.1489 -1.4026
11170TIP3   OH255000   3.031   0.115   0.027  0.1012 -0.2119  0.0685
11170TIP3    H155001   3.070   0.202   0.037  1.6279 -0.5747 -2.0490
11170TIP3    H255002   3.024   0.081   0.116  0.4225  1.6657  0.8539
11171TIP3   OH255003   3.243   1.520  12.348  0.4106  0.8103  0.3438
11171TIP3    H155004   3.296   1.523  12.427  0.7919 -1.8579  0.2987
11171TIP3    H255005   3.306   1.526  12.276  0.4397 -0.0856  0.2834
11172TIP3   OH255006   1.008   5.185  11.696 -0.1172  0.8022 -0.4412
11172TIP3    H155007   0.919   5.151  11.697 -0.6448  1.5421 -4.6536
11172TIP3    H255008   1.001   5.268  11.649  2.9313  0.2077 -2.1722
11173TIP3   OH255009   5.470   1.617  11.807 -1.0798 -0.3486  0.0201
11173TIP3    H155010   5.562   1.597  11.827 -1.2535 -0.8110  0.3716
11173TIP3    H255011   5.420   1.558  11.863 -1.6406  1.8235  1.9620
11174TIP3   OH255012   6.600   3.104   2.129 -0.1073 -0.3380 -0.3386
11174TIP3    H155013   6.630   3.193   2.145  0.3099  0.0410 -2.8665
11174TIP3    H255014   6.591   3.066   2.216  1.0250  1.7233  0.7511
11175TIP3   OH255015   0.128   6.500   1.467 -0.2816  0.4646 -0.5866
11175TIP3    H155016   0.194   6.439   1.500 -0.7915 -0.4903 -1.2739
11175TIP3    H255017   0.164   6.533   1.385  0.3693  1.7716  0.1948
11176TIP3   OH255018   2.966   3.914  10.958  0.6472 -0.5870  0.6578
11176TIP3    H155019   2.903   3.897  10.889  3.0961 -1.8290 -1.4739
11176TIP3    H255020   2.934   3.864  11.033 -1.6922  0.1697  0.2154
11177TIP3   OH255021   2.112   5.847   5.569  0.4988  0.4672 -0.2203
11177TIP3    H155022   2.101   5.856   5.474 -0.2427 -0.3370 -0.2297
11177TIP3    H255023   2.205   5.831   5.582  0.5520  0.2263 -0.8559
11178TIP3   OH255024   1.953   2.932  16.275  0.3290 -0.1021  0.1612
11178TIP3    H155025   2.014   2.946  16.203  0.6488  0.2445  0.4914
11178TIP3    H255026   1.945   2.837  16.283  0.3188 -0.1393 -0.3078
11179TIP3   OH255027   2.987   4.443  16.895 -0.3906 -0.1562  0.4715
11179TIP3    H155028   2.999   4.441  16.800  1.5800  0.5848  0.6375
11179TIP3    H255029   3.026   4.361  16.926 -1.1571 -0.4624  0.6446
11180TIP3   OH255030   4.173   2.262  13.950  0.1760 -0.4427 -0.2564
11180TIP3    H155031   4.204   2.307  13.871 -1.7705 -0.6843 -1.2113
11180TIP3    H255032   4.151   2.174  13.920 -0.4036 -0.5989  0.6087
11181TIP3   OH255033   0.517   1.405  17.054 -0.1024 -0.9535 -0.3882
11181TIP3    H155034   0.435   1.447  17.030  0.0541  0.3226  1.1667
11181TIP3    H255035   0.491   1.320  17.090 -0.6452 -0.9386 -0.7384
11182TIP3   OH255036   5.989   6.421   0.721  0.1812 -0.1819  0.4293
11182TIP3    H155037   5.932   6.373   0.782  0.8641  0.5283  1.6731
11182TIP3    H255038   6.053   6.356   0.692 -0.8117 -0.8034 -0.4134
11183TIP3   OH255039   5.433   5.661  11.521 -0.2215 -0.0917 -0.3994
11183TIP3    H155040   5.392   5.614  11.594 -3.2862 -0.0194 -1.9545
11183TIP3    H255041   5.400   5.751  11.528  0.2600  0.1723 -1.3047
11184TIP3   OH255042   5.103   3.769  14.160  0.7198  0.0417 -0.0436
11184TIP3    H155043   5.030   3.728  14.206  1.4602 -1.3163 -0.0037
11184TIP3    H255044   5.180   3.746  14.212  1.5032 -0.9796 -1.5692
11185TIP3   OH255045   5.527   4.655  16.046 -0.1274 -0.1211 -0.4089
11185TIP3    H155046   5.537   4.561  16.057 -0.4406 -0.0322  0.6822
11185TIP3    H255047   5.437   4.673  16.070  0.2420  0.6024  0.4938
11186TIP3   OH255048   3.238   4.894   3.020 -0.1348 -0.3650 -0.3204
11186TIP3    H155049   3.185   4.833   2.970  1.4392 -0.7602 -1.6020
11186TIP3    H255050   3.294   4.838   3.074  1.6342 -0.1729 -1.8317
11187TIP3   OH255051   5.663   0.770   6.662 -0.3795 -0.4169  0.9944
11187TIP3    H155052   5.651   0.777   6.567  0.4135  1.9657  0.9975
11187TIP3    H255053   5.578   0.792   6.699 -0.8897 -2.0749  0.8574
11188TIP3   OH255054   6.329   6.207   2.411  0.3340  0.0023 -0.6798
11188TIP3    H155055   6.347   6.122   2.373  1.7741  0.7375 -1.7350
11188TIP3    H255056   6.395   6.217   2.480 -0.1927  0.0431 -0.1704
11189TIP3   OH255057   1.137   0.222  12.938  0.0051 -0.2311  0.1487
11189TIP3    H155058   1.174   0.223  12.850 -0.5426  1.5770 -0.1093
11189TIP3    H255059   1.212   0.235  12.996  0.3225 -1.0833 -0.0683
11190TIP3   OH255060   3.210   1.926  12.551 -0.0714  0.3637  0.0416
11190TIP3    H155061   3.149   1.852  12.559 -0.9671  0.7613 -2.2641
11190TIP3    H255062   3.273   1.898  12.485 -1.1399  2.0156 -1.8061
11191TIP3   OH255063   4.751   3.920   3.167 -0.2222  0.1356 -0.0938
11191TIP3    H155064   4.767   3.833   3.131  0.4720  0.9587 -1.8874
11191TIP3    H255065   4.836   3.963   3.166  0.0141  0.0367  3.2790
11192TIP3   OH255066   2.578   2.840   5.269 -0.5584  0.1034  0.0068
11192TIP3    H155067   2.566   2.748   5.293  1.9125 -0.8516 -2.0304
11192TIP3    H255068   2.594   2.884   5.352 -1.2656 -1.3605  0.9739
11193TIP3   OH255069   3.041   5.954   5.548 -0.8377 -0.1590  0.4925
11193TIP3    H155070   3.036   5.965   5.453  1.1369  1.0604  0.4689
11193TIP3    H255071   3.004   6.034   5.584  1.9711  1.2281  0.5897
11194TIP3   OH255072   5.858   1.138   0.283 -0.0074 -0.1382 -0.9202
11194TIP3    H155073   5.884   1.091   0.204 -0.4185 -1.6226 -0.2034
11194TIP3    H255074   5.793   1.082   0.324 -0.8416  1.2688 -0.2261
11195TIP3   OH255075   2.058   1.862   1.868  0.5367  0.6878  0.1390
11195TIP3    H155076   2.131   1.801   1.880 -0.5350 -1.1325 -1.8667
11195TIP3    H255077   2.067   1.893   1.778 -0.8689  0.7947  0.0159
11196TIP3   OH255078   2.512   6.018   5.036 -0.1247 -0.0239  0.1292
11196TIP3    H155079   2.452   6.086   5.006 -0.6630 -0.1190  0.9562
11196TIP3    H255080   2.514   5.955   4.964 -1.1747 -0.1174  0.1703
11197TIP3   OH255081   2.833   6.383   0.333 -0.1954  0.0889  0.3586
11197TIP3    H155082   2.899   6.346   0.391 -0.2142 -0.7365 -0.1266
11197TIP3    H255083   2.880   6.396   0.250 -0.6231 -0.4684  0.0236
11198TIP3   OH255084   0.081   2.710   1.110 -0.5335  0.3018 -0.4284
11198TIP3    H155085   0.136   2.690   1.186 -1.5700  1.3564  0.6279
11198TIP3    H255086   0.142   2.747   1.045 -0.1820  3.0010  1.3148
11199TIP3   OH255087   5.356   1.358  14.940 -0.0387  0.4810 -0.5281
11199TIP3    H155088   5.336   1.369  15.033  1.4559 -0.0957 -0.1129
11199TIP3    H255089   5.422   1.424  14.922  1.1873 -0.7236 -0.6377
11200TIP3   OH255090   1.471   2.033  14.000 -0.4065 -0.3219 -0.1309
11200TIP3    H155091   1.418   1.962  13.964 -3.0796  2.0248 -1.1913
11200TIP3    H255092   1.508   2.077  13.923 -0.9715  0.9553  0.2882
11201TIP3   OH255093   5.230   3.194   2.449  0.0377  0.2248 -0.0670
11201TIP3    H155094   5.208   3.101   2.457 -0.2062  0.4040  1.7597
11201TIP3    H255095   5.232   3.210   2.354  0.8498 -1.8017 -0.4368
11202TIP3   OH255096   0.371   1.032   5.693 -0.2864  0.4991  0.3338
11202TIP3    H155097   0.460   1.001   5.707 -0.4735 -0.1394  0.1458
11202TIP3    H255098   0.377   1.127   5.697  0.1756  0.4239  1.7096
11203TIP3   OH255099   2.736   3.189  14.976  0.0700  0.0401  0.6804
11203TIP3    H155100   2.794   3.192  14.900  0.3115 -2.0041  0.7305
11203TIP3    H255101   2.657   3.235  14.948  0.6930  0.5374 -0.3052
11204TIP3   OH255102   6.489   2.760  15.689 -0.0649 -0.0694 -0.2757
11204TIP3    H155103   6.412   2.724  15.645 -0.2664  0.7061 -0.5673
11204TIP3    H255104   6.455   2.831  15.743  0.6862  1.7953 -2.1164
11205TIP3   OH255105   0.493   4.451  15.800  0.2476 -0.0602  0.0987
11205TIP3    H155106   0.529   4.509  15.867 -0.5903 -2.3081  2.6860
11205TIP3    H255107   0.568   4.429  15.745  1.0387  1.6245  0.4345
11206TIP3   OH255108   1.825   3.965   1.489 -0.3022  0.4273  0.8319
11206TIP3    H155109   1.731   3.950   1.478 -0.5179  0.7341  2.1212
11206TIP3    H255110   1.860   3.879   1.511 -0.6476  0.6825  2.5274
11207TIP3   OH255111   3.354   4.228  15.664 -0.0697  0.6544 -1.1129
11207TIP3    H155112   3.418   4.178  15.714 -0.7930 -1.2912 -2.0197
11207TIP3    H255113   3.399   4.308  15.639  1.1266  0.5114  0.4445
11208TIP3   OH255114   4.035   6.591   2.260  0.5461 -0.2402  0.4365
11208TIP3    H155115   4.076   6.518   2.214  0.5880  0.6436 -0.9939
11208TIP3    H255116   4.056   6.667   2.207 -2.5451  0.3369 -0.1578
11209TIP3   OH255117   3.466   5.063   5.971 -0.1100  0.2781  0.4501
11209TIP3    H155118   3.560   5.080   5.973  0.1173 -0.6449 -0.9184
11209TIP3    H255119   3.443   5.042   6.061  0.7615  1.6232  1.0100
11210TIP3   OH255120   4.321   3.924   0.746 -0.7232  0.0886  0.0495
11210TIP3    H155121   4.226   3.920   0.741 -0.6863 -1.7081  0.1377
11210TIP3    H255122   4.348   3.834   0.764  0.9695  0.6489  0.5375
11211TIP3   OH255123   3.221   1.005   4.319  0.2061 -0.0599 -0.0816
11211TIP3    H155124   3.298   0.984   4.372  0.2547 -0.2531 -0.2284
11211TIP3    H255125   3.171   0.924   4.315  0.8977 -0.4475 -1.4948
11212TIP3   OH255126   0.390   3.232   1.941  0.2693 -0.9423 -0.3085
11212TIP3    H155127   0.453   3.161   1.926  0.4070 -1.0806  0.7786
11212TIP3    H255128   0.424   3.278   2.018 -0.4931 -0.4776 -0.2374
11213TIP3   OH255129   4.040   4.252  12.017  0.7128  0.2518  0.4600
11213TIP3    H155130   3.947   4.269  12.003  0.7288  0.0786  0.1094
11213TIP3    H255131   4.053   4.162  11.984  1.2777  0.7733 -0.8407
11214TIP3   OH255132   1.432   3.895  16.199  0.4445  0.1761  0.5773
11214TIP3    H155133   1.371   3.885  16.272  0.9689  0.7011  1.1008
11214TIP3    H255134   1.514   3.857  16.230  0.5056 -0.1375  0.0361
11215TIP3   OH255135   6.240   3.126  12.277 -0.4087  0.0521  0.5192
11215TIP3    H155136   6.148   3.135  12.301 -0.8166 -1.4033 -0.3380
11215TIP3    H255137   6.264   3.038  12.307  0.5525  0.2190  0.2799
11216TIP3   OH255138   2.022   2.891  15.407 -0.2469 -0.1080 -0.0681
11216TIP3    H155139   1.938   2.927  15.378 -0.9222 -0.8314  0.9303
11216TIP3    H255140   2.014   2.796  15.394 -0.3682 -0.4076  1.8569
11217TIP3   OH255141   3.009   1.865   1.172  0.2045  0.0840 -0.0120
11217TIP3    H155142   2.962   1.939   1.209 -1.8724 -1.2577  0.1866
11217TIP3    H255143   3.047   1.819   1.247 -2.2452 -1.4638  0.3705
11218TIP3   OH255144   6.185   5.510  15.493 -0.4177 -0.4709  0.5759
11218TIP3    H155145   6.143   5.593  15.471  1.6265  0.5335  0.2259
11218TIP3    H255146   6.127   5.470  15.557 -0.8937  1.8045  1.6650
11219TIP3   OH255147   4.588   0.861   6.110 -0.4096 -0.3182  0.5477
11219TIP3    H155148   4.631   0.847   6.025  1.2360  1.3797  1.0374
11219TIP3    H255149   4.601   0.779   6.157  0.7613 -0.4656  0.0162
11220TIP3   OH255150   4.080   6.829  15.004 -0.2729 -0.4547  0.0260
11220TIP3    H155151   4.002   6.852  14.953 -1.4147 -0.3320  1.7414
11220TIP3    H255152   4.131   6.910  15.009  0.0653 -0.5691 -1.2122
11221TIP3   OH255153   5.926   5.914  14.436  0.4881  0.1237  0.1428
11221TIP3    H155154   5.849   5.884  14.386  0.9597 -0.8137 -0.0491
11221TIP3    H255155   5.929   5.856  14.512  2.1535 -1.2316 -0.8810
11222TIP3   OH255156   0.108   3.726  14.636  0.0206  0.6214  0.1795
11222TIP3    H155157   0.019   3.710  14.669 -0.3242 -0.1472 -1.0716
11222TIP3    H255158   0.103   3.810  14.592 -0.1227  0.5256  0.0107
11223TIP3   OH255159   1.364   3.289   4.301 -0.1411  0.1168 -0.2558
11223TIP3    H155160   1.277   3.276   4.265 -0.2981  0.3368  0.0396
11223TIP3    H255161   1.359   3.373   4.348  0.9515  1.5554 -2.4862
11224TIP3   OH255162   4.095   1.698  11.818 -0.7634 -0.0548  0.1985
11224TIP3    H155163   4.062   1.650  11.742 -1.6934  0.3947  0.3005
11224TIP3    H255164   4.139   1.631  11.871  0.8185 -0.1865 -1.2038
11225TIP3   OH255165   2.249   5.124  13.093 -0.9915 -0.4053 -0.3960
11225TIP3    H155166   2.229   5.172  13.173 -1.2159  1.2082 -1.3822
11225TIP3    H255167   2.344   5.125  13.086 -0.7698 -2.7539  1.1021
11226TIP3   OH255168   5.023   3.092  16.635  0.4332  0.1665 -0.0576
11226TIP3    H155169   5.089   3.042  16.682  0.6548  0.2483 -0.2772
11226TIP3    H255170   4.972   3.136  16.703 -0.4825 -1.2337  0.1978
11227TIP3   OH255171   5.361   4.971  12.293  0.2939  0.1530  0.1166
11227TIP3    H155172   5.297   4.905  12.265 -0.4972  0.1691  1.7771
11227TIP3    H255173   5.445   4.935  12.266 -0.1549 -1.3821  0.6286
11228TIP3   OH255174   2.997   4.932  12.254 -0.3868 -0.5128 -0.1015
11228TIP3    H155175   2.915   4.897  12.288  0.4330 -0.7545  1.7277
11228TIP3    H255176   3.056   4.934  12.330  0.7494  1.3470 -0.9693
11229TIP3   OH255177   0.999   1.608  15.591 -0.2767 -0.5065 -1.1888
11229TIP3    H155178   1.014   1.565  15.507  0.1202  0.4767 -1.6400
11229TIP3    H255179   1.086   1.617  15.629 -0.5669 -2.1221 -0.0410
11230TIP3   OH255180   0.021   1.824  14.699  0.4203  0.1215  0.0431
11230TIP3    H155181  -0.073   1.834  14.691  0.1571 -2.4208 -1.0402
11230TIP3    H255182   0.059   1.892  14.643 -0.7604  0.7412 -0.0190
11231TIP3   OH255183   5.668   6.702  16.970  0.3191  0.9821  0.6205
11231TIP3    H155184   5.750   6.666  16.937 -0.3308 -1.3943  1.4475
11231TIP3    H255185   5.696   6.765  17.037  1.5118 -1.0206  2.1117
11232TIP3   OH255186   3.338   0.632   4.528 -0.4711 -0.6983  0.0629
11232TIP3    H155187   3.245   0.612   4.518 -1.0828  1.5412  0.6432
11232TIP3    H255188   3.364   0.668   4.443 -0.0117 -1.7167 -0.2336
11233TIP3   OH255189   2.807   2.609   1.370  0.5246 -0.3938 -0.1811
11233TIP3    H155190   2.716   2.627   1.395  0.8257  2.6064 -0.8287
11233TIP3    H255191   2.801   2.546   1.299 -1.1360  0.3480 -0.7417
11234TIP3   OH255192   4.772   1.183  14.629  0.3365 -0.0930  0.3014
11234TIP3    H155193   4.828   1.184  14.552 -0.9725  1.5260 -0.7222
11234TIP3    H255194   4.754   1.091  14.645  0.4090 -0.4699 -1.5373
11235TIP3   OH255195   0.003   0.928   4.041 -0.4560  0.5031  0.2119
11235TIP3    H155196  -0.068   0.935   3.977  0.7099  0.9503 -1.0836
11235TIP3    H255197   0.044   1.015   4.041 -1.2626  0.9486  2.6102
11236TIP3   OH255198   3.865   5.967  16.918  0.0564 -0.0435 -0.3503
11236TIP3    H155199   3.825   5.971  17.005  1.5595  1.6314  0.3194
11236TIP3    H255200   3.957   5.986  16.934  0.7718 -1.7260 -2.0973
11237TIP3   OH255201   3.145   1.742   0.184  0.6012 -0.6174  0.2632
11237TIP3    H155202   3.187   1.802   0.246 -0.9518 -0.3116  1.0964
11237TIP3    H255203   3.052   1.745   0.208 -0.1426 -0.1689 -2.3360
11238TIP3   OH255204   5.973   2.701   3.299  0.4655  0.0849  0.1969
11238TIP3    H155205   6.018   2.626   3.338  1.3897 -0.4144 -1.7005
11238TIP3    H255206   5.905   2.724   3.363  0.1223 -2.3848  0.8355
11239TIP3   OH255207   1.340   5.288   5.753 -0.9426 -0.4210 -0.6218
11239TIP3    H155208   1.409   5.246   5.805  0.0135  1.8442  0.0434
11239TIP3    H255209   1.260   5.241   5.779  0.0463 -1.8633  0.0038
11240TIP3   OH255210   2.597   1.252   1.761 -0.0113  0.5678 -0.1860
11240TIP3    H155211   2.670   1.262   1.700  0.7168  0.4500  0.6365
11240TIP3    H255212   2.623   1.304   1.837 -0.7079  0.3760  0.1851
11241TIP3   OH255213   5.274   3.125   2.900  0.1121  0.2356 -0.0703
11241TIP3    H155214   5.322   3.054   2.856 -0.0481  0.5979 -0.8461
11241TIP3    H255215   5.325   3.203   2.881 -0.4766  0.5416 -0.4287
11242TIP3   OH255216   1.563   0.021  14.804 -0.2882 -0.4813 -0.5246
11242TIP3    H155217   1.652   0.055  14.805  0.0471 -1.2009  2.0572
11242TIP3    H255218   1.509   0.096  14.776  0.9736  0.4688 -0.4886
11243TIP3   OH255219   4.320   1.726   4.622  0.2266  0.0391  0.0584
11243TIP3    H155220   4.267   1.768   4.690  0.3124  0.8507 -0.3594
11243TIP3    H255221   4.258   1.708   4.551 -0.1585 -2.1059  0.8689
11244TIP3   OH255222   6.531   6.077   3.878  0.0455 -0.0406 -0.1019
11244TIP3    H155223   6.595   6.113   3.816  0.4187  0.2092  0.4158
11244TIP3    H255224   6.511   5.990   3.843  2.8972 -1.3698  1.2220
11245TIP3   OH255225   1.480   5.316  13.148 -0.2429 -0.0441  0.6680
11245TIP3    H155226   1.440   5.355  13.070  1.3631  1.4059  0.5110
11245TIP3    H255227   1.408   5.269  13.191 -2.1352  2.3318  0.3562
11246TIP3   OH255228   1.024   3.551  13.973  0.2169 -0.3298 -0.0719
11246TIP3    H155229   1.059   3.623  13.922  1.3129  0.4713  1.7028
11246TIP3    H255230   1.091   3.483  13.967  0.2867 -0.2844  0.1817
11247TIP3   OH255231   2.038   4.292  14.380  0.0304 -0.3871  0.4315
11247TIP3    H155232   2.063   4.255  14.464 -1.4453 -2.5396 -0.0064
11247TIP3    H255233   2.010   4.382  14.400  0.4869 -0.5893  2.0810
11248TIP3   OH255234   0.645   5.805  14.008 -0.1088 -0.6936  0.1913
11248TIP3    H155235   0.687   5.886  14.035 -1.1213  0.3959 -1.3839
11248TIP3    H255236   0.552   5.824  14.009 -0.3264 -1.5736 -0.9996
11249TIP3   OH255237   3.219   4.002  15.553 -0.4413  0.2699  0.0806
11249TIP3    H155238   3.262   4.084  15.575  0.2183  0.2138 -0.8952
11249TIP3    H255239   3.238   3.990  15.459 -0.3092 -1.1052  0.2573
11250TIP3   OH255240   2.986   5.068   5.897 -0.5331  0.5023  0.4394
11250TIP3    H155241   2.976   5.159   5.924 -1.5253  0.2542  0.9245
11250TIP3    H255242   3.068   5.040   5.939  0.0622  1.3066 -0.1390
11251TIP3   OH255243   1.420   3.678   3.753  0.2414  0.4307 -0.3625
11251TIP3    H155244   1.366   3.629   3.814  0.6176  0.2731 -0.1511
11251TIP3    H255245   1.385   3.656   3.666 -0.2252  0.5736 -0.2104
11252TIP3   OH255246   1.955   0.849  14.271  0.0840 -0.6333 -0.3217
11252TIP3    H155247   2.005   0.774  14.302  0.2405 -0.7022 -0.7335
11252TIP3    H255248   1.905   0.878  14.347 -0.9596 -1.9336 -0.4885
11253TIP3   OH255249   3.462   0.874   2.691 -0.1694  0.0111  0.0837
11253TIP3    H155250   3.492   0.965   2.688 -0.2807  0.0810  0.8417
11253TIP3    H255251   3.518   0.828   2.628 -0.5029  0.7054 -0.7487
11254TIP3   OH255252   3.678   4.068   0.091 -0.0255 -0.4655  0.6473
11254TIP3    H155253   3.658   4.023   0.173  0.4049  0.8128  1.4738
11254TIP3    H255254   3.742   4.135   0.115  1.1911 -0.9776 -0.9903
11255TIP3   OH255255   2.864   0.615  16.200  1.0221  0.0265  0.0522
11255TIP3    H155256   2.853   0.532  16.246  1.5235  1.2625  2.5458
11255TIP3    H255257   2.954   0.641  16.217  0.8220  1.1806 -0.5407
11256TIP3   OH255258   4.089   2.902  17.102 -0.6690 -0.4001  0.4529
11256TIP3    H155259   4.006   2.856  17.114 -0.0563 -1.2916  1.3738
11256TIP3    H255260   4.069   2.993  17.125 -0.7294 -1.1333  3.8147
11257TIP3   OH255261   5.556   5.880   1.433 -0.2166  0.4517  0.3360
11257TIP3    H155262   5.533   5.814   1.499  0.8673 -0.1227  0.1572
11257TIP3    H255263   5.563   5.831   1.351  0.3816  0.8220  0.1598
11258TIP3   OH255264   2.698   6.820  14.513  0.2134 -0.3834  0.2385
11258TIP3    H155265   2.714   6.903  14.468  1.2677 -0.1822  0.9409
11258TIP3    H255266   2.705   6.753  14.445  1.6720 -0.0790  0.0693
11259TIP3   OH255267   4.494   2.833  16.853 -0.3465  0.2024  0.6244
11259TIP3    H155268   4.588   2.832  16.867 -0.3423  0.1798  0.5925
11259TIP3    H255269   4.460   2.760  16.904 -0.6771  1.9013  3.0237
11260TIP3   OH255270   5.445   3.342   3.189 -0.4319 -0.2385  0.0536
11260TIP3    H155271   5.376   3.375   3.247 -0.6421  0.4078 -0.5552
11260TIP3    H255272   5.424   3.378   3.103  0.7064  0.0430 -0.1318
11261TIP3   OH255273   5.232   4.636  12.699  0.0103  0.3985  0.8300
11261TIP3    H155274   5.205   4.676  12.782  0.6744  1.9176  0.3454
11261TIP3    H255275   5.168   4.566  12.685 -0.0507  0.0377  2.6587
11262TIP3   OH255276   2.949   2.531  14.656 -0.7960  0.6619 -0.4537
11262TIP3    H155277   3.031   2.552  14.612  0.7080 -1.5647  1.1092
11262TIP3    H255278   2.903   2.614  14.662  0.7701  1.7640 -2.4518
11263TIP3   OH255279   5.740   6.622  12.202  0.1741 -0.3985 -0.2726
11263TIP3    H155280   5.647   6.639  12.210  0.2296  0.7645 -1.6096
11263TIP3    H255281   5.777   6.649  12.286 -0.8391 -2.3820  0.8721
11264TIP3   OH255282   6.329   3.686  14.045  0.5315 -0.0636 -0.2689
11264TIP3    H155283   6.391   3.646  13.984  0.0799  1.2990 -1.7036
11264TIP3    H255284   6.379   3.756  14.087  0.3993  0.0234 -0.2562
11265TIP3   OH255285   5.265   3.739  10.960  0.1389 -0.2561  0.1209
11265TIP3    H155286   5.223   3.694  10.887 -0.9284  0.5652  0.2130
11265TIP3    H255287   5.351   3.698  10.966  0.6941  0.3627 -2.3042
11266TIP3   OH255288   4.593   4.373  11.968 -0.1683 -0.2630 -0.1571
11266TIP3    H155289   4.586   4.293  11.916 -0.8799  0.2326 -0.8610
11266TIP3    H255290   4.554   4.351  12.052  2.2611 -1.4966  0.7305
11267TIP3   OH255291   3.105   2.669   3.899 -1.1876  0.0065 -0.5080
11267TIP3    H155292   3.116   2.763   3.914  0.0529  0.5205 -3.7422
11267TIP3    H255293   3.051   2.664   3.820  0.0679 -1.9383 -1.3109
11268TIP3   OH255294   6.504   4.229  15.995 -0.1548 -0.6551  0.6251
11268TIP3    H155295   6.493   4.191  15.908  0.0865  2.2556 -0.8130
11268TIP3    H255296   6.599   4.227  16.010  0.1270  1.2657 -0.4971
11269TIP3   OH255297   3.857   5.776  15.270  0.2516  0.0090 -0.0273
11269TIP3    H155298   3.923   5.827  15.318  0.6955  0.1472 -0.7751
11269TIP3    H255299   3.907   5.723  15.208 -0.4058  2.1047 -2.5563
11270TIP3   OH255300   6.833   4.947  11.612 -0.1773  0.0766  0.0372
11270TIP3    H155301   6.902   4.921  11.673  0.5700  1.6380 -0.0906
11270TIP3    H255302   6.843   5.042  11.604 -0.8760  0.0318 -1.7741
11271TIP3   OH255303   3.125   4.470   0.354 -0.3080 -0.2519 -0.3237
11271TIP3    H155304   3.155   4.398   0.410 -0.3280  0.4822  0.6596
11271TIP3    H255305   3.044   4.438   0.315 -0.4896 -0.6473  0.3663
11272TIP3   OH255306   3.626   0.463  15.259  0.3329 -0.0508  0.2058
11272TIP3    H155307   3.537   0.434  15.280  0.4420 -1.5522 -1.2315
11272TIP3    H255308   3.667   0.387  15.217  1.6217  1.2990 -1.0782
11273TIP3   OH255309   6.593   4.307  11.164  0.8867  0.0098 -0.3260
11273TIP3    H155310   6.575   4.213  11.163 -1.1121  0.3137  1.2713
11273TIP3    H255311   6.644   4.320  11.244  0.2257  0.3904  0.0463
11274TIP3   OH255312   5.667   3.573   3.676  0.2648 -0.6843 -0.0469
11274TIP3    H155313   5.680   3.659   3.638  2.0228 -1.2035 -0.7208
11274TIP3    H255314   5.623   3.590   3.759 -0.5319  0.7399 -0.7174
11275TIP3   OH255315   1.852   3.839  16.113 -0.7181 -0.3251 -0.0783
11275TIP3    H155316   1.811   3.816  16.196  0.0307  1.8997  0.9964
11275TIP3    H255317   1.811   3.922  16.088  0.0206 -0.2788 -1.2132
11276TIP3   OH255318   1.313   6.466  14.152  0.0372 -0.1521  0.6454
11276TIP3    H155319   1.355   6.508  14.227  1.1981  0.7241 -0.4600
11276TIP3    H255320   1.258   6.535  14.115  1.3229  0.1903 -0.7003
11277TIP3   OH255321   4.365   0.598  12.944  0.1814  0.0925  0.1463
11277TIP3    H155322   4.330   0.624  12.858  1.4196  1.0665 -0.0971
11277TIP3    H255323   4.406   0.677  12.978 -0.4860 -0.2157  1.7730
11278TIP3   OH255324   3.053   2.899   2.715  0.0572 -0.1128 -0.1594
11278TIP3    H155325   3.107   2.821   2.705  0.8600  0.1130  1.8677
11278TIP3    H255326   2.975   2.869   2.761  0.7903  0.3558  1.4967
11279TIP3   OH255327   5.240   4.591  15.214  0.1722  0.4035  0.3094
11279TIP3    H155328   5.147   4.584  15.235  0.6089  1.6810  3.1128
11279TIP3    H255329   5.244   4.660  15.148 -0.7996  1.1026  0.9477
11280TIP3   OH255330   0.287   2.350  15.634  0.0177 -0.4886 -0.6394
11280TIP3    H155331   0.297   2.259  15.662 -0.0603 -0.3786 -0.2423
11280TIP3    H255332   0.360   2.396  15.675 -2.1798  0.4019  2.6371
11281TIP3   OH255333   0.737   1.154   2.585 -0.0827  0.2067  0.5405
11281TIP3    H155334   0.658   1.177   2.635  0.5421 -0.1504  1.7224
11281TIP3    H255335   0.726   1.061   2.566  0.2232  0.0683  1.0317
11282TIP3   OH255336   4.924   6.145  13.658 -0.3768 -0.2626  0.2342
11282TIP3    H155337   4.985   6.172  13.590  0.4906  1.1701  1.5144
11282TIP3    H255338   4.924   6.217  13.721 -1.8512 -1.1236  1.3061
11283TIP3   OH255339   6.142   4.933  15.896 -0.5802  0.0661 -0.5519
11283TIP3    H155340   6.127   4.977  15.812 -0.4054  1.1451 -0.0354
11283TIP3    H255341   6.089   4.982  15.958 -1.7973 -1.5733 -0.2429
11284TIP3   OH255342   1.261   0.752   2.509 -0.0500 -0.1694  0.3620
11284TIP3    H155343   1.260   0.843   2.539  0.9213 -0.5040  1.4805
11284TIP3    H255344   1.349   0.721   2.529  0.3055 -0.7796 -1.8862
11285TIP3   OH255345   2.144   5.802  11.891 -0.4476 -0.3082  0.0177
11285TIP3    H155346   2.121   5.894  11.877  1.8555  0.4348  0.5962
11285TIP3    H255347   2.080   5.770  11.954  0.0241  1.6049  1.5661
11286TIP3   OH255348   1.587   4.860   2.962 -0.3754 -0.1585  0.0219
11286TIP3    H155349   1.504   4.885   3.004  0.6606  0.7771  1.6092
11286TIP3    H255350   1.611   4.937   2.910  0.6315  0.5104  1.4276
11287TIP3   OH255351   1.206   6.290  11.596  0.8554 -0.1225 -0.3028
11287TIP3    H155352   1.163   6.362  11.642  1.1076 -0.1383 -0.0350
11287TIP3    H255353   1.299   6.305  11.610  0.9436 -2.4727  2.9651
11288TIP3   OH255354   3.243   1.666  14.831  0.4958 -0.0905 -0.0538
11288TIP3    H155355   3.179   1.601  14.861 -0.4104  1.8671  2.7009
11288TIP3    H255356   3.217   1.687  14.742 -0.2783 -2.1543 -0.3580
11289TIP3   OH255357   2.944   6.679   0.774 -0.5213  0.0890  0.1401
11289TIP3    H155358   2.967   6.648   0.862 -2.2149 -1.5152  0.0677
11289TIP3    H255359   2.970   6.607   0.716 -0.4167  0.6879 -0.5654
11290TIP3   OH255360   2.192   2.743  12.068 -0.0817 -0.1060  0.4214
11290TIP3    H155361   2.270   2.760  12.015 -0.3322  2.0589  0.6231
11290TIP3    H255362   2.120   2.744  12.004 -0.1911  0.5857  0.5469
11291TIP3   OH255363   5.383   5.271  11.029  0.1136 -0.0461 -0.3707
11291TIP3    H155364   5.443   5.198  11.047  0.1898 -0.3291 -1.6484
11291TIP3    H255365   5.438   5.349  11.037  0.8475 -0.3384 -2.1195
11292TIP3   OH255366   1.681   2.984   5.301 -0.0279 -0.5216 -0.2920
11292TIP3    H155367   1.706   2.928   5.375  0.5636 -1.3571 -1.0930
11292TIP3    H255368   1.590   3.005   5.316  0.1623 -0.4486  0.8263
11293TIP3   OH255369   3.489   1.074   6.089  0.0783 -0.1521 -0.3344
11293TIP3    H155370   3.539   1.053   6.168  3.2524  1.3988 -1.7346
11293TIP3    H255371   3.436   1.150   6.113 -0.0553 -0.5255  0.6231
11294TIP3   OH255372   4.893   2.352  13.406  0.7182  0.5913 -0.3155
11294TIP3    H155373   4.878   2.267  13.445 -0.0315  0.2324 -1.3452
11294TIP3    H255374   4.950   2.398  13.468  2.2498 -1.1313 -0.3524
11295TIP3   OH255375   1.722   5.001  13.326 -0.0167 -0.8482  0.0122
11295TIP3    H155376   1.722   4.905  13.328 -1.1718 -0.8508  1.2128
11295TIP3    H255377   1.815   5.024  13.333  0.3012 -1.8654 -0.5610
11296TIP3   OH255378   6.453   6.190   3.113  0.6869 -0.2608 -0.3394
11296TIP3    H155379   6.494   6.269   3.080 -0.6490 -0.4482 -2.6409
11296TIP3    H255380   6.452   6.130   3.038  0.7776 -2.1148  1.0570
11297TIP3   OH255381   5.784   2.384   5.035  0.5931 -0.2363 -0.1273
11297TIP3    H155382   5.706   2.392   4.980  1.2219  0.2567 -0.9755
11297TIP3    H255383   5.776   2.298   5.074  0.0052 -0.5107 -0.8150
11298TIP3   OH255384   0.721   3.346   6.123  0.8589  0.4972  0.2739
11298TIP3    H155385   0.811   3.355   6.092  0.4737 -0.7771 -1.3490
11298TIP3    H255386   0.728   3.303   6.209  1.9087  3.3195  1.7166
11299TIP3   OH255387   3.291   0.289  14.488 -0.5461 -0.0497  0.2083
11299TIP3    H155388   3.275   0.219  14.425 -0.2315  0.5225 -0.5221
11299TIP3    H255389   3.207   0.335  14.495 -0.0695  1.1266 -1.3573
11300TIP3   OH255390   2.697   3.436   6.132 -0.8611 -0.2216 -0.7385
11300TIP3    H155391   2.698   3.438   6.036 -0.6786 -2.2006 -0.8218
11300TIP3    H255392   2.610   3.403   6.155 -1.2836  1.2369 -0.1592
11301TIP3   OH255393   3.522   2.805  15.542  0.1283 -0.1426 -0.1707
11301TIP3    H155394   3.594   2.774  15.596 -0.3527 -1.7712 -0.3991
11301TIP3    H255395   3.471   2.862  15.599 -0.0474 -1.3674  0.9138
11302TIP3   OH255396   1.201   0.375   2.957  0.2886 -0.4418  0.3600
11302TIP3    H155397   1.199   0.359   3.051 -0.2014 -2.6303  0.0305
11302TIP3    H255398   1.204   0.288   2.917  0.7521  0.4208 -1.6637
11303TIP3   OH255399   1.168   4.068  13.018 -0.1391  0.4233  0.6122
11303TIP3    H155400   1.143   4.155  12.986 -1.8018 -0.0412  0.5911
11303TIP3    H255401   1.087   4.019  13.020  0.6715 -0.9322  1.3149
11304TIP3   OH255402   1.066   5.005  15.103 -0.8328 -0.3020 -0.6657
11304TIP3    H155403   1.094   4.949  15.030  0.3700 -0.6272  0.0198
11304TIP3    H255404   1.019   4.945  15.161  1.3707 -0.9378  0.5986
11305TIP3   OH255405   6.503   0.365  13.449 -0.6641 -0.5697  0.1925
11305TIP3    H155406   6.558   0.325  13.516 -0.1620 -0.5668 -0.2043
11305TIP3    H255407   6.479   0.450  13.484 -0.7049 -0.7183  0.5213
11306TIP3   OH255408   1.530   3.594  16.239 -0.7450  0.1430  0.4414
11306TIP3    H155409   1.477   3.558  16.310 -2.8429 -1.7418 -1.8627
11306TIP3    H255410   1.469   3.600  16.165  1.8705 -0.4045 -1.9124
11307TIP3   OH255411   2.788   0.974   4.881  0.3937 -0.1713 -0.1283
11307TIP3    H155412   2.780   1.044   4.816  0.0147 -0.6653 -0.6276
11307TIP3    H255413   2.698   0.945   4.895  0.7645 -2.6374 -2.2434
11308TIP3   OH255414   2.907   4.501   2.442 -0.1404  0.1106  0.3562
11308TIP3    H155415   2.933   4.420   2.397  0.6972  0.4587  0.2132
11308TIP3    H255416   2.873   4.471   2.526  2.9628 -0.2361  1.5933
11309TIP3   OH255417   0.617   1.631   5.546 -0.5133 -0.4737  0.1436
11309TIP3    H155418   0.638   1.723   5.528  2.3444 -0.7863  1.3394
11309TIP3    H255419   0.559   1.635   5.623  0.0774  0.3427  0.5654
11310TIP3   OH255420   3.180   3.027  11.454 -0.0152 -0.2925  0.8099
11310TIP3    H155421   3.182   2.973  11.376 -1.5124  0.9005 -0.1014
11310TIP3    H255422   3.092   3.065  11.455 -0.2466 -0.6845  3.3749
11311TIP3   OH255423   6.122   2.220  14.134 -0.3759 -0.0041  0.5938
11311TIP3    H155424   6.041   2.178  14.108  0.3781 -1.3049  0.2774
11311TIP3    H255425   6.187   2.188  14.072  0.4941  0.6013  1.1618
11312TIP3   OH255426   4.018   6.767   0.318 -0.0916 -0.1122 -0.4967
11312TIP3    H155427   4.042   6.827   0.247 -0.9603 -0.8494 -1.4473
11312TIP3    H255428   3.933   6.732   0.291 -0.2888 -0.6393  0.7741
11313TIP3   OH255429   5.772   0.743   2.237 -0.1600  0.0697  0.0332
11313TIP3    H155430   5.693   0.703   2.273  1.3133 -0.8594  2.5190
11313TIP3    H255431   5.833   0.670   2.227  1.3186  1.1381  0.9074
11314TIP3   OH255432   3.787   5.283   1.638  1.2534  0.0876 -0.1424
11314TIP3    H155433   3.758   5.199   1.675  1.2336 -0.7446 -1.9451
11314TIP3    H255434   3.735   5.348   1.685  1.7570 -0.8119  1.7846
11315TIP3   OH255435   4.617   1.901   2.782 -0.1203  0.8428 -0.0152
11315TIP3    H155436   4.550   1.860   2.838  0.1801  0.3059 -0.0445
11315TIP3    H255437   4.617   1.848   2.702  1.5321 -0.2393  0.6553
11316TIP3   OH255438   5.642   2.636   3.443  0.0385  0.1602  0.8260
11316TIP3    H155439   5.691   2.710   3.477 -0.6617  2.0639 -1.8926
11316TIP3    H255440   5.553   2.670   3.431 -0.6787 -1.5879  0.8865
11317TIP3   OH255441   0.892   6.540   6.457  0.0556 -0.2964  0.0105
11317TIP3    H155442   0.926   6.629   6.450 -0.8980  0.2213  1.3857
11317TIP3    H255443   0.890   6.507   6.367  1.1546  0.7811 -0.4278
11318TIP3   OH255444   4.690   2.773   2.767 -0.1146 -0.2593  0.2255
11318TIP3    H155445   4.669   2.687   2.732  0.0256 -0.1953 -0.0205
11318TIP3    H255446   4.677   2.765   2.861  2.4239 -1.3096  0.5462
11319TIP3   OH255447   2.238   2.547  16.549  0.1511  0.3840 -0.9844
11319TIP3    H155448   2.317   2.528  16.499  0.5696 -1.1873  0.1956
11319TIP3    H255449   2.269   2.584  16.632 -0.2250 -1.3453 -0.0240
11320TIP3   OH255450   0.178   3.870  14.250  0.0926 -0.3152  0.3792
11320TIP3    H155451   0.094   3.914  14.258  0.0287  0.0018 -1.5912
11320TIP3    H255452   0.194   3.865  14.156  1.4169 -2.0232  0.6473
11321TIP3   OH255453   1.494   3.210  10.682 -1.2984  0.4794  0.2915
11321TIP3    H155454   1.588   3.209  10.701 -1.4366  0.3892  1.0156
11321TIP3    H255455   1.464   3.122  10.704 -1.7358  0.8153  1.0824
11322TIP3   OH255456   2.740   6.094   3.466 -0.2791  0.3274 -0.3827
11322TIP3    H155457   2.659   6.129   3.504 -0.6116  0.8057 -1.4677
11322TIP3    H255458   2.799   6.084   3.540 -0.7719  1.5764  0.2125
11323TIP3   OH255459   4.128   6.756  11.383 -0.1873 -0.5385 -0.0143
11323TIP3    H155460   4.131   6.806  11.301  0.4298 -1.4588 -0.5822
11323TIP3    H255461   4.142   6.821  11.451  0.0133  0.1526 -0.6937
11324TIP3   OH255462   2.601   0.118   2.857  0.4422 -0.7107  0.1045
11324TIP3    H155463   2.528   0.136   2.917  0.9943 -0.4487  0.7017
11324TIP3    H255464   2.588   0.026   2.831 -0.5536 -0.4422 -0.4348
11325TIP3   OH255465   2.906   3.362   0.944 -0.9123 -0.0012  0.4278
11325TIP3    H155466   2.845   3.429   0.974 -1.0085 -0.6110  1.6496
11325TIP3    H255467   2.850   3.291   0.912 -0.8124  0.4389 -0.7477
11326TIP3   OH255468   5.575   1.201  16.396 -0.1512 -0.6197 -0.4120
11326TIP3    H155469   5.530   1.278  16.359 -0.3156 -0.7000 -0.3821
11326TIP3    H255470   5.570   1.135  16.327 -0.9506 -0.9563 -0.0507
11327TIP3   OH255471   3.571   3.971   5.794 -0.2350  0.2341 -0.0476
11327TIP3    H155472   3.584   3.897   5.735  1.1583  0.3086  0.1295
11327TIP3    H255473   3.638   3.960   5.861 -0.2991  1.4217  0.2335
11328TIP3   OH255474   0.436   6.030   6.230 -0.0214  0.3072 -0.1879
11328TIP3    H155475   0.439   5.959   6.165 -0.3292 -1.5636  1.7435
11328TIP3    H255476   0.524   6.067   6.227  0.3434 -0.5530 -0.8266
11329TIP3   OH255477   2.572   4.234   2.944  0.5539  0.0452  0.0811
11329TIP3    H155478   2.495   4.186   2.975  1.0158 -1.3737 -0.8655
11329TIP3    H255479   2.600   4.285   3.020 -0.1546 -0.9643  1.0583
11330TIP3   OH255480   4.335   1.695   1.221 -0.4568  0.0299  0.0222
11330TIP3    H155481   4.317   1.602   1.236  1.0987  0.1135  3.3199
11330TIP3    H255482   4.271   1.741   1.275  0.3580  0.7788  0.3744
11331TIP3   OH255483   4.227   3.536  17.045  0.4425 -0.4290  0.0262
11331TIP3    H155484   4.217   3.629  17.064  2.8746 -0.4010  1.6840
11331TIP3    H255485   4.176   3.521  16.965 -1.0232  2.0199  0.4331
11332TIP3   OH255486   1.793   3.984  16.916 -0.0822  0.2348 -0.4379
11332TIP3    H155487   1.821   3.982  16.824  0.3284 -1.1574 -0.3109
11332TIP3    H255488   1.836   4.061  16.953 -1.5555  1.7902 -1.7761
11333TIP3   OH255489   3.273   3.214  14.695  0.4771 -0.3386  0.5474
11333TIP3    H155490   3.233   3.282  14.641  1.9481  0.1087 -0.0142
11333TIP3    H255491   3.294   3.144  14.634  1.6640 -0.0493  0.6100
11334TIP3   OH255492   4.409   6.656   6.286 -0.1106  0.0210  0.7326
11334TIP3    H155493   4.357   6.637   6.207 -1.3669 -1.4382  1.8501
11334TIP3    H255494   4.462   6.577   6.299  1.0020  0.7456  0.6861
11335TIP3   OH255495   3.944   5.948  14.756  0.3254  0.2022 -0.2265
11335TIP3    H155496   3.899   6.032  14.745  1.3928  1.1232  1.8586
11335TIP3    H255497   4.012   5.966  14.820  0.6859 -2.2542  0.1583
11336TIP3   OH255498   3.334   5.225   2.268 -0.1322 -0.4594 -0.5561
11336TIP3    H155499   3.308   5.179   2.348 -0.6828  1.5478  0.5146
11336TIP3    H255500   3.288   5.180   2.198  1.9454 -3.5598 -0.0950
11337TIP3   OH255501   3.150   6.736   3.931  0.1620  0.2546 -0.0037
11337TIP3    H155502   3.215   6.802   3.954  1.6892 -1.2983  0.3750
11337TIP3    H255503   3.097   6.726   4.010  0.6116  0.2872  0.3098
11338TIP3   OH255504   3.916   5.382  12.149 -0.1097  0.2826  0.0681
11338TIP3    H155505   3.900   5.290  12.128  2.7284 -0.1679 -0.4358
11338TIP3    H255506   3.843   5.429  12.108 -2.3198 -1.7736  1.4069
11339TIP3   OH255507   4.465   6.498   1.649 -0.2053 -0.6106 -0.4166
11339TIP3    H155508   4.543   6.527   1.698  0.1282 -1.6250 -0.3256
11339TIP3    H255509   4.416   6.578   1.633  0.5949 -0.0219 -0.0026
11340TIP3   OH255510   5.987   5.815  12.721  0.4031 -0.0223  0.4006
11340TIP3    H155511   5.976   5.789  12.813  1.9495  1.6552  1.1365
11340TIP3    H255512   6.059   5.878  12.723  0.5316 -0.0085 -2.0024
11341TIP3   OH255513   6.618   0.294  14.537 -0.7011 -0.3889 -0.0630
11341TIP3    H155514   6.707   0.320  14.560 -0.8615 -0.8606  1.1808
11341TIP3    H255515   6.575   0.277  14.622 -2.0983  0.2215 -0.6142
11342TIP3   OH255516   5.162   1.167   2.184 -0.6341 -0.4062 -0.1110
11342TIP3    H155517   5.078   1.191   2.222  0.2712  0.3782  1.5243
11342TIP3    H255518   5.222   1.165   2.259  0.8734 -0.5762 -1.2787
11343TIP3   OH255519   6.861   6.565  16.362 -0.3265 -0.0620 -0.5699
11343TIP3    H155520   6.921   6.636  16.337  0.0064 -0.0310  0.2934
11343TIP3    H255521   6.911   6.513  16.425 -1.3352  0.1844  0.4637
11344TIP3   OH255522   5.637   6.141   5.652 -0.4855 -0.1555  0.2516
11344TIP3    H155523   5.627   6.090   5.572 -1.0841 -0.0536  0.2633
11344TIP3    H255524   5.555   6.128   5.700  0.4309 -1.4485  1.5554
11345TIP3   OH255525   5.961   0.240  13.430 -0.1007  0.0144  0.5355
11345TIP3    H155526   6.038   0.245  13.488  0.4897 -1.8131 -0.0198
11345TIP3    H255527   5.917   0.324  13.443  2.8075  1.8366 -0.2975
11346TIP3   OH255528   2.575   1.901   6.448  0.5940 -0.0575  0.2502
11346TIP3    H155529   2.638   1.949   6.395  0.6543  1.4293  1.6192
11346TIP3    H255530   2.530   1.968   6.500 -0.6740 -1.2884  0.8122
11347TIP3   OH255531   6.502   0.199  12.853 -0.2135  0.4501  0.3696
11347TIP3    H155532   6.497   0.162  12.941 -1.3308  0.5714  0.3673
11347TIP3    H255533   6.536   0.287  12.866  0.0257  0.3195  0.6373
11348TIP3   OH255534   3.086   0.212   2.963  0.0400 -0.6053 -0.5949
11348TIP3    H155535   2.996   0.244   2.958 -0.2035 -1.1861  0.0272
11348TIP3    H255536   3.080   0.120   2.936  0.7162 -0.2038 -2.2383
11349TIP3   OH255537   5.605   2.589   1.163  0.1417 -0.2836 -0.3964
11349TIP3    H155538   5.555   2.549   1.234 -0.6537  0.2368 -0.6472
11349TIP3    H255539   5.633   2.516   1.109  0.1572 -0.6237  0.0645
11350TIP3   OH255540   5.760   6.725   2.413  0.0338  0.0399 -0.1158
11350TIP3    H155541   5.824   6.687   2.473 -0.8532 -0.1728  0.7360
11350TIP3    H255542   5.716   6.649   2.374 -0.2530  0.1787 -0.0685
11351TIP3   OH255543   6.389   6.279   6.589  0.0357  0.4282 -0.0757
11351TIP3    H155544   6.476   6.269   6.550 -0.2253  0.1882 -0.5974
11351TIP3    H255545   6.340   6.202   6.559 -0.2685  0.4026  0.4633
11352TIP3   OH255546   1.538   1.770   1.717  0.0648 -0.5979  0.4712
11352TIP3    H155547   1.532   1.683   1.678  0.4230  0.1341 -1.3489
11352TIP3    H255548   1.627   1.799   1.698 -0.2079  0.3632  0.5964
11353TIP3   OH255549   4.489   1.290  13.316 -0.2521 -0.5052 -0.2996
11353TIP3    H155550   4.529   1.220  13.265  1.8606  0.0116  0.5422
11353TIP3    H255551   4.466   1.250  13.399 -0.0907 -0.4840 -0.2427
11354TIP3   OH255552   4.703   2.662   0.325  0.0552 -0.9417 -0.0194
11354TIP3    H155553   4.714   2.595   0.258 -0.8494 -1.7050  0.5772
11354TIP3    H255554   4.674   2.740   0.277 -1.1439 -1.6386 -0.4723
11355TIP3   OH255555   2.209   4.146  10.942  0.0140  0.0460 -0.1899
11355TIP3    H155556   2.229   4.220  10.999 -2.4932  0.7183 -0.0563
11355TIP3    H255557   2.267   4.158  10.866  2.0533  0.1926  1.3170
11356TIP3   OH255558   2.218   5.835  11.534  0.1698 -0.0311 -0.2276
11356TIP3    H155559   2.202   5.870  11.446  0.0945  0.1566 -0.1376
11356TIP3    H255560   2.220   5.740  11.521  1.4183  0.0347 -0.6560
11357TIP3   OH255561   1.807   2.356  15.141  0.3141  0.0459  0.0692
11357TIP3    H155562   1.855   2.278  15.113 -0.4163 -0.0658 -0.9118
11357TIP3    H255563   1.830   2.423  15.076 -1.3659 -0.2042 -0.8190
11358TIP3   OH255564   2.638   2.913  15.497  0.5408 -0.4195  0.2527
11358TIP3    H155565   2.555   2.872  15.470  0.8584 -0.2888 -0.9826
11358TIP3    H255566   2.641   2.900  15.592 -1.5178  0.7067  0.5367
11359TIP3   OH255567   4.808   1.573   3.676  0.2186  0.0408 -0.2133
11359TIP3    H155568   4.835   1.600   3.764  0.1837 -1.5192  0.3086
11359TIP3    H255569   4.781   1.482   3.687  0.8774 -0.3921 -1.9776
11360TIP3   OH255570   5.192   5.329   2.157 -0.3441  0.0593 -0.1298
11360TIP3    H155571   5.245   5.405   2.180 -0.0751 -0.0336 -0.4417
11360TIP3    H255572   5.255   5.258   2.142 -0.5878 -0.2089  0.0877
11361TIP3   OH255573   1.773   4.752   0.576  0.2432 -0.1316 -1.0359
11361TIP3    H155574   1.756   4.802   0.496 -0.5846 -0.3872 -1.0254
11361TIP3    H255575   1.844   4.692   0.552  1.1084  0.8802 -1.1099
11362TIP3   OH255576   1.730   0.535   4.332 -0.5581  0.0883 -0.7624
11362TIP3    H155577   1.716   0.602   4.399  0.2801  1.5707 -1.9985
11362TIP3    H255578   1.740   0.453   4.381  0.6139  1.2120  0.9816
11363TIP3   OH255579   4.302   0.594  16.445  0.2194  0.0395  0.0805
11363TIP3    H155580   4.312   0.672  16.391  1.6635 -0.2175 -0.0704
11363TIP3    H255581   4.388   0.551  16.441 -0.3251 -1.1688  0.7517
11364TIP3   OH255582   3.570   1.359   3.854 -0.4187  0.3566  0.1490
11364TIP3    H155583   3.650   1.403   3.882 -0.9305  0.2299  1.9152
11364TIP3    H255584   3.580   1.349   3.759  2.0267 -0.4029  0.4296
11365TIP3   OH255585   0.890   3.461  11.067  0.4784 -0.3422  0.1247
11365TIP3    H155586   0.887   3.365  11.065 -0.9122 -0.3102 -1.0449
11365TIP3    H255587   0.822   3.488  11.006  1.5976  1.3984 -0.4212
11366TIP3   OH255588   1.598   4.850  14.721  0.1344  0.0575 -0.0896
11366TIP3    H155589   1.664   4.918  14.735  1.9730 -1.8672  1.2555
11366TIP3    H255590   1.534   4.864  14.790  1.1916 -0.3175  1.0003
11367TIP3   OH255591   5.054   5.167  10.762  0.0255 -0.0876 -0.2920
11367TIP3    H155592   4.983   5.114  10.798  0.9364 -1.1889 -0.0279
11367TIP3    H255593   5.074   5.231  10.831  1.0636 -1.5193  0.8047
11368TIP3   OH255594   5.004   3.421  16.582 -0.0183  0.3456 -0.1712
11368TIP3    H155595   4.956   3.364  16.642  3.0935 -0.4414  1.7797
11368TIP3    H255596   5.092   3.382  16.576  1.2952  3.1932 -1.2871
11369TIP3   OH255597   4.363   0.129  12.047  0.2898  0.2132  0.0196
11369TIP3    H155598   4.418   0.199  12.082  0.3689  0.0524  0.2150
11369TIP3    H255599   4.312   0.171  11.978 -0.4314  0.7157  0.8386
11370TIP3   OH255600   5.934   4.531  15.403 -0.0566 -0.4121  0.7191
11370TIP3    H155601   5.839   4.528  15.402 -0.1167  0.0142 -1.8379
11370TIP3    H255602   5.956   4.615  15.363  1.4063 -0.6753  0.8968
11371TIP3   OH255603   4.311   0.972  12.669  0.0274 -0.1133  0.5062
11371TIP3    H155604   4.230   0.937  12.633  0.9897 -2.9579  0.8353
11371TIP3    H255605   4.305   0.954  12.763  1.5554 -1.6964  0.3626
11372TIP3   OH255606   5.908   0.363  11.113 -0.3114  0.1633  0.2144
11372TIP3    H155607   5.985   0.367  11.056 -0.0587  0.7477  0.5908
11372TIP3    H255608   5.842   0.414  11.067 -1.0344 -1.7140 -0.9257
11373TIP3   OH255609   4.676   6.494   2.907 -0.3180  0.1183 -0.4876
11373TIP3    H155610   4.589   6.463   2.880 -0.6619 -0.6215  1.3341
11373TIP3    H255611   4.736   6.428   2.871 -0.5651  0.2140 -1.0971
11374TIP3   OH255612   4.334   5.563  11.614 -0.1240  0.2638 -0.0643
11374TIP3    H155613   4.337   5.501  11.542 -1.3477 -0.0197  0.1090
11374TIP3    H255614   4.389   5.525  11.682 -1.3840 -1.0015  0.2988
11375TIP3   OH255615   0.584   3.525   1.231 -0.0387 -0.3242 -0.4287
11375TIP3    H155616   0.662   3.491   1.275 -0.7769 -2.5663 -0.7355
11375TIP3    H255617   0.512   3.510   1.293 -0.5332 -0.1485 -0.9488
11376TIP3   OH255618   4.276   6.628   3.872  0.1036 -0.6749 -0.9660
11376TIP3    H155619   4.353   6.634   3.929 -0.4995 -1.6347 -0.0217
11376TIP3    H255620   4.302   6.566   3.803 -0.0346 -1.5290 -0.2684
11377TIP3   OH255621   3.650   2.539  13.463 -0.7159  0.0695  0.0837
11377TIP3    H155622   3.647   2.633  13.446  0.7417  0.1935  0.3945
11377TIP3    H255623   3.712   2.529  13.536  1.4206 -1.3258 -1.7678
11378TIP3   OH255624   4.907   5.468  11.884  0.1820 -0.1984 -0.0336
11378TIP3    H155625   4.857   5.386  11.884  0.6148 -0.4656  0.6490
11378TIP3    H255626   4.925   5.486  11.976  1.5755 -0.2410 -0.2804
11379TIP3   OH255627   5.155   6.756   4.509  0.2802  0.3324  0.3900
11379TIP3    H155628   5.198   6.803   4.437 -0.6024 -0.0203 -0.3986
11379TIP3    H255629   5.159   6.816   4.583  2.5563  0.1181  0.5121
11380TIP3   OH255630   4.088   4.431   3.215 -0.2795  0.6715  0.0860
11380TIP3    H155631   4.159   4.420   3.277  1.2630 -1.3656 -1.9138
11380TIP3    H255632   4.115   4.506   3.161 -0.2680  0.6753  0.0973
11381TIP3   OH255633   2.775   0.816   3.574 -0.2276  0.0297 -0.1660
11381TIP3    H155634   2.783   0.896   3.625 -0.4455 -0.6597  0.9931
11381TIP3    H255635   2.844   0.759   3.610  0.7810  0.1347 -1.8432
11382TIP3   OH255636   6.163   3.575   3.202  0.0562 -0.0941 -0.3364
11382TIP3    H155637   6.091   3.630   3.169  1.7421  2.4476 -0.0430
11382TIP3    H255638   6.239   3.602   3.150  1.2433 -1.2143  0.7662
11383TIP3   OH255639   1.035   1.864  13.521 -0.0340  0.0675 -0.0320
11383TIP3    H155640   1.037   1.934  13.455  2.2002  1.5044  1.4378
11383TIP3    H255641   0.977   1.897  13.589 -1.3082 -0.8599 -0.6167
11384TIP3   OH255642   3.416   0.528   6.426  0.6819 -0.3715  0.2015
11384TIP3    H155643   3.448   0.617   6.440  0.6954  0.0542 -2.1507
11384TIP3    H255644   3.479   0.472   6.472 -0.1825  0.8057  3.0783
11385TIP3   OH255645   5.405   4.445  12.887 -0.4172  0.2818  0.7307
11385TIP3    H155646   5.343   4.480  12.951 -0.5164  1.8989 -0.1839
11385TIP3    H255647   5.351   4.420  12.813 -0.1628 -0.1436  0.6878
11386TIP3   OH255648   6.758   5.702   2.116  0.4565  0.0789 -0.2779
11386TIP3    H155649   6.744   5.616   2.076 -0.4609  0.8589 -1.7500
11386TIP3    H255650   6.853   5.714   2.116  0.7473 -1.5938  1.5259
11387TIP3   OH255651   1.558   3.671  15.758  0.7197 -0.1180 -0.1423
11387TIP3    H155652   1.498   3.700  15.827  1.1013  1.8627 -0.5937
11387TIP3    H255653   1.641   3.658  15.803  0.6015 -0.3349  0.0206
11388TIP3   OH255654   0.664   1.114   0.288  0.4591 -0.3828  0.0429
11388TIP3    H155655   0.596   1.102   0.223  1.3033  1.0050 -1.1723
11388TIP3    H255656   0.730   1.047   0.268  0.8159  0.1765 -0.6966
11389TIP3   OH255657   1.839   5.477  10.814 -0.2536 -0.4174  0.1650
11389TIP3    H155658   1.804   5.469  10.725  1.0175 -1.5483 -0.2674
11389TIP3    H255659   1.841   5.571  10.830  1.5660 -0.0268 -1.8908
11390TIP3   OH255660   5.264   4.937  16.145  0.6355  0.5101 -0.2173
11390TIP3    H155661   5.276   4.952  16.238 -0.2830 -0.9106  0.1654
11390TIP3    H255662   5.276   4.843  16.134 -0.5079  0.4611 -1.3148
11391TIP3   OH255663   3.692   3.629   3.189 -0.1186  0.2313 -0.3544
11391TIP3    H155664   3.701   3.546   3.235 -0.9582  0.1490 -0.3381
11391TIP3    H255665   3.746   3.690   3.240 -0.7466  0.0579  0.5329
11392TIP3   OH255666   1.426   4.351  11.554 -0.0738  0.1948  0.1589
11392TIP3    H155667   1.440   4.304  11.636  0.4436  0.7508  0.3989
11392TIP3    H255668   1.460   4.439  11.571  2.7565 -0.4453 -1.5084
11393TIP3   OH255669   3.987   3.365   2.919 -0.5579  0.3176 -0.0210
11393TIP3    H155670   3.920   3.368   2.988  0.4972  3.1798  1.0084
11393TIP3    H255671   4.069   3.388   2.964  1.2163 -2.8357 -1.2780
11394TIP3   OH255672   3.644   0.628  16.106  0.1753  0.5858 -0.2598
11394TIP3    H155673   3.679   0.658  16.023  1.6978  0.1897  0.2021
11394TIP3    H255674   3.624   0.535  16.092  0.0620  0.6159 -0.2964
11395TIP3   OH255675   3.403   3.707  16.245 -0.3896  0.0951  0.5731
11395TIP3    H155676   3.442   3.767  16.309 -0.1504 -0.7732  1.2573
11395TIP3    H255677   3.320   3.679  16.285 -1.6947  1.7759 -0.7834
11396TIP3   OH255678   5.109   1.055  15.637 -0.0620  0.0568  0.0179
11396TIP3    H155679   5.100   0.962  15.656 -0.5720  0.4196  1.6670
11396TIP3    H255680   5.195   1.079  15.672  0.8293 -0.0971 -1.8925
11397TIP3   OH255681   3.609   5.651  13.519  0.2807  0.5152 -0.3820
11397TIP3    H155682   3.617   5.665  13.424  2.5305 -0.3266 -0.3920
11397TIP3    H255683   3.690   5.688  13.555 -0.4524  0.6574  1.2014
11398TIP3   OH255684   4.460   6.342  16.889  0.2704  0.2128  0.5424
11398TIP3    H155685   4.468   6.250  16.864 -1.4352  0.4739 -1.1982
11398TIP3    H255686   4.524   6.387  16.834 -0.2505  0.2647 -0.0317
11399TIP3   OH255687   4.278   3.225  11.242  0.3057  0.3909 -0.8340
11399TIP3    H155688   4.310   3.304  11.196  3.2283 -0.0381  0.2543
11399TIP3    H255689   4.255   3.256  11.330 -0.1264  0.2984 -0.9126
11400TIP3   OH255690   0.367   2.497   1.752 -0.4853 -0.2166  0.1620
11400TIP3    H155691   0.322   2.415   1.732 -1.1448  0.0110  0.6716
11400TIP3    H255692   0.457   2.483   1.723 -0.8235 -0.7654 -0.6488
11401TIP3   OH255693   3.560   3.817   4.363  0.0502  0.8892 -0.1142
11401TIP3    H155694   3.639   3.801   4.311 -0.4276  1.6100 -1.0758
11401TIP3    H255695   3.488   3.789   4.307 -0.4679  1.5948  0.1930
11402TIP3   OH255696   6.304   4.308  14.663 -0.6555 -0.3300  0.1125
11402TIP3    H155697   6.353   4.239  14.618  1.6375  0.2586  1.5106
11402TIP3    H255698   6.301   4.380  14.600  0.8446 -0.1853  0.1644
11403TIP3   OH255699   3.257   0.764   3.169  0.1519 -0.1433 -0.2562
11403TIP3    H155700   3.271   0.763   3.263 -1.0934 -0.2232 -0.0543
11403TIP3    H255701   3.344   0.750   3.131  0.7553  0.4553  0.8585
11404TIP3   OH255702   1.540   0.493  11.460  0.3835  0.1001  0.4874
11404TIP3    H155703   1.483   0.522  11.389 -0.4284 -0.5482  0.8599
11404TIP3    H255704   1.603   0.435  11.417 -0.1416 -0.3385  0.2898
11405TIP3   OH255705   3.960   5.403   5.568 -0.1576  0.2855 -0.1034
11405TIP3    H155706   3.986   5.489   5.602  1.6257  0.0218 -0.6864
11405TIP3    H255707   3.977   5.409   5.474 -3.1971  0.3654 -0.7702
11406TIP3   OH255708   1.387   2.143  16.557  0.0073  0.1160 -0.1472
11406TIP3    H155709   1.341   2.062  16.578 -0.4484  0.5080  0.3985
11406TIP3    H255710   1.357   2.167  16.469 -0.3814  0.0628 -0.0276
11407TIP3   OH255711   4.253   4.981   3.824 -0.0747 -0.8902  0.7798
11407TIP3    H155712   4.229   4.993   3.732  1.2224  1.1466  0.6330
11407TIP3    H255713   4.295   4.896   3.827  0.8177 -0.5399 -0.7671
11408TIP3   OH255714   6.477   5.098   2.963 -0.4146 -0.3952 -0.4070
11408TIP3    H155715   6.544   5.040   2.999 -0.6398 -1.4015 -1.5570
11408TIP3    H255716   6.499   5.184   2.999  1.1392 -0.8052 -0.2820
11409TIP3   OH255717   0.381   6.089   3.835  0.7129  0.1305  0.3280
11409TIP3    H155718   0.397   6.021   3.900 -1.0172  0.1147  0.7846
11409TIP3    H255719   0.323   6.151   3.880 -2.4881 -1.0342 -1.8168
11410TIP3   OH255720   6.452   0.900  14.724  0.2865  0.4649  0.6742
11410TIP3    H155721   6.495   0.977  14.686  0.5671  1.1101  2.2047
11410TIP3    H255722   6.373   0.935  14.766  0.2591 -0.1271  1.1318
11411TIP3   OH255723   2.398   4.291  11.296 -0.1667  0.1425  0.3003
11411TIP3    H155724   2.411   4.383  11.322  0.1016 -0.4235  2.3009
11411TIP3    H255725   2.321   4.263  11.346 -0.1611 -0.7635 -0.1922
11412TIP3   OH255726   5.064   2.484  12.905 -0.0361 -0.0678 -0.0101
11412TIP3    H155727   5.088   2.575  12.917 -1.1333  0.3513 -0.8069
11412TIP3    H255728   5.051   2.450  12.994  0.6951  0.4492  0.3037
11413TIP3   OH255729   5.609   2.061   1.286  0.5983 -0.0179 -0.2156
11413TIP3    H155730   5.698   2.033   1.264  1.1701  1.5216  0.0005
11413TIP3    H255731   5.557   2.035   1.210  1.7309  1.2993 -1.5033
11414TIP3   OH255732   5.172   0.054  12.211 -0.1469  0.0261  0.5942
11414TIP3    H155733   5.218   0.091  12.286  0.3296  0.6173  0.0171
11414TIP3    H255734   5.128  -0.024  12.246  3.9379 -2.5966  0.5361
11415TIP3   OH255735   3.003   4.204   1.619  0.1957  0.1548  0.2724
11415TIP3    H155736   2.971   4.294   1.610  1.2940  0.5255 -0.0379
11415TIP3    H255737   3.085   4.213   1.667 -0.0347 -0.7561  0.8547
11416TIP3   OH255738   5.442   0.433   6.590 -0.0983  0.4477  0.3830
11416TIP3    H155739   5.497   0.356   6.601  2.4063  1.9132 -1.0777
11416TIP3    H255740   5.497   0.496   6.543 -3.2665  1.7483 -1.9724
11417TIP3   OH255741   1.975   5.838   3.354  0.5098  0.0936 -0.4050
11417TIP3    H155742   2.038   5.866   3.420 -0.6333 -1.1524  1.2783
11417TIP3    H255743   1.949   5.750   3.380 -2.0003  0.5825 -0.9633
11418TIP3   OH255744   3.510   4.815  14.860 -0.2630  0.3069 -0.0981
11418TIP3    H155745   3.453   4.834  14.785 -0.0986  0.2044 -0.2512
11418TIP3    H255746   3.469   4.861  14.933 -0.7514 -0.0761 -0.1238
11419TIP3   OH255747   3.952   4.623  14.592 -0.5698  0.1767 -0.2664
11419TIP3    H155748   4.018   4.628  14.661 -1.2236 -0.6284  0.4491
11419TIP3    H255749   3.871   4.653  14.633 -1.0260 -0.5740 -0.5897
11420TIP3   OH255750   6.339   6.430   1.904 -0.0788 -0.1739  0.5459
11420TIP3    H155751   6.319   6.523   1.897  0.0409 -0.2377 -0.8886
11420TIP3    H255752   6.270   6.387   1.853  0.7614 -0.7424 -0.1366
11421TIP3   OH255753   4.685   0.237   2.217 -0.1961 -0.4481 -0.2883
11421TIP3    H155754   4.776   0.257   2.239 -0.9041  2.3170  0.6007
11421TIP3    H255755   4.664   0.160   2.269  1.2412 -0.3237  0.5395
11422TIP3   OH255756   4.022   5.776   1.142 -0.1956 -0.4173 -0.6386
11422TIP3    H155757   4.019   5.816   1.229  1.4737 -1.6955  0.0543
11422TIP3    H255758   4.075   5.837   1.090  0.6244 -0.6855 -0.1432
11423TIP3   OH255759   4.152   1.913   4.811 -0.4226 -0.5590  0.0324
11423TIP3    H155760   4.081   1.968   4.843  1.6985  3.7883 -1.7724
11423TIP3    H255761   4.217   1.914   4.881  0.9467  2.3041 -1.0932
11424TIP3   OH255762   3.871   1.881   0.350 -0.1619  0.2968  0.2898
11424TIP3    H155763   3.965   1.864   0.347 -0.4598 -1.5540 -0.3815
11424TIP3    H255764   3.859   1.961   0.299  0.7975 -0.9193 -1.9993
11425TIP3   OH255765   6.680   3.052  15.314  0.0126 -0.2891 -0.0659
11425TIP3    H155766   6.774   3.036  15.307 -0.1580 -1.5821  0.4366
11425TIP3    H255767   6.666   3.077  15.405 -0.3065 -1.4893  0.2330
11426TIP3   OH255768   3.735   6.303  15.652  0.5253 -0.0401  0.4260
11426TIP3    H155769   3.808   6.270  15.704 -0.7467 -0.5718  1.9615
11426TIP3    H255770   3.699   6.225  15.609  0.4727  0.1230  0.1718
11427TIP3   OH255771   2.318   4.426   3.700  0.0746  0.3613 -1.2733
11427TIP3    H155772   2.318   4.514   3.662  0.1123 -0.1122 -2.4252
11427TIP3    H255773   2.262   4.375   3.640 -1.3749 -0.0155  0.3167
11428TIP3   OH255774   2.683   0.783   2.084  0.0718  0.1654  0.3849
11428TIP3    H155775   2.690   0.852   2.019 -1.1903  0.5177  0.5948
11428TIP3    H255776   2.711   0.704   2.039 -0.6773  0.4270 -0.5644
11429TIP3   OH255777   2.747   3.160  13.235 -0.1197 -0.3019  0.7640
11429TIP3    H155778   2.715   3.083  13.188 -0.9676  0.8165 -0.6069
11429TIP3    H255779   2.722   3.145  13.326 -0.5332 -1.4994  0.4757
11430TIP3   OH255780   1.363   1.929   3.081 -0.0385 -0.5608 -0.1313
11430TIP3    H155781   1.286   1.971   3.121 -0.2686 -0.6426 -0.4855
11430TIP3    H255782   1.431   1.936   3.148 -0.1214  0.2373 -0.1164
11431TIP3   OH255783   1.289   1.461   1.971 -0.5014  0.8143 -0.0864
11431TIP3    H155784   1.260   1.380   2.013  1.5545 -0.1374 -0.3569
11431TIP3    H255785   1.261   1.452   1.880 -1.1622  0.8998  0.1000
11432TIP3   OH255786   5.268   5.328   4.528  0.3396 -0.1099  0.4998
11432TIP3    H155787   5.320   5.260   4.486 -0.2747  1.0461 -2.3769
11432TIP3    H255788   5.203   5.280   4.580  1.6540 -1.6232  0.7928
11433TIP3   OH255789   3.024   5.679   4.064  0.0825  0.1294 -0.0858
11433TIP3    H155790   3.027   5.680   4.160  0.0901 -0.3831 -0.0788
11433TIP3    H255791   3.114   5.658   4.038 -0.0176 -0.1713 -0.1949
11434TIP3   OH255792   5.669   4.597   3.585  0.3729 -0.0548  0.0624
11434TIP3    H155793   5.575   4.604   3.566  0.4030  0.8742  0.2413
11434TIP3    H255794   5.709   4.579   3.500  0.1459  0.6616 -0.1986
11435TIP3   OH255795   1.560   0.543  13.406 -0.0401 -1.0110 -0.1076
11435TIP3    H155796   1.541   0.463  13.455  1.2459 -0.3432  1.5859
11435TIP3    H255797   1.591   0.605  13.473  0.2979  0.4626 -1.5737
11436TIP3   OH255798   2.979   4.768   1.818 -0.1128  0.0357 -0.9923
11436TIP3    H155799   2.962   4.702   1.885 -0.2912  0.1487 -0.9281
11436TIP3    H255800   2.919   4.840   1.838  0.3897  0.4073 -0.7981
11437TIP3   OH255801   1.165   4.223  11.427 -0.1117  0.1702 -0.2923
11437TIP3    H155802   1.218   4.158  11.474 -0.3384  0.3882  0.2645
11437TIP3    H255803   1.221   4.251  11.355 -0.1953 -1.0105 -0.8449
11438TIP3   OH255804   6.653   1.698  13.292  0.1699 -0.0870 -0.2735
11438TIP3    H155805   6.606   1.673  13.212  1.0233 -0.3691 -0.6976
11438TIP3    H255806   6.690   1.784  13.271  1.6208 -0.7949 -0.7391
11439TIP3   OH255807   3.990   5.414   2.256 -0.0012  0.2897  0.8685
11439TIP3    H155808   4.068   5.391   2.305  0.4705 -1.8621 -0.7229
11439TIP3    H255809   4.016   5.488   2.202  0.9321 -0.3297  0.4418
11440TIP3   OH255810   2.610   3.820   1.253 -0.3895  0.9503 -0.7551
11440TIP3    H155811   2.543   3.793   1.316  0.1443  2.1399  0.3672
11440TIP3    H255812   2.693   3.796   1.295 -0.0866 -0.3254 -2.0419
11441TIP3   OH255813   0.475   2.160  11.750 -0.1633 -0.1028  0.0943
11441TIP3    H155814   0.382   2.141  11.738 -0.0686 -1.0590  0.7603
11441TIP3    H255815   0.520   2.084  11.713  0.4156  0.9811 -1.4844
11442TIP3   OH255816   1.683   2.290  11.032 -0.5905  0.6273 -0.2258
11442TIP3    H155817   1.724   2.208  11.004  0.3047  0.4316  1.5797
11442TIP3    H255818   1.589   2.269  11.038 -0.2618 -0.5737  1.1628
11443TIP3   OH255819   2.422   5.990   3.349 -0.1718  0.1318 -0.4472
11443TIP3    H155820   2.427   6.079   3.383 -2.2135  0.8449 -1.8264
11443TIP3    H255821   2.506   5.975   3.307  0.3033  1.2992  0.0493
11444TIP3   OH255822   4.417   5.145  10.801  0.3563 -0.0278  0.5123
11444TIP3    H155823   4.473   5.068  10.793 -0.4903 -0.7499  1.3377
11444TIP3    H255824   4.415   5.164  10.895 -0.0459  0.5437  0.3961
11445TIP3   OH255825   0.508   1.686  14.601 -0.3534 -0.4675  0.4155
11445TIP3    H155826   0.439   1.690  14.535 -1.2834 -1.0923  1.3103
11445TIP3    H255827   0.498   1.767  14.652  0.2699 -0.0553 -0.0945
11446TIP3   OH255828   5.608   0.467  12.343 -0.1755  0.6220  0.1549
11446TIP3    H155829   5.613   0.476  12.438  0.2100  2.5069 -0.0185
11446TIP3    H255830   5.517   0.484  12.321  0.1058  2.0505  0.0343
11447TIP3   OH255831   0.852   3.953  13.266  0.3702  0.2000  0.4233
11447TIP3    H155832   0.860   3.963  13.171  1.3991 -0.6383  0.4069
11447TIP3    H255833   0.768   3.908  13.278  0.5930 -0.3818 -0.1500
11448TIP3   OH255834   1.532   1.848  16.468  0.0774 -0.3570 -0.2596
11448TIP3    H155835   1.531   1.780  16.535 -0.9759 -1.0922 -0.9906
11448TIP3    H255836   1.457   1.903  16.489  0.5430  0.2105 -0.0534
11449TIP3   OH255837   6.713   4.353   3.532 -0.3991  0.6940  0.2144
11449TIP3    H155838   6.774   4.308   3.474  0.2712  1.1813  0.5318
11449TIP3    H255839   6.723   4.310   3.617 -0.4618  0.8039  0.2791
11450TIP3   OH255840   1.609   4.947   1.710 -0.2413 -0.4682  0.6944
11450TIP3    H155841   1.607   5.008   1.637 -1.3145 -0.5014  0.6730
11450TIP3    H255842   1.531   4.968   1.761  1.1212  0.3810  2.5367
11451TIP3   OH255843   1.064   4.657   2.629 -0.2012  0.0388 -0.4033
11451TIP3    H155844   1.135   4.719   2.612 -0.3451 -0.1094 -1.6893
11451TIP3    H255845   1.104   4.571   2.616 -0.5491 -0.0519 -0.9003
11452TIP3   OH255846   3.374   6.126  14.588 -0.3531  0.9651 -0.2147
11452TIP3    H155847   3.429   6.065  14.539 -0.2936  0.5444  0.3643
11452TIP3    H255848   3.409   6.213  14.567 -0.3649  0.8007 -0.9574
11453TIP3   OH255849   0.777   6.242  14.602  0.1491  0.2876 -0.3794
11453TIP3    H155850   0.832   6.257  14.526 -0.1946 -0.9182 -0.8813
11453TIP3    H255851   0.694   6.211  14.567 -0.3273  0.5732  0.4459
11454TIP3   OH255852   4.274   1.469   2.613 -0.2767  0.3008 -0.1370
11454TIP3    H155853   4.340   1.438   2.675 -0.2198  0.0791 -0.3041
11454TIP3    H255854   4.326   1.505   2.540 -0.3349 -0.1968 -0.4299
11455TIP3   OH255855   3.486   1.145   5.339 -0.1412  0.1491 -0.1002
11455TIP3    H155856   3.560   1.190   5.380 -0.1624  0.1538 -0.0675
11455TIP3    H255857   3.518   1.055   5.325 -0.0507  0.2118 -0.2937
11456TIP3   OH255858   3.140   6.368   5.141 -0.3010 -0.7651 -0.6203
11456TIP3    H155859   3.196   6.312   5.195  0.0587  1.0565  1.0164
11456TIP3    H255860   3.055   6.366   5.184  0.3538  1.8205  0.9682
11457TIP3   OH255861   5.834   3.510  11.214 -0.1506 -0.4846 -0.1894
11457TIP3    H155862   5.741   3.513  11.235 -0.3441 -1.9302 -0.7640
11457TIP3    H255863   5.869   3.437  11.265  0.1332 -1.5823 -1.8768
11458TIP3   OH255864   0.799   3.882   5.716 -0.3106  0.0482  0.1542
11458TIP3    H155865   0.863   3.946   5.748 -2.0205  0.9168  2.0350
11458TIP3    H255866   0.765   3.921   5.635  1.0243 -0.1381 -0.5403
11459TIP3   OH255867   6.459   6.530   0.618 -0.2847  0.1711  0.0982
11459TIP3    H155868   6.437   6.440   0.591  0.0337  0.5899 -1.6667
11459TIP3    H255869   6.554   6.533   0.616 -0.2895  0.5101  0.3516
11460TIP3   OH255870   0.567   3.791  13.238 -0.0117  0.0525 -0.6102
11460TIP3    H155871   0.521   3.875  13.231 -0.6164 -0.2506 -0.2646
11460TIP3    H255872   0.551   3.762  13.327 -1.1353 -1.2055 -1.1945
11461TIP3   OH255873   1.590   2.162   4.010  0.6563  0.4654 -0.4359
11461TIP3    H155874   1.600   2.134   4.101  0.1752  1.7267  0.0233
11461TIP3    H255875   1.592   2.258   4.014 -2.9079  0.7042 -1.2711
11462TIP3   OH255876   6.153   6.296   0.433  0.6221  0.1182  0.0277
11462TIP3    H155877   6.184   6.385   0.448  1.1223  0.1277 -0.9380
11462TIP3    H255878   6.163   6.252   0.517  0.9944  0.7951  0.3455
11463TIP3   OH255879   1.246   6.622  12.523 -0.1966  0.2925 -0.0865
11463TIP3    H155880   1.288   6.596  12.605 -2.7531 -1.5155  0.7394
11463TIP3    H255881   1.205   6.706  12.543  1.5596  1.2885 -0.4414
11464TIP3   OH255882   5.612   5.980   4.065  0.2913  0.3492 -0.6011
11464TIP3    H155883   5.584   6.030   4.141  1.2368  1.5605 -1.0160
11464TIP3    H255884   5.698   6.015   4.043  0.6635 -0.9579 -1.3728
11465TIP3   OH255885   2.657   3.964  11.518  0.8469 -0.3844 -0.4647
11465TIP3    H155886   2.703   3.965  11.602 -0.2467 -1.5496  0.1997
11465TIP3    H255887   2.655   4.055  11.490 -0.2607  0.3174  1.6513
11466TIP3   OH255888   3.588   1.590  13.844  0.4906 -0.4166 -0.0188
11466TIP3    H155889   3.532   1.666  13.863  0.7042 -0.0996 -0.6211
11466TIP3    H255890   3.576   1.574  13.751  0.8385 -0.8112  0.0018
11467TIP3   OH255891   6.610   5.883  14.859 -0.4198 -0.5203  0.5656
11467TIP3    H155892   6.618   5.877  14.954  0.6257  0.4508  0.5675
11467TIP3    H255893   6.685   5.937  14.832 -1.1816 -0.0545 -0.7163
11468TIP3   OH255894   2.069   1.761   4.629  0.3874 -0.6998  0.7586
11468TIP3    H155895   2.112   1.839   4.593 -2.0119  1.0192  1.3504
11468TIP3    H255896   2.028   1.792   4.710 -1.3752 -2.3763  0.5627
11469TIP3   OH255897   3.888   6.783   0.580 -0.2151 -0.2707  0.6126
11469TIP3    H155898   3.939   6.767   0.659  1.3092 -0.9100 -0.4429
11469TIP3    H255899   3.953   6.782   0.509 -1.6508 -0.6824 -0.7559
11470TIP3   OH255900   1.280   5.068   0.013  0.3101  0.0357  0.2063
11470TIP3    H155901   1.312   5.138   0.070  0.5915  0.4840 -0.5005
11470TIP3    H255902   1.267   4.993   0.072  0.2417  0.6046  0.9187
11471TIP3   OH255903   3.582   0.925   1.137 -0.6917 -0.1022 -0.1030
11471TIP3    H155904   3.566   0.850   1.080 -0.7386 -2.5113  2.8290
11471TIP3    H255905   3.674   0.948   1.121 -0.7314 -0.6101 -1.1795
11472TIP3   OH255906   2.314   0.119   3.603 -0.3420  0.6188  0.1081
11472TIP3    H155907   2.346   0.208   3.587  2.8821 -0.5467 -0.7748
11472TIP3    H255908   2.344   0.068   3.528  4.1046 -2.5014  3.4001
11473TIP3   OH255909   5.150   3.828   3.326  0.0335  0.3561  0.1092
11473TIP3    H155910   5.220   3.771   3.358 -1.1682 -0.5622  1.1785
11473TIP3    H255911   5.153   3.904   3.384  0.3950  0.4958 -0.0927
11474TIP3   OH255912   5.164   4.567   2.669 -0.1310 -0.1963  0.5959
11474TIP3    H155913   5.224   4.573   2.743 -0.6937  0.4966  1.0160
11474TIP3    H255914   5.082   4.605   2.702 -0.2704  0.5054 -0.5000
11475TIP3   OH255915   5.639   0.636   5.380 -0.5041 -0.1673  0.3749
11475TIP3    H155916   5.557   0.589   5.366 -0.3680  0.3217 -2.8729
11475TIP3    H255917   5.694   0.611   5.306  1.9763  0.2382  1.9716
11476TIP3   OH255918   5.785   0.626  12.218  0.2352 -0.5381  0.3797
11476TIP3    H155919   5.776   0.720  12.231  0.2904 -0.7723  2.2681
11476TIP3    H255920   5.706   0.588  12.257  0.4732 -1.3304  0.1206
11477TIP3   OH255921   2.062   2.543   2.257  0.4580 -0.1664  0.4109
11477TIP3    H155922   2.000   2.546   2.184  0.8480  1.3003  0.0970
11477TIP3    H255923   2.103   2.630   2.256  2.2824 -0.9890  0.8058
11478TIP3   OH255924   6.334   6.291  14.726 -0.0466 -0.1106 -0.2929
11478TIP3    H155925   6.342   6.278  14.631  1.6883 -1.2882 -0.0308
11478TIP3    H255926   6.358   6.383  14.739  0.1974 -0.0770 -0.9397
11479TIP3   OH255927   5.955   1.865   1.683 -0.5237  0.4852 -0.0704
11479TIP3    H155928   5.862   1.877   1.663 -0.2181  0.5879 -1.4936
11479TIP3    H255929   5.981   1.788   1.631  0.5298  1.3472 -0.8656
11480TIP3   OH255930   5.018   3.906  16.384  0.1083 -0.4806  0.3349
11480TIP3    H155931   5.087   3.890  16.320  0.4583 -0.1509  0.6234
11480TIP3    H255932   5.050   3.865  16.464  0.5289  0.6990  0.7980
11481TIP3   OH255933   0.397   6.508   4.019  0.3983  0.3055  0.0678
11481TIP3    H155934   0.434   6.431   3.974 -1.8018 -0.3502 -0.7726
11481TIP3    H255935   0.354   6.472   4.097  0.4643  0.8476  0.3546
11482TIP3   OH255936   1.991   3.572  16.337 -0.8946  0.0233 -0.3390
11482TIP3    H155937   1.946   3.531  16.411 -2.4341 -0.2285 -1.3798
11482TIP3    H255938   2.061   3.624  16.378  0.6233 -2.8888  1.0873
11483TIP3   OH255939   4.384   4.547  12.869  0.9017 -0.1373 -0.8553
11483TIP3    H155940   4.306   4.595  12.895  1.2558  0.4368 -0.8224
11483TIP3    H255941   4.383   4.467  12.922 -0.0921 -0.5393 -1.4501
11484TIP3   OH255942   2.508   0.542   1.776 -0.1437 -0.6776  0.3166
11484TIP3    H155943   2.597   0.510   1.790  0.6357  0.8543 -0.7595
11484TIP3    H255944   2.500   0.549   1.681 -0.1786  2.2349  0.4317
11485TIP3   OH255945   3.900   5.694  12.469 -0.5029 -0.2544 -0.0569
11485TIP3    H155946   3.930   5.625  12.529 -1.1165  0.7536  1.4792
11485TIP3    H255947   3.975   5.753  12.461 -0.4161 -0.3958 -0.3251
11486TIP3   OH255948   3.362   2.326   4.922 -0.0594 -0.2083  0.3483
11486TIP3    H155949   3.399   2.407   4.958 -0.5555 -0.6262  1.8542
11486TIP3    H255950   3.380   2.259   4.987 -1.6559 -0.8382  0.2027
11487TIP3   OH255951   2.553   2.972  13.908  0.2915  0.5498 -0.0792
11487TIP3    H155952   2.537   3.061  13.878 -1.2831  0.3922  0.1752
11487TIP3    H255953   2.590   2.982  13.995 -0.3768  0.9709  0.1672
11488TIP3   OH255954   1.302   0.106   2.903 -0.0381 -0.2194 -0.9603
11488TIP3    H155955   1.268   0.062   2.981 -0.1713 -0.6330 -1.2513
11488TIP3    H255956   1.395   0.118   2.921 -0.2901  0.8280 -0.1989
11489TIP3   OH255957   1.257   1.143  13.734  0.0235  0.1274  0.6898
11489TIP3    H155958   1.254   1.138  13.829  0.4820  1.7766  0.8227
11489TIP3    H255959   1.204   1.220  13.712  1.2509  0.7561 -0.2441
11490TIP3   OH255960   4.956   1.082   4.827  0.3746 -0.0503  0.6610
11490TIP3    H155961   4.882   1.102   4.884 -0.3463  0.7226 -0.5005
11490TIP3    H255962   4.923   1.099   4.738  0.9369 -2.7955 -0.1595
11491TIP3   OH255963   3.180   4.547   5.651  0.2707  0.3094 -0.3536
11491TIP3    H155964   3.169   4.453   5.667  1.3678 -0.0325 -1.4486
11491TIP3    H255965   3.090   4.579   5.640 -0.2407 -0.2439  1.7326
11492TIP3   OH255966   5.098   1.980  11.158 -0.4844  0.1190  0.0933
11492TIP3    H155967   5.116   1.913  11.092 -1.0577 -0.2542  0.3041
11492TIP3    H255968   5.089   1.930  11.240  1.4745  0.6821  0.7063
11493TIP3   OH255969   3.279   2.170   4.273  0.7410 -0.2308 -0.6404
11493TIP3    H155970   3.238   2.256   4.262  0.6237 -0.3151 -0.8697
11493TIP3    H255971   3.205   2.110   4.288  0.8714 -0.1603  0.3920
11494TIP3   OH255972   5.779   3.521   0.425  0.1924 -0.0479 -0.0065
11494TIP3    H155973   5.702   3.475   0.392 -1.3010  2.7978 -0.7404
11494TIP3    H255974   5.782   3.499   0.518 -0.9546 -0.8894 -0.1465
11495TIP3   OH255975   1.412   0.274   3.870 -0.3168 -0.5702 -0.4585
11495TIP3    H155976   1.431   0.353   3.819 -0.1449  0.3050  0.9131
11495TIP3    H255977   1.497   0.250   3.908 -0.3268 -1.5566 -1.0428
11496TIP3   OH255978   0.695   4.123   6.113 -0.4634 -0.3846  0.2037
11496TIP3    H155979   0.651   4.103   6.197 -0.1877 -1.7707  0.0468
11496TIP3    H255980   0.756   4.050   6.100 -0.1419  0.0713 -0.9673
11497TIP3   OH255981   3.015   1.586   1.602 -0.7127 -0.0902  0.2110
11497TIP3    H155982   2.941   1.594   1.662 -0.9255  0.8427 -0.1471
11497TIP3    H255983   3.040   1.494   1.606 -3.0071 -0.8525 -0.9732
11498TIP3   OH255984   1.848   1.273  16.451  0.1449  0.1311 -0.2477
11498TIP3    H155985   1.785   1.229  16.395 -1.5523  0.9452  0.9372
11498TIP3    H255986   1.920   1.297  16.393  1.0024 -3.7330 -1.0422
11499TIP3   OH255987   1.552   3.444  13.583  0.3672  0.5077  0.5753
11499TIP3    H155988   1.555   3.404  13.495  2.4072  0.8916  0.4210
11499TIP3    H255989   1.459   3.450  13.603 -0.1428  0.0803 -1.4211
11500TIP3   OH255990   5.041   6.325   0.988 -0.2018  0.2170 -0.3645
11500TIP3    H155991   4.957   6.282   0.971  0.4016 -0.5493 -1.5661
11500TIP3    H255992   5.074   6.282   1.066 -0.7498  0.2769 -0.0889
11501TIP3   OH255993   4.337   5.535   2.390  0.0693 -0.1954  0.0768
11501TIP3    H155994   4.407   5.596   2.366  2.0228 -1.5006  2.0335
11501TIP3    H255995   4.261   5.591   2.406  0.5912  1.2753 -2.1417
11502TIP3   OH255996   5.283   6.181  11.900 -0.1718  0.0995  0.0917
11502TIP3    H155997   5.351   6.221  11.954 -0.9615  1.6540 -0.0161
11502TIP3    H255998   5.301   6.211  11.811 -1.3887  1.1678  0.1666
11503TIP3   OH255999   6.603   1.608   1.515 -0.1638 -0.5612  0.1744
11503TIP3    H156000   6.672   1.570   1.571 -0.1059 -0.2719  0.3032
11503TIP3    H256001   6.647   1.627   1.433  0.1536  0.5042  0.5735
11504TIP3   OH256002   0.350   6.130   0.622 -0.1159  0.6705  0.4812
11504TIP3    H156003   0.306   6.052   0.655 -0.4016  0.6255 -0.0007
11504TIP3    H256004   0.444   6.108   0.626 -0.1197  0.7694  1.5084
11505TIP3   OH256005   0.463   5.014   2.027  0.3644 -0.1573  0.3754
11505TIP3    H156006   0.449   4.968   2.110  1.0758  0.5899  0.9198
11505TIP3    H256007   0.554   4.997   2.004 -0.1085 -1.2782 -0.8522
11506TIP3   OH256008   2.554   1.514   3.958  0.4640  0.2978 -0.0118
11506TIP3    H156009   2.500   1.588   3.930  0.6700 -0.0101 -1.2633
11506TIP3    H256010   2.577   1.468   3.877  0.6736 -0.9125  0.7047
11507TIP3   OH256011   1.050   0.804   3.763  0.4616  0.0319 -0.1271
11507TIP3    H156012   1.022   0.868   3.829  1.8839  1.1659 -0.5826
11507TIP3    H256013   1.031   0.846   3.679 -3.2594 -2.1841 -0.6633
11508TIP3   OH256014   0.610   2.665  15.668 -0.3585 -0.4856  0.2451
11508TIP3    H156015   0.664   2.635  15.595 -2.0965 -0.3965 -1.1580
11508TIP3    H256016   0.653   2.745  15.698  0.7970 -0.9235 -0.1775
11509TIP3   OH256017   0.300   0.178   2.542 -0.7833 -0.6978  0.1009
11509TIP3    H156018   0.252   0.132   2.472  0.7459  0.4770 -1.8282
11509TIP3    H256019   0.243   0.251   2.566 -1.4458 -1.2679  0.3135
11510TIP3   OH256020   3.491   0.954   3.251 -0.2837  0.4139  0.2311
11510TIP3    H156021   3.416   0.919   3.297 -0.5863  1.9556  0.9699
11510TIP3    H256022   3.536   0.877   3.215 -0.3779 -0.8063  2.5348
11511TIP3   OH256023   0.392   1.515   2.825 -0.4192 -1.0372  0.3195
11511TIP3    H156024   0.441   1.476   2.752 -1.0653  0.1886 -0.8155
11511TIP3    H256025   0.332   1.577   2.783  0.4555  1.0894  2.0066
11512TIP3   OH256026   1.995   4.146   0.212 -0.0896  0.5517  0.2587
11512TIP3    H156027   1.906   4.119   0.238 -0.4750  0.5348 -1.0304
11512TIP3    H256028   2.048   4.129   0.290 -0.8000 -1.5303  0.3510
11513TIP3   OH256029   3.800   1.813   3.245  0.3579 -0.1489  0.2553
11513TIP3    H156030   3.780   1.821   3.152 -0.0422  1.6018  0.4685
11513TIP3    H256031   3.896   1.810   3.249  0.4583  1.7463 -0.1119
11514TIP3   OH256032   3.524   0.167   3.201 -0.0813 -0.6575  0.5752
11514TIP3    H156033   3.442   0.196   3.161  2.0008  1.7720 -2.3266
11514TIP3    H256034   3.542   0.231   3.270 -0.3007 -0.8735  0.8386
11515TIP3   OH256035   2.873   2.604   1.644 -0.0379  0.0282  0.3317
11515TIP3    H156036   2.845   2.557   1.566  0.3824  0.4348 -0.0712
11515TIP3    H256037   2.890   2.535   1.709 -1.6141 -0.2380  0.4883
11516TIP3   OH256038   4.076   2.602  12.576 -0.1025  0.1733  0.3342
11516TIP3    H156039   4.106   2.513  12.554  1.8525  0.6033  0.9959
11516TIP3    H256040   4.088   2.608  12.671 -2.0038  0.5646  0.5890
11517TIP3   OH256041   4.684   4.304   1.775  0.2488  0.0138  0.1883
11517TIP3    H156042   4.661   4.340   1.860  1.7758  0.2395  0.5378
11517TIP3    H256043   4.625   4.229   1.763 -0.8464  0.7507  0.8451
11518TIP3   OH256044   0.741   3.347  13.930  0.4170 -0.3868 -0.2593
11518TIP3    H156045   0.651   3.376  13.910  0.8489  3.2516  2.0330
11518TIP3    H256046   0.791   3.371  13.852 -0.1250  0.5944 -0.3289
11519TIP3   OH256047   0.750   0.987  11.234 -0.3495  0.4436  0.1241
11519TIP3    H156048   0.836   1.007  11.198  0.3796 -0.2896  1.3825
11519TIP3    H256049   0.727   1.065  11.285  0.4612 -0.0971  1.3571
11520TIP3   OH256050   1.899   0.707   2.674  0.1449 -0.3973 -0.2815
11520TIP3    H156051   1.865   0.631   2.720  1.7295  0.2784  2.1508
11520TIP3    H256052   1.921   0.770   2.743  1.9959  0.9653 -1.9895
11521TIP3   OH256053   5.614   2.961  11.228  0.2664  0.0083 -0.1882
11521TIP3    H156054   5.642   2.939  11.317 -2.2760  0.3719  0.8132
11521TIP3    H256055   5.540   3.021  11.241  0.8229  1.3447 -2.6217
11522TIP3   OH256056   1.324   5.761   3.213  0.3531 -0.1323 -0.5229
11522TIP3    H156057   1.233   5.774   3.240  0.5632 -1.6934  1.1106
11522TIP3    H256058   1.376   5.790   3.288  1.1453 -0.6476 -0.8528
11523TIP3   OH256059   0.559   2.991   4.792 -0.0443 -0.7075 -0.5638
11523TIP3    H156060   0.503   3.067   4.804 -0.2748 -0.7303 -1.4414
11523TIP3    H256061   0.517   2.940   4.723  0.1843 -1.5588 -0.0906
11524TIP3   OH256062   3.024   0.025   4.443  0.0435 -0.2440 -0.2771
11524TIP3    H156063   3.035  -0.061   4.484  0.3563 -0.8928 -1.6780
11524TIP3    H256064   2.929   0.037   4.438 -0.0116 -0.8517 -0.7580
11525TIP3   OH256065   3.650   5.031   5.627 -0.2435  0.3247 -0.6428
11525TIP3    H156066   3.702   5.091   5.680  2.2576 -1.1798 -1.2282
11525TIP3    H256067   3.628   4.959   5.687 -0.7755  0.4498 -0.6775
11526TIP3   OH256068   5.319   1.929  13.871 -0.3659 -0.1531  0.1270
11526TIP3    H156069   5.323   1.893  13.783 -1.4034  0.1335 -0.0454
11526TIP3    H256070   5.227   1.922  13.896 -0.5855  2.0892  0.1947
11527TIP3   OH256071   4.423   1.582  15.426  0.3477 -0.1281 -0.4098
11527TIP3    H156072   4.496   1.539  15.381  0.1513 -0.1590 -0.7003
11527TIP3    H256073   4.349   1.573  15.366  0.3546  0.8042 -0.5668
11528TIP3   OH256074   6.807   3.886   2.294  0.2714 -0.4092  0.4850
11528TIP3    H156075   6.822   3.965   2.243 -1.8772  0.1686  0.6247
11528TIP3    H256076   6.863   3.896   2.371  1.0281  0.3196 -0.1472
11529TIP3   OH256077   6.500   3.739   4.479 -0.2673 -0.6634  0.0994
11529TIP3    H156078   6.502   3.831   4.507  0.7937 -0.6085 -0.1157
11529TIP3    H256079   6.430   3.736   4.414 -3.8670 -1.0963  3.6289
11530TIP3   OH256080   4.730   5.884   1.118  0.5339 -0.2057  0.1460
11530TIP3    H156081   4.663   5.817   1.126 -1.8671  1.6830 -2.4210
11530TIP3    H256082   4.758   5.880   1.027  1.8528  0.9295  0.4619
11531TIP3   OH256083   3.990   5.752  16.273 -0.4405  0.3533 -0.3694
11531TIP3    H156084   3.903   5.713  16.264  0.1207 -0.6704 -1.5915
11531TIP3    H256085   3.982   5.838  16.233 -0.5053 -0.3613 -1.9599
11532TIP3   OH256086   6.844   3.507   1.557 -0.1123 -0.1484 -0.5770
11532TIP3    H156087   6.838   3.566   1.632 -0.9362  0.3575 -1.0304
11532TIP3    H256088   6.863   3.421   1.596  3.0706  0.6825 -0.0179
11533TIP3   OH256089   6.636   5.726  16.351  0.1966  0.1745  0.3567
11533TIP3    H156090   6.565   5.666  16.375 -0.3395 -0.1918 -1.8379
11533TIP3    H256091   6.591   5.805  16.321  0.6609 -0.0358 -0.9908
11534TIP3   OH256092   1.434   1.586   5.435  0.1686  0.3327 -0.0107
11534TIP3    H156093   1.439   1.655   5.501  0.4279  0.3588 -0.0556
11534TIP3    H256094   1.395   1.629   5.359  0.6400  0.5273 -0.1532
11535TIP3   OH256095   1.586   5.818   4.280 -0.6032 -0.0581  0.1980
11535TIP3    H156096   1.609   5.902   4.319 -0.5834  1.1788 -2.2508
11535TIP3    H256097   1.490   5.817   4.279 -0.6077 -0.2963  0.6597
11536TIP3   OH256098   4.178   4.069  10.845  0.1396  0.3627 -0.4532
11536TIP3    H156099   4.183   4.076  10.941  0.8380 -0.9248 -0.3761
11536TIP3    H256100   4.265   4.039  10.819 -0.5019 -0.7779 -1.3588
11537TIP3   OH256101   1.036   0.284  16.268 -0.4030 -0.4381 -0.3670
11537TIP3    H156102   1.023   0.235  16.186 -0.8873  0.0255 -0.5731
11537TIP3    H256103   1.019   0.375  16.244 -3.4719 -0.5676  0.8439
11538TIP3   OH256104   4.131   3.568  10.521  0.3978  0.5349  0.3481
11538TIP3    H156105   4.142   3.613  10.437  1.4945 -0.7123 -0.2285
11538TIP3    H256106   4.218   3.573  10.562  0.1773  0.1382  0.8774
11539TIP3   OH256107   6.309   2.761  12.156  0.4490  0.4924 -0.3843
11539TIP3    H156108   6.291   2.667  12.158  0.6256  0.4736  0.3400
11539TIP3    H256109   6.381   2.770  12.093  0.0219  0.2194 -0.9265
11540TIP3   OH256110   5.495   5.063   4.660  0.3797 -0.3614  0.2322
11540TIP3    H156111   5.491   4.975   4.696  2.1279 -1.0840 -1.1397
11540TIP3    H256112   5.566   5.106   4.708  0.9586 -0.4424 -0.5359
11541TIP3   OH256113   5.895   1.050   1.224  0.0358 -0.5009  0.4749
11541TIP3    H156114   5.804   1.024   1.239 -0.0323 -1.0779 -0.7899
11541TIP3    H256115   5.946   0.996   1.285 -0.3817 -1.1460  0.2639
11542TIP3   OH256116   1.814   2.813   4.457 -0.2028  0.0075 -0.1422
11542TIP3    H156117   1.780   2.748   4.518 -0.4373  1.7060  1.6307
11542TIP3    H256118   1.894   2.845   4.497  0.1191  0.5543 -1.1761
11543TIP3   OH256119   6.550   2.512   5.316 -0.1227  0.0809  0.3437
11543TIP3    H156120   6.507   2.557   5.388  1.8355  2.0157  0.4058
11543TIP3    H256121   6.561   2.579   5.249  1.3935 -0.7213 -0.2556
11544TIP3   OH256122   6.088   3.741  12.331  0.5139  0.2120  0.1761
11544TIP3    H156123   5.994   3.726  12.345  0.3931  0.7594 -0.0212
11544TIP3    H256124   6.127   3.654  12.333 -0.1639 -0.1304 -0.9176
11545TIP3   OH256125   5.180   4.807  14.690 -0.4658 -1.0799 -0.5424
11545TIP3    H156126   5.104   4.822  14.634 -0.6921 -1.1545 -0.2597
11545TIP3    H256127   5.167   4.719  14.725 -1.5762 -0.1758  1.5077
11546TIP3   OH256128   4.911   5.631   0.074 -0.2016 -0.1212 -0.0653
11546TIP3    H156129   4.986   5.673   0.115  0.7136 -1.3625 -0.4373
11546TIP3    H256130   4.854   5.606   0.147  0.3183 -0.2666  0.2911
11547TIP3   OH256131   4.315   4.258  12.062 -0.4960  0.0468  0.4749
11547TIP3    H156132   4.345   4.170  12.038  0.4894  1.2930 -3.4524
11547TIP3    H256133   4.219   4.252  12.060 -0.4426 -0.7139 -0.8724
11548TIP3   OH256134   0.956   0.406   0.812 -0.5265 -0.6189 -0.3374
11548TIP3    H156135   0.947   0.420   0.906 -0.1768  0.3438 -0.4352
11548TIP3    H256136   0.890   0.340   0.790 -0.5361 -0.9216  0.5958
11549TIP3   OH256137   1.278   4.824   2.621  0.7693  0.0835 -0.3253
11549TIP3    H156138   1.241   4.912   2.623 -0.2466 -0.3249 -0.4010
11549TIP3    H256139   1.366   4.834   2.657  0.0505  0.8621  1.3656
11550TIP3   OH256140   0.073   6.062  12.567  0.3018 -0.1631  0.2589
11550TIP3    H156141   0.050   5.973  12.542 -0.1080 -0.0243  0.1369
11550TIP3    H256142  -0.010   6.104  12.588  0.4128  0.4132 -0.4103
11551TIP3   OH256143   5.233   0.570   2.439  0.5487 -0.2421 -0.3316
11551TIP3    H156144   5.239   0.491   2.492  0.5417  0.5558  0.8918
11551TIP3    H256145   5.190   0.542   2.359 -1.4681 -1.0505  0.9700
11552TIP3   OH256146   6.009   4.932   0.106  0.2341 -0.1017  0.6767
11552TIP3    H156147   5.924   4.934   0.149  0.1329 -0.9347  0.5390
11552TIP3    H256148   6.072   4.955   0.175 -0.1370  1.0983  0.6387
11553TIP3   OH256149   4.963   3.759  12.026 -0.6155  0.1297 -0.3870
11553TIP3    H156150   5.011   3.776  11.945  2.4523 -1.1968  0.9913
11553TIP3    H256151   4.935   3.846  12.055  0.3316  0.9001 -1.6428
11554TIP3   OH256152   4.243   6.847   1.464 -0.5391  0.6596 -0.3081
11554TIP3    H156153   4.310   6.912   1.484  0.1627 -0.3539  0.8371
11554TIP3    H256154   4.254   6.780   1.532 -1.0457 -0.7881 -1.5851
11555TIP3   OH256155   6.057   3.393   4.880  0.1961 -0.4701 -0.5467
11555TIP3    H156156   6.063   3.481   4.844 -2.6528 -0.3101 -0.8892
11555TIP3    H256157   6.013   3.404   4.964 -0.1301 -1.5292 -0.5629
11556TIP3   OH256158   0.711   6.729   5.176  0.3877  0.4270  0.5077
11556TIP3    H156159   0.683   6.653   5.125 -0.3732  1.3333 -0.4761
11556TIP3    H256160   0.792   6.758   5.134  1.0592 -0.2492  1.3202
11557TIP3   OH256161   0.782   2.792   5.248 -0.1937 -0.6349  0.3228
11557TIP3    H156162   0.789   2.878   5.206  0.0496  0.6124  2.7535
11557TIP3    H256163   0.756   2.733   5.177 -3.3711  1.9509 -0.9175
11558TIP3   OH256164   4.483   1.155  17.057 -0.5725  0.6524 -0.3493
11558TIP3    H156165   4.442   1.205  17.128  0.0644 -0.9635  1.2436
11558TIP3    H256166   4.517   1.222  16.997 -0.7089  2.1060  1.1054
11559TIP3   OH256167   2.040   1.974   5.377  0.2633  0.7954  0.4834
11559TIP3    H156168   2.005   2.056   5.342 -0.2389 -0.0723 -1.1650
11559TIP3    H256169   2.104   1.945   5.312 -0.2853 -0.5977  0.5133
11560TIP3   OH256170   0.366   3.419   6.255 -0.9648  0.0175 -0.3906
11560TIP3    H156171   0.455   3.415   6.220  0.2174 -1.3421  2.4429
11560TIP3    H256172   0.365   3.500   6.307 -0.6276 -1.0213  1.2902
11561TIP3   OH256173   6.488   6.296  11.114  0.4575  0.2280  0.2504
11561TIP3    H156174   6.577   6.321  11.088 -0.2245  0.9548 -1.5247
11561TIP3    H256175   6.437   6.300  11.033 -1.9254  3.0063  1.7281
11562TIP3   OH256176   5.169   4.835  13.137  0.1219  0.7729 -0.2668
11562TIP3    H156177   5.259   4.819  13.108 -0.0791 -0.3348 -0.3405
11562TIP3    H256178   5.155   4.929  13.122  0.2328  0.4228 -3.2299
11563TIP3   OH256179   2.406   1.384   5.229  0.1846  0.0714 -0.0321
11563TIP3    H156180   2.454   1.316   5.183 -0.6009  0.0963 -0.9122
11563TIP3    H256181   2.344   1.418   5.164 -0.0584  0.9990  0.6597
11564TIP3   OH256182   6.700   2.446  10.118 -0.0906  0.4143  0.3210
11564TIP3    H156183   6.674   2.519  10.175 -0.0922  0.6567  0.0086
11564TIP3    H256184   6.643   2.374  10.145  0.5001  0.2685  1.2294
11565TIP3   OH256185   4.919   6.132  11.832  0.8015  0.4652  0.2843
11565TIP3    H156186   4.916   6.152  11.925  1.6856 -0.8193  0.6185
11565TIP3    H256187   4.954   6.043  11.828  0.0249  0.1932 -1.2379
11566TIP3   OH256188   1.810   0.462   0.735 -0.4536 -0.3581 -0.7615
11566TIP3    H156189   1.821   0.525   0.806 -2.8489 -1.4588  0.7466
11566TIP3    H256190   1.801   0.378   0.779 -1.0920 -1.2213 -2.4328
11567TIP3   OH256191   5.365   4.763   1.776  0.0618 -0.1676 -0.1906
11567TIP3    H156192   5.335   4.675   1.751 -0.4248 -0.2682  0.7005
11567TIP3    H256193   5.437   4.748   1.836 -0.0416  0.0423 -0.0118
11568TIP3   OH256194   3.651   5.154  17.078  0.4598 -0.2165 -0.3888
11568TIP3    H156195   3.588   5.176  17.010  0.2944 -1.7994 -0.7670
11568TIP3    H256196   3.734   5.141  17.031  0.9180  1.0591  0.0151
11569TIP3   OH256197   0.690   3.691   3.759  0.1111 -0.1729  0.4495
11569TIP3    H156198   0.731   3.605   3.752  2.8021  1.0881 -1.0461
11569TIP3    H256199   0.720   3.725   3.843 -0.1251 -0.3017  0.5864
11570TIP3   OH256200   4.968   2.044  15.150 -1.0256  0.0716 -0.0897
11570TIP3    H156201   4.989   1.955  15.179  0.9474  0.6199  0.3606
11570TIP3    H256202   4.983   2.098  15.228 -2.1122  0.8190 -0.3815
11571TIP3   OH256203   1.229   5.467   2.357  0.2774  0.2248 -0.8435
11571TIP3    H156204   1.216   5.428   2.444 -0.2020 -1.0854 -1.4674
11571TIP3    H256205   1.176   5.546   2.358 -1.3046 -0.7915 -0.5827
11572TIP3   OH256206   3.154   2.974   3.019  0.0267 -0.1523  0.6087
11572TIP3    H156207   3.197   2.895   2.988 -0.1319 -0.4129  1.0449
11572TIP3    H256208   3.217   3.014   3.079  0.5715  0.6590 -0.4713
11573TIP3   OH256209   6.016   1.071   3.604 -0.2153  0.0591  0.2843
11573TIP3    H156210   5.930   1.065   3.644 -0.9501  0.6879 -1.1282
11573TIP3    H256211   6.008   1.023   3.521  1.3788 -1.5911  0.9998
11574TIP3   OH256212   3.109   0.401  13.517 -1.0711 -0.1054  0.4227
11574TIP3    H156213   3.044   0.384  13.449 -1.8263  0.7597  0.9114
11574TIP3    H256214   3.058   0.409  13.597 -0.2316 -0.6609  1.0341
11575TIP3   OH256215   0.564   6.841  15.435  0.0689  0.4957 -0.2802
11575TIP3    H156216   0.485   6.841  15.489 -0.2902 -1.9902 -0.6603
11575TIP3    H256217   0.635   6.857  15.497 -0.4146 -1.4468  0.8762
11576TIP3   OH256218   6.325   4.203  13.767 -0.1937 -0.2519  0.3473
11576TIP3    H156219   6.322   4.111  13.792  0.1396 -0.2224  0.5027
11576TIP3    H256220   6.263   4.210  13.694 -0.0706 -0.6373  0.2032
11577TIP3   OH256221   0.201   0.174   1.864  0.4476 -0.3507  0.4941
11577TIP3    H156222   0.183   0.098   1.918  0.8124 -0.6136  0.2563
11577TIP3    H256223   0.119   0.192   1.819 -0.0486  0.2982  1.6525
11578TIP3   OH256224   6.332   3.047   3.027 -0.1850  0.5533 -0.1378
11578TIP3    H156225   6.313   3.069   2.936 -0.7164 -1.3526 -0.5265
11578TIP3    H256226   6.252   3.008   3.060  0.8030 -1.2251  0.3056
11579TIP3   OH256227   2.632   2.198   4.660  0.1872 -0.0284  0.1430
11579TIP3    H156228   2.670   2.151   4.734  1.0023  1.4709  0.7059
11579TIP3    H256229   2.680   2.281   4.657  0.4704 -0.2135 -2.3312
11580TIP3   OH256230   4.051   5.815  15.569 -0.1522  0.7985 -0.1749
11580TIP3    H156231   4.066   5.892  15.513  0.6310 -0.7004 -2.1427
11580TIP3    H256232   4.125   5.816  15.630 -0.5093  1.9457  0.2665
11581TIP3   OH256233   3.390   6.525  12.192  0.3648  0.1743 -0.3707
11581TIP3    H156234   3.356   6.602  12.237  2.0332  0.8743 -0.2032
11581TIP3    H256235   3.316   6.491  12.142 -0.6823  1.2654  0.3831
11582TIP3   OH256236   0.137   0.829   3.159  0.5297 -0.5964 -0.4748
11582TIP3    H156237   0.119   0.866   3.073 -0.2363 -0.5458 -0.2992
11582TIP3    H256238   0.086   0.748   3.161 -0.0870 -0.2012  0.2229
11583TIP3   OH256239   5.511   5.657   1.926 -0.4096  0.1630  0.1161
11583TIP3    H156240   5.464   5.649   2.009 -1.4009 -1.4622 -0.5535
11583TIP3    H256241   5.591   5.705   1.948 -0.4803 -0.5500  2.0731
11584TIP3   OH256242   0.450   2.366  14.687  0.3618  0.5853 -0.2941
11584TIP3    H156243   0.534   2.363  14.732  0.3495 -0.0035 -0.3078
11584TIP3    H256244   0.398   2.428  14.738  0.0969 -0.6168  0.9582
11585TIP3   OH256245   1.383   2.847   1.530 -0.0809 -0.0670 -0.0340
11585TIP3    H156246   1.375   2.801   1.613  0.8571  1.6520  1.0674
11585TIP3    H256247   1.337   2.792   1.467 -1.2906 -1.1492  1.7231
11586TIP3   OH256248   2.063   3.936  15.866  0.0709 -0.1500  0.0707
11586TIP3    H156249   2.084   3.876  15.795 -1.5043 -0.1754 -0.3878
11586TIP3    H256250   2.117   3.906  15.939  3.2080  1.0337 -1.5603
11587TIP3   OH256251   2.949   4.748  17.021  0.1593 -0.1644 -0.1869
11587TIP3    H156252   2.976   4.667  16.978 -1.0931 -1.6023  1.5503
11587TIP3    H256253   2.874   4.779  16.970  1.1200  0.3443 -1.3100
11588TIP3   OH256254   2.340   6.436   1.065  0.7245  0.2660 -0.3762
11588TIP3    H156255   2.267   6.442   1.127  1.0374 -1.8793  0.2664
11588TIP3    H256256   2.406   6.496   1.100  1.7035 -2.3047  2.6333
11589TIP3   OH256257   2.506   2.595   0.058  0.4447 -0.2788 -0.0830
11589TIP3    H156258   2.424   2.644   0.060  0.5527 -0.0489 -1.0297
11589TIP3    H256259   2.544   2.614  -0.028  0.6250 -1.7906 -0.3775
11590TIP3   OH256260   1.189   5.432   0.821  0.3434  0.5718 -0.0756
11590TIP3    H156261   1.156   5.359   0.769 -0.1361  0.3452  0.5227
11590TIP3    H256262   1.282   5.437   0.801  0.2681  0.1448 -0.5360
11591TIP3   OH256263   5.644   1.387   0.261 -0.1140  0.4510  0.1421
11591TIP3    H156264   5.603   1.302   0.271  0.2357  0.2121 -0.4056
11591TIP3    H256265   5.578   1.442   0.220  0.2878 -0.0973 -1.3021
11592TIP3   OH256266   5.396   5.318  16.491  0.2672  0.0522  0.0566
11592TIP3    H156267   5.457   5.384  16.527  1.5561 -0.0863 -1.7274
11592TIP3    H256268   5.320   5.369  16.464  0.8186  0.6935 -0.3485
11593TIP3   OH256269   1.710   6.536  11.934 -0.6086 -0.2143  0.0863
11593TIP3    H156270   1.647   6.489  11.880 -3.0061  1.4781  1.2150
11593TIP3    H256271   1.712   6.488  12.017  1.1102 -1.3343 -0.5447
11594TIP3   OH256272   4.777   0.682   3.526 -0.5291 -0.1907 -0.1971
11594TIP3    H156273   4.843   0.706   3.591  0.8744 -1.6161 -1.0264
11594TIP3    H256274   4.800   0.732   3.448 -1.7322  0.9124  0.1258
11595TIP3   OH256275   2.474   0.106   2.393  0.8961 -0.5894 -0.4202
11595TIP3    H156276   2.539   0.094   2.463  1.1768  1.0408 -0.3538
11595TIP3    H256277   2.469   0.201   2.382 -3.1647 -0.4447  1.1864
11596TIP3   OH256278   4.907   5.337   3.357 -0.4993 -0.4029  0.0508
11596TIP3    H156279   4.985   5.374   3.399  0.0895 -0.2584 -1.1149
11596TIP3    H256280   4.858   5.413   3.326  0.0109 -0.5302 -1.1258
11597TIP3   OH256281   0.191   1.238   2.301  0.3263 -0.2419 -0.4331
11597TIP3    H156282   0.264   1.271   2.248 -0.4628 -0.7597 -1.9148
11597TIP3    H256283   0.115   1.242   2.242 -0.7112 -0.3283  0.8565
11598TIP3   OH256284   0.351   4.102   1.896  0.0404  0.0075  0.2592
11598TIP3    H156285   0.337   4.171   1.832  0.8734  0.2287  0.2960
11598TIP3    H256286   0.330   4.143   1.980 -0.3575 -0.0647  0.1954
11599TIP3   OH256287   5.002   0.728   3.755 -0.3779 -0.5426 -0.3077
11599TIP3    H156288   4.972   0.722   3.846  0.1178 -1.9037 -0.2024
11599TIP3    H256289   5.024   0.820   3.743 -2.4375  0.0922  0.2799
11600TIP3   OH256290   6.416   3.674   0.456  1.1163 -0.4483  0.3107
11600TIP3    H156291   6.431   3.699   0.365 -1.3906  2.5425  0.5510
11600TIP3    H256292   6.500   3.689   0.499  2.1120 -1.1147 -1.3066
11601TIP3   OH256293   3.750   2.746  16.303 -0.6022  0.2311  0.2333
11601TIP3    H156294   3.812   2.817  16.283 -1.2293  0.7399  0.0556
11601TIP3    H256295   3.804   2.679  16.345  0.3286  0.1136 -1.0678
11602TIP3   OH256296   4.538   5.163   3.322 -0.5833 -0.2453  0.3526
11602TIP3    H156297   4.502   5.096   3.380 -0.5508 -0.9724 -0.4513
11602TIP3    H256298   4.629   5.137   3.309 -0.7201 -0.3549 -0.4028
11603TIP3   OH256299   4.436   4.666   1.152  0.3001 -0.1221  0.2587
11603TIP3    H156300   4.525   4.629   1.150 -0.8344 -3.1683  1.0321
11603TIP3    H256301   4.411   4.672   1.060  0.5491 -1.3220  0.0955
11604TIP3   OH256302   0.759   0.952   1.859  0.6582 -0.2961 -0.3647
11604TIP3    H156303   0.669   0.932   1.884  1.1147 -2.1107 -0.0256
11604TIP3    H256304   0.813   0.900   1.919  1.8604 -1.5541 -2.4017
11605TIP3   OH256305   4.358   2.186   4.159 -0.3558  0.9908  0.6071
11605TIP3    H156306   4.263   2.190   4.152 -0.5119  0.2351  2.0180
11605TIP3    H256307   4.379   2.232   4.240  0.3975  0.4479  0.7421
11606TIP3   OH256308   0.166   2.353  17.022  0.3117  0.4527 -0.4545
11606TIP3    H156309   0.235   2.304  17.067  1.0826  1.9588  0.0897
11606TIP3    H256310   0.144   2.299  16.946  0.1379 -1.3613  0.8184
11607TIP3   OH256311   0.212   0.157  11.991  0.1323 -0.3673 -0.2177
11607TIP3    H156312   0.122   0.154  12.023 -0.2329  1.2517 -0.9892
11607TIP3    H256313   0.204   0.174  11.898  1.2437  0.2899 -0.2107
11608TIP3   OH256314   5.422   6.551  14.742  0.8779 -0.0075  0.4120
11608TIP3    H156315   5.384   6.631  14.779  0.7479 -0.8740  2.2213
11608TIP3    H256316   5.505   6.580  14.703  1.0039  0.9455  1.3502
11609TIP3   OH256317   1.532   6.709  15.749  0.4885 -0.2663 -0.0579
11609TIP3    H156318   1.580   6.693  15.668  1.7657  0.1649  0.5847
11609TIP3    H256319   1.566   6.793  15.781 -0.3818 -0.1606  0.6557
11610TIP3   OH256320   1.680   5.204   2.856  0.1933  0.1474 -0.7257
11610TIP3    H156321   1.757   5.149   2.866  0.2988  0.2242 -1.1164
11610TIP3    H256322   1.684   5.237   2.766  0.2257  0.9319 -0.4496
11611TIP3   OH256323   4.669   1.983   4.402  0.4395 -0.4290  0.3870
11611TIP3    H156324   4.576   2.003   4.411  0.6862  0.3792  1.2571
11611TIP3    H256325   4.682   1.970   4.308 -0.6385 -1.0197  0.3076
11612TIP3   OH256326   4.066   4.855   6.011  0.4988  0.2473 -0.2480
11612TIP3    H156327   4.091   4.817   6.095 -0.4546 -0.8768 -0.4415
11612TIP3    H256328   3.993   4.913   6.031  1.1253  1.0186 -0.1349
11613TIP3   OH256329   0.628   1.315  10.709  0.1113 -0.1344  0.0672
11613TIP3    H156330   0.682   1.298  10.632 -1.8521 -1.0815 -1.2129
11613TIP3    H256331   0.550   1.358  10.674 -0.7047 -0.3160  1.5715
11614TIP3   OH256332   3.705   5.280  12.698  0.2370  0.1775 -0.0397
11614TIP3    H156333   3.717   5.297  12.604  2.2537 -0.1463  0.1128
11614TIP3    H256334   3.623   5.233  12.703 -1.8166  3.3075 -1.2419
11615TIP3   OH256335   4.315   5.825  16.318  0.2128 -0.0927  0.1023
11615TIP3    H156336   4.360   5.769  16.380 -1.4084 -1.4545  0.1232
11615TIP3    H256337   4.322   5.779  16.234 -1.6923 -0.7518  0.2472
11616TIP3   OH256338   6.078   0.641  13.936  0.4880  0.3819  0.1032
11616TIP3    H156339   6.049   0.612  14.023 -0.7689  0.4533 -0.2633
11616TIP3    H256340   6.114   0.728  13.949 -1.8865  1.4202  0.2478
11617TIP3   OH256341   6.742   2.707   3.869 -0.6178 -0.2434  0.0105
11617TIP3    H156342   6.774   2.696   3.780 -0.5394 -0.3091  0.0471
11617TIP3    H256343   6.654   2.745   3.859 -0.5000  0.0034 -0.0873
11618TIP3   OH256344   4.291   4.226   1.493  0.3088 -0.4847 -0.2090
11618TIP3    H156345   4.372   4.175   1.494  1.7474  1.5750 -1.9897
11618TIP3    H256346   4.282   4.260   1.582  0.7009 -1.7117  0.3167
11619TIP3   OH256347   6.373   3.140  14.134  0.2585  0.0591 -0.6239
11619TIP3    H156348   6.340   3.208  14.075 -0.5025 -1.0050 -1.4928
11619TIP3    H256349   6.305   3.132  14.201  0.2106 -0.0278 -0.6821
11620TIP3   OH256350   3.309   2.632  11.981  0.1355 -0.5802 -0.0203
11620TIP3    H156351   3.357   2.669  11.907  0.7465 -2.9110 -0.8895
11620TIP3    H256352   3.217   2.647  11.959  0.3074  3.1472  1.2432
11621TIP3   OH256353   2.110   6.798  12.534 -0.4200 -0.3724  0.4210
11621TIP3    H156354   2.157   6.718  12.513  2.5852  1.5699 -0.8659
11621TIP3    H256355   2.056   6.815  12.457  0.1832 -0.3287  0.0030
11622TIP3   OH256356   3.359   0.852   1.354  0.3892  0.0804 -0.1912
11622TIP3    H156357   3.422   0.781   1.345 -0.3622 -0.5693 -0.4523
11622TIP3    H256358   3.412   0.929   1.375  1.1842 -0.6149  0.3907
11623TIP3   OH256359   5.897   2.709   0.388 -0.7661 -0.1360  0.4363
11623TIP3    H156360   5.852   2.793   0.385 -0.0097  0.3067  1.0427
11623TIP3    H256361   5.959   2.718   0.461 -0.6498 -1.2045  0.4820
11624TIP3   OH256362   6.718   0.065  11.714 -0.1353 -0.0711  0.4191
11624TIP3    H156363   6.755   0.096  11.631  0.1430  0.0392  0.5829
11624TIP3    H256364   6.641   0.014  11.689 -1.0227  1.3353  0.1629
11625TIP3   OH256365   1.101   5.459  11.194 -0.2731  0.2458 -0.2641
11625TIP3    H156366   1.150   5.536  11.167  0.5758  0.0893  0.7581
11625TIP3    H256367   1.120   5.450  11.287 -0.6687 -0.9715 -0.2831
11626TIP3   OH256368   0.970   0.880   1.222 -0.2841 -0.0565 -0.2557
11626TIP3    H156369   0.972   0.821   1.147 -0.5589  1.0112 -1.1255
11626TIP3    H256370   1.025   0.836   1.288 -2.3792 -2.4557  0.0710
11627TIP3   OH256371   6.372   2.999   1.456  0.2766 -0.3008 -0.3593
11627TIP3    H156372   6.342   3.087   1.478  2.3150  0.5137 -0.6389
11627TIP3    H256373   6.465   3.000   1.475  0.9643 -1.4488 -3.2046
11628TIP3   OH256374   4.516   3.024   4.307 -0.7536  0.6516 -0.3737
11628TIP3    H156375   4.598   3.013   4.355 -0.4242 -1.8344 -1.3403
11628TIP3    H256376   4.533   3.096   4.247  0.0101  1.4928  0.8212
11629TIP3   OH256377   6.403   1.242  11.190  0.2212  0.1363 -0.0213
11629TIP3    H156378   6.413   1.301  11.265 -1.2321 -1.5146  1.5842
11629TIP3    H256379   6.447   1.287  11.118 -0.9742  3.2658  1.0070
11630TIP3   OH256380   3.281   2.547   3.670 -0.0918 -0.4654  0.0180
11630TIP3    H156381   3.316   2.596   3.744  0.8366 -1.0928  0.0187
11630TIP3    H256382   3.188   2.536   3.689 -0.5123  1.9391 -0.3621
11631TIP3   OH256383   4.938   2.464  14.049 -0.8128  0.2146 -0.0370
11631TIP3    H156384   4.922   2.465  13.955 -1.5764  1.2725  0.0870
11631TIP3    H256385   4.896   2.385  14.081  0.8095 -0.9963 -0.7922
11632TIP3   OH256386   4.974   5.177   2.106  0.5357  0.4421  0.3453
11632TIP3    H156387   4.958   5.192   2.013  1.7819 -1.0806 -0.1525
11632TIP3    H256388   5.057   5.221   2.124  0.8433 -0.1847  0.4695
11633TIP3   OH256389   5.676   1.530  17.110 -0.0063  0.3114  0.1224
11633TIP3    H156390   5.726   1.500  17.186  0.7461  0.2743 -0.3757
11633TIP3    H256391   5.584   1.517  17.135  0.2454 -0.2240  0.8061
11634TIP3   OH256392   2.290   6.669   3.227 -0.0215 -0.0851 -0.8072
11634TIP3    H156393   2.344   6.730   3.177 -0.5322  0.5610 -0.5802
11634TIP3    H256394   2.202   6.678   3.191 -0.1362 -0.5572 -0.6537
11635TIP3   OH256395   5.498   6.217  15.316  0.1384 -0.0106  0.2293
11635TIP3    H156396   5.508   6.149  15.249  0.9101  1.1546 -0.9013
11635TIP3    H256397   5.408   6.208  15.346 -0.4948 -0.0997 -1.5524
11636TIP3   OH256398   4.949   4.629  10.609 -0.1174  0.0345 -0.6219
11636TIP3    H156399   4.896   4.659  10.684  0.4660  1.8372 -0.8901
11636TIP3    H256400   4.905   4.549  10.580 -0.3797 -0.7264  1.6221
11637TIP3   OH256401   2.150   2.376   0.727  0.0153  0.3581 -0.2861
11637TIP3    H156402   2.231   2.422   0.750  1.7036 -3.1705  1.7697
11637TIP3    H256403   2.118   2.341   0.811 -2.5386 -0.0732 -1.3594
11638TIP3   OH256404   5.196   3.736  16.576  0.1868  0.3109 -0.6962
11638TIP3    H156405   5.279   3.721  16.622  0.7740  2.3297 -0.9847
11638TIP3    H256406   5.206   3.689  16.493  0.2734 -0.9732  0.0106
11639TIP3   OH256407   4.982   3.613   0.556  0.5174 -0.0473  0.4242
11639TIP3    H156408   4.920   3.572   0.617  1.9872 -2.5145  0.3502
11639TIP3    H256409   4.945   3.595   0.469  0.8431 -0.6609  0.4140
11640TIP3   OH256410   6.633   2.806  11.722 -0.1663  0.0414 -0.4008
11640TIP3    H156411   6.674   2.878  11.771  0.7430  0.0446 -1.1267
11640TIP3    H256412   6.703   2.774  11.664 -0.7834 -0.9295 -0.6316
11641TIP3   OH256413   0.034   1.308  15.580 -0.5943  0.6728  0.4454
11641TIP3    H156414   0.066   1.218  15.584 -2.3041 -0.0533 -1.0654
11641TIP3    H256415   0.081   1.353  15.650  1.6240 -0.9416  0.0886
11642TIP3   OH256416   1.813   4.286   5.657 -0.3800  0.5907 -1.0747
11642TIP3    H156417   1.824   4.346   5.730 -1.6096  3.1729 -2.8439
11642TIP3    H256418   1.892   4.232   5.658 -0.6441  0.0301  2.4490
11643TIP3   OH256419   0.156   3.377  13.440 -0.1642 -0.5516 -0.4982
11643TIP3    H156420   0.083   3.393  13.500 -1.3247 -0.3259 -1.9152
11643TIP3    H256421   0.227   3.431  13.475 -0.9572 -0.0394  0.3882
11644TIP3   OH256422   4.232   2.211   3.793  0.6370 -0.4962 -0.1305
11644TIP3    H156423   4.162   2.146   3.793 -0.0930  0.2497 -1.8521
11644TIP3    H256424   4.309   2.163   3.763  0.2419 -0.7354 -0.7884
11645TIP3   OH256425   1.593   2.182   2.413  0.0864  0.4594  0.3788
11645TIP3    H156426   1.671   2.129   2.400  0.1992  1.1373 -2.0181
11645TIP3    H256427   1.593   2.202   2.507  0.1902 -3.4516  1.3830
11646TIP3   OH256428   6.818   5.231  11.619  0.1866 -0.3541 -0.7709
11646TIP3    H156429   6.879   5.298  11.652 -1.6170  1.6156 -1.2068
11646TIP3    H256430   6.824   5.239  11.524 -0.8384 -0.0202 -0.8187
11647TIP3   OH256431   5.358   2.734  14.635 -0.3081  0.4188  0.2436
11647TIP3    H156432   5.349   2.799  14.566  0.6771  0.8312  0.4877
11647TIP3    H256433   5.350   2.650  14.590 -0.1016  0.6865 -0.3045
11648TIP3   OH256434   4.845   0.923   5.604  0.4298  0.3840  0.4628
11648TIP3    H156435   4.920   0.886   5.558  0.4364  1.3045 -0.2880
11648TIP3    H256436   4.879   1.003   5.643  0.0914  0.2737  0.9945
11649TIP3   OH256437   0.395   2.281  10.025 -0.1661  0.2377 -0.4096
11649TIP3    H156438   0.376   2.235   9.943 -0.9565 -0.7327  0.3069
11649TIP3    H256439   0.489   2.302  10.019  0.0112 -0.7022 -1.1296
11650TIP3   OH256440   1.906   0.696   3.148 -0.1282 -0.3400  0.1293
11650TIP3    H156441   1.974   0.647   3.194  0.0031 -1.2958 -1.0520
11650TIP3    H256442   1.824   0.653   3.174 -0.2100  0.1366  0.7021
11651TIP3   OH256443   4.120   1.747  15.452  0.1193 -0.6461  0.3358
11651TIP3    H156444   4.200   1.776  15.496  0.2104  1.2659 -0.9421
11651TIP3    H256445   4.151   1.717  15.366 -0.5129  0.3951 -0.2822
11652TIP3   OH256446   5.501   1.534  12.870 -0.0055  0.1125 -0.1542
11652TIP3    H156447   5.592   1.540  12.839 -0.5813  1.5284 -1.6941
11652TIP3    H256448   5.477   1.624  12.893 -0.6868 -0.4141  1.3284
11653TIP3   OH256449   1.910   5.840  15.812 -0.1990 -0.1214 -0.2909
11653TIP3    H156450   1.941   5.930  15.820  0.6103 -0.3927 -0.2602
11653TIP3    H256451   1.933   5.799  15.895 -3.1562  0.3616  0.8865
11654TIP3   OH256452   4.445   4.045   2.561 -0.5233  0.4607  0.4505
11654TIP3    H156453   4.372   4.106   2.564 -0.7526  0.1822  0.7797
11654TIP3    H256454   4.515   4.089   2.608  0.4418  1.8624 -2.1762
11655TIP3   OH256455   6.849   4.071  11.112 -0.1135  0.6826 -0.0093
11655TIP3    H156456   6.803   4.119  11.044 -1.2644 -1.9154 -1.1947
11655TIP3    H256457   6.793   4.080  11.190  0.3396  2.2166  0.1838
11656TIP3   OH256458   5.909   6.125  11.326 -0.5306  0.3287  0.6510
11656TIP3    H156459   5.847   6.054  11.308  0.1810 -0.0624 -0.3207
11656TIP3    H256460   5.994   6.087  11.308  0.1684  0.4100  3.3208
11657TIP3   OH256461   4.181   5.976  11.462 -0.0428 -0.0878  0.2468
11657TIP3    H156462   4.198   6.023  11.380  0.8650 -0.5363  0.1681
11657TIP3    H256463   4.262   5.929  11.480 -1.1044 -2.1216  0.0156
11658TIP3   OH256464   1.503   1.400  10.700 -0.2452 -0.1486  0.8750
11658TIP3    H156465   1.554   1.331  10.742 -1.0019 -1.5322 -0.3934
11658TIP3    H256466   1.501   1.471  10.764  2.0644 -0.5776  1.5154
11659TIP3   OH256467   2.447   5.547   0.736  0.7272  0.3469  0.3427
11659TIP3    H156468   2.453   5.464   0.784 -1.4315  0.8932  1.7377
11659TIP3    H256469   2.490   5.610   0.793  0.9195  0.4736  0.0586
11660TIP3   OH256470   6.365   5.749  11.716  0.5660 -0.0150  0.6019
11660TIP3    H156471   6.292   5.802  11.685 -0.0926  0.1813  2.3311
11660TIP3    H256472   6.328   5.661  11.725  0.2906  0.2381  2.1973
11661TIP3   OH256473   0.883   2.509  14.908  0.4777  0.1156  0.6317
11661TIP3    H156474   0.815   2.453  14.871  0.5335  0.2899  0.2630
11661TIP3    H256475   0.871   2.593  14.865  0.3648  0.4050  1.2236
11662TIP3   OH256476   2.802   1.485  13.982 -0.5561  1.0398 -0.5077
11662TIP3    H156477   2.792   1.390  13.983 -0.3512  1.0171 -0.3794
11662TIP3    H256478   2.882   1.500  14.033  0.4656  1.1548 -2.0716
11663TIP3   OH256479   4.319   6.017   2.690  0.6249 -0.1301  0.2439
11663TIP3    H156480   4.286   6.090   2.742 -0.5448 -0.6045  0.2242
11663TIP3    H256481   4.241   5.964   2.673  0.9937 -0.0633 -1.8958
11664TIP3   OH256482   3.782   5.501  11.776 -0.1354  0.1323 -0.1730
11664TIP3    H156483   3.829   5.418  11.783  0.1267  0.2540 -0.4191
11664TIP3    H256484   3.740   5.513  11.861 -1.7408 -1.1671 -0.7282
11665TIP3   OH256485   3.359   0.780  13.150  0.2817 -0.2760 -0.4960
11665TIP3    H156486   3.283   0.739  13.191 -1.1045  1.6228 -1.0187
11665TIP3    H256487   3.433   0.753  13.204 -1.1348  0.0528  1.7244
11666TIP3   OH256488   3.524   5.218   2.017  0.5176  0.2953 -0.4579
11666TIP3    H156489   3.562   5.131   2.024 -0.1165  0.0686  0.3494
11666TIP3    H256490   3.580   5.273   2.073  0.1937  0.1494  0.0113
11667TIP3   OH256491   2.970   0.785  13.516 -0.2210 -0.1359  0.1797
11667TIP3    H156492   2.895   0.740  13.477 -0.3991 -0.5791  1.0110
11667TIP3    H256493   2.974   0.869  13.471 -0.1070 -0.8181 -1.1563
11668TIP3   OH256494   1.863   3.375  12.312  0.3193  0.1906  0.5278
11668TIP3    H156495   1.933   3.329  12.265  1.0561  1.1037  0.7024
11668TIP3    H256496   1.900   3.388  12.400 -1.1121 -1.6971  1.4816
11669TIP3   OH256497   1.614   6.756  11.696  0.0023 -0.3534 -0.2335
11669TIP3    H156498   1.701   6.769  11.735  0.8652 -3.1874 -0.9672
11669TIP3    H256499   1.615   6.811  11.618  0.6721  0.5327  0.3710
11670TIP3   OH256500   0.539   5.762   4.861 -0.3676 -0.0215 -0.0947
11670TIP3    H156501   0.482   5.828   4.899  0.2705  1.2966 -1.3310
11670TIP3    H256502   0.567   5.800   4.777  0.9703 -1.3518 -0.2895
11671TIP3   OH256503   0.908   3.027  14.882  0.2123  0.1868  0.1301
11671TIP3    H156504   0.820   3.028  14.845  0.5405 -1.1663 -0.7229
11671TIP3    H256505   0.935   3.120  14.883 -0.8413  0.5075 -0.4837
11672TIP3   OH256506   2.501   0.237   0.401 -0.3170 -0.0150  0.1742
11672TIP3    H156507   2.428   0.273   0.350 -0.3940  2.5373  1.9223
11672TIP3    H256508   2.557   0.194   0.336 -2.2709 -0.1877 -1.4976
11673TIP3   OH256509   6.851   6.709   2.477  0.4021  0.0658 -0.1327
11673TIP3    H156510   6.880   6.792   2.515  1.5035 -1.0218  1.5219
11673TIP3    H256511   6.766   6.728   2.439  0.4751  1.8719  0.5289
11674TIP3   OH256512   2.413   1.453   2.601  0.1249  0.1776  0.0568
11674TIP3    H156513   2.397   1.537   2.642  0.6380  0.7268 -0.8414
11674TIP3    H256514   2.440   1.474   2.512 -1.0897 -0.9895 -0.6212
11675TIP3   OH256515   0.511   1.894   3.521  0.8336 -0.6532 -0.0631
11675TIP3    H156516   0.509   1.866   3.429 -2.4110 -0.2559 -0.2418
11675TIP3    H256517   0.482   1.816   3.569  1.4165 -0.5165  0.5155
11676TIP3   OH256518   3.062   6.785   2.903  0.6827  0.2005  0.3681
11676TIP3    H156519   3.022   6.709   2.944 -0.7192 -0.1249 -1.4639
11676TIP3    H256520   3.134   6.750   2.851  0.4893  0.2013  0.0953
11677TIP3   OH256521   0.173   5.771   6.381  0.1139  0.2917 -0.3452
11677TIP3    H156522   0.252   5.720   6.366  0.8702  1.2015  0.4117
11677TIP3    H256523   0.205   5.855   6.416 -1.2050  0.5123  0.3901
11678TIP3   OH256524   1.919   6.381   1.537  0.6249 -0.2608  0.3399
11678TIP3    H156525   1.856   6.311   1.556  0.0558 -0.2676 -1.3983
11678TIP3    H256526   1.867   6.449   1.496  1.3337  0.8472  1.2264
11679TIP3   OH256527   1.966   0.701  12.813 -0.6860 -0.3994 -0.1056
11679TIP3    H156528   1.916   0.619  12.811 -2.4511  0.6105  0.7390
11679TIP3    H256529   1.931   0.749  12.888  1.0266  0.7041  0.0258
11680TIP3   OH256530   2.080   2.321   1.460 -0.1324 -0.2183  0.3118
11680TIP3    H156531   2.043   2.381   1.396 -0.8853 -0.8678  0.1257
11680TIP3    H256532   2.005   2.271   1.492  0.4707 -0.9948  0.5298
11681TIP3   OH256533   1.050   6.391  11.877  0.0262 -0.0729 -0.0062
11681TIP3    H156534   1.116   6.455  11.850  1.0185 -1.4058 -0.9006
11681TIP3    H256535   1.059   6.385  11.972 -0.3062  1.3015  0.1422
11682TIP3   OH256536   3.773   3.079   2.966  0.0883 -0.2030 -0.3800
11682TIP3    H156537   3.861   3.057   2.999 -0.1438 -1.2397 -0.4270
11682TIP3    H256538   3.732   2.995   2.950 -0.6906  0.2860 -0.9934
11683TIP3   OH256539   4.013   3.815  12.822  0.2925 -0.2473 -0.3313
11683TIP3    H156540   4.094   3.769  12.799  0.6224  0.8808 -1.5151
11683TIP3    H256541   3.949   3.745  12.838  1.4839 -1.1515  0.6508
11684TIP3   OH256542   4.038   6.741   1.985 -0.5850  0.1748  0.4607
11684TIP3    H156543   3.955   6.694   1.982  0.4026 -1.6870 -2.2164
11684TIP3    H256544   4.026   6.815   1.926 -0.0825 -0.7668 -0.8917
11685TIP3   OH256545   6.517   2.114  13.380 -0.9192 -0.4302  0.4075
11685TIP3    H156546   6.595   2.088  13.429 -1.3815 -0.8904  0.9077
11685TIP3    H256547   6.470   2.032  13.365 -1.0490 -0.2281 -0.3572
11686TIP3   OH256548   3.044   2.945   3.996 -0.6815 -0.6164 -0.4052
11686TIP3    H156549   3.024   3.028   3.951  2.4708  0.1638 -0.5918
11686TIP3    H256550   3.071   2.971   4.083 -1.7198 -1.6962  0.2702
11687TIP3   OH256551   5.573   5.616  13.038 -0.2413 -0.0118 -0.1152
11687TIP3    H156552   5.483   5.591  13.018 -0.1570 -0.2935 -0.1484
11687TIP3    H256553   5.574   5.711  13.032 -0.3562 -0.0534 -0.8920
11688TIP3   OH256554   3.162   0.570  16.157 -0.0027  0.1490  0.7028
11688TIP3    H156555   3.235   0.540  16.210  0.6369  0.3934 -0.0244
11688TIP3    H256556   3.178   0.664  16.145  1.8530 -0.4392 -2.8540
11689TIP3   OH256557   5.104   5.582   3.045  0.4089  0.6402 -0.4491
11689TIP3    H156558   5.099   5.586   3.141 -2.0139  1.7327 -0.5560
11689TIP3    H256559   5.105   5.673   3.017  2.2240  0.3486 -1.4890
11690TIP3   OH256560   3.189   6.804   3.633  0.3486  0.2921  0.1152
11690TIP3    H156561   3.163   6.828   3.723  0.3632  0.4397  0.0812
11690TIP3    H256562   3.207   6.888   3.591 -4.5923  0.8046 -1.6026
11691TIP3   OH256563   3.934   4.732  14.352 -0.6594  0.0127  0.0997
11691TIP3    H156564   3.845   4.700  14.336 -0.6904  0.1771 -0.0659
11691TIP3    H256565   3.960   4.691  14.434 -1.1190  0.4467  0.4672
11692TIP3   OH256566   4.785   2.185  16.037 -0.0816 -0.1301 -0.1482
11692TIP3    H156567   4.788   2.280  16.029 -1.2001  0.1833  2.1164
11692TIP3    H256568   4.764   2.154  15.949 -0.4777  1.7729 -0.7799
11693TIP3   OH256569   2.977   1.992   3.637 -0.1969 -0.3441 -0.1765
11693TIP3    H156570   2.983   2.066   3.576 -1.3284 -0.4639 -0.4602
11693TIP3    H256571   2.920   1.929   3.592  0.3031 -1.1505  0.3013
11694TIP3   OH256572   4.486   2.620   1.606 -0.0509 -0.4859 -0.1704
11694TIP3    H156573   4.472   2.577   1.690  0.4748  0.3289  0.3421
11694TIP3    H256574   4.465   2.712   1.622  0.2255 -0.2889 -0.8883
11695TIP3   OH256575   1.580   1.779  16.103  0.3278 -0.1173 -0.6470
11695TIP3    H156576   1.665   1.736  16.106  0.2606 -0.2400 -0.4971
11695TIP3    H256577   1.517   1.707  16.094 -0.0458 -0.3491  2.7470
11696TIP3   OH256578   1.706   4.794  16.205 -0.0174  0.1344 -0.2903
11696TIP3    H156579   1.682   4.710  16.167  1.2862 -1.2007  1.6326
11696TIP3    H256580   1.629   4.820  16.256 -0.5309  0.2678 -1.1213
11697TIP3   OH256581   6.320   2.080   2.603  0.2435  0.9514 -0.0534
11697TIP3    H156582   6.250   2.103   2.543 -0.2478  0.6085  0.3822
11697TIP3    H256583   6.381   2.154   2.599  0.6542  0.5806 -1.6048
11698TIP3   OH256584   5.506   0.904   4.716  0.1235 -0.1758  0.9134
11698TIP3    H156585   5.544   0.818   4.700 -0.4496 -0.2927  0.0618
11698TIP3    H256586   5.428   0.887   4.768 -1.7538 -0.5921 -1.7905
11699TIP3   OH256587   3.342   3.744  13.741 -0.0420  0.2469  0.1598
11699TIP3    H156588   3.419   3.728  13.686  0.5622 -0.3312  1.1343
11699TIP3    H256589   3.336   3.840  13.745  0.5040  0.2991 -0.1160
11700TIP3   OH256590   1.963   5.934   1.110  0.4686  0.1863 -0.2981
11700TIP3    H156591   2.038   5.890   1.069  0.0603 -0.1309 -0.7251
11700TIP3    H256592   1.949   5.887   1.192 -1.1181 -1.7917 -1.5747
11701TIP3   OH256593   1.938   1.122  16.656  0.0847  0.6204  0.4294
11701TIP3    H156594   2.018   1.172  16.676  1.2084 -0.5925 -0.8563
11701TIP3    H256595   1.897   1.170  16.584  1.4504 -0.4949 -1.1824
11702TIP3   OH256596   1.942   1.612   3.285 -0.1247 -0.7351 -0.0984
11702TIP3    H156597   1.873   1.613   3.219 -0.3276  0.5702  0.1081
11702TIP3    H256598   1.911   1.672   3.353  0.8161 -0.8084  0.4133
11703TIP3   OH256599   6.672   1.702  14.970  0.0507 -0.0985  0.2333
11703TIP3    H156600   6.747   1.760  14.981 -1.2521  1.3320  2.1967
11703TIP3    H256601   6.634   1.729  14.886 -0.0885  1.4160  0.7446
11704TIP3   OH256602   4.659   3.286  10.854  0.1009  0.0804 -0.2217
11704TIP3    H156603   4.708   3.240  10.786  0.0229 -0.3575  0.0133
11704TIP3    H256604   4.567   3.269  10.833  0.0813 -1.6448  1.0361
11705TIP3   OH256605   3.900   6.124   1.255  0.1848 -0.3304 -0.1495
11705TIP3    H156606   3.886   6.134   1.160  0.6841 -0.0227 -0.1936
11705TIP3    H256607   3.830   6.176   1.295 -0.6455 -1.2699 -0.3310
11706TIP3   OH256608   1.224   0.664   5.465  0.4584  0.2380  0.4883
11706TIP3    H156609   1.287   0.592   5.467  0.3270  0.1441  1.4667
11706TIP3    H256610   1.198   0.670   5.373  0.7066 -0.7545  0.3437
11707TIP3   OH256611   0.126   6.625  15.235  0.2474 -0.2621 -0.0270
11707TIP3    H156612   0.196   6.690  15.244  0.6446 -0.3261 -2.1077
11707TIP3    H256613   0.163   6.544  15.269  0.2476  0.2805  1.2888
11708TIP3   OH256614   0.115   3.316   6.074 -0.0266 -0.5935  0.2605
11708TIP3    H156615   0.071   3.269   6.145  1.6353 -1.2815  0.8816
11708TIP3    H256616   0.190   3.358   6.116  0.6588 -0.5421 -0.9792
11709TIP3   OH256617   2.176   6.210  15.162 -0.0929  0.6316  0.4457
11709TIP3    H156618   2.224   6.286  15.129 -1.3824  0.5217 -1.9762
11709TIP3    H256619   2.220   6.135  15.121 -1.8609  0.4983 -1.3870
11710TIP3   OH256620   2.411   1.457   5.752  0.4257  0.2592 -0.3361
11710TIP3    H156621   2.382   1.518   5.684  0.1862  1.4857  0.8204
11710TIP3    H256622   2.473   1.507   5.805 -1.2325  0.1938  1.8015
11711TIP3   OH256623   1.365   5.607   0.997  0.3865 -0.2510 -0.1068
11711TIP3    H156624   1.441   5.636   0.947  0.3516  2.0552  1.0074
11711TIP3    H256625   1.325   5.689   1.028 -1.6004 -1.4632  0.7037
11712TIP3   OH256626   2.566   5.722   0.896 -0.0082 -0.1119  0.1994
11712TIP3    H156627   2.635   5.704   0.959  0.8011  1.7123 -0.0833
11712TIP3    H256628   2.611   5.762   0.821 -1.1922 -0.2377 -0.6157
11713TIP3   OH256629   5.670   0.866   1.292 -0.1524 -0.8396 -0.2135
11713TIP3    H156630   5.704   0.779   1.311  0.5036 -0.2823  1.3043
11713TIP3    H256631   5.639   0.899   1.376  2.0266  1.4159 -0.1762
11714TIP3   OH256632   5.743   3.935  14.824 -0.5136  0.0749 -0.0721
11714TIP3    H156633   5.813   3.986  14.863  0.2296 -0.6280 -0.4574
11714TIP3    H256634   5.716   3.985  14.747 -0.6407  0.4855  0.2344
11715TIP3   OH256635   3.750   5.879  14.979  0.3912  0.3224 -0.3955
11715TIP3    H156636   3.782   5.915  15.062 -0.2270  0.7664 -0.3472
11715TIP3    H256637   3.826   5.883  14.920  1.0499 -0.6693  0.3409
11716TIP3   OH256638   0.829   6.225   1.120 -0.6968 -0.0673  0.0984
11716TIP3    H156639   0.888   6.217   1.045 -1.3290  0.4379 -0.4705
11716TIP3    H256640   0.778   6.144   1.120  0.6199 -0.9320  1.1646
11717TIP3   OH256641   1.789   2.991  13.218 -0.3628  0.1516 -0.2833
11717TIP3    H156642   1.825   3.057  13.159  0.6106  1.1664  1.3559
11717TIP3    H256643   1.865   2.945  13.253 -0.9255 -0.5548  0.0426
11718TIP3   OH256644   0.916   5.403  13.892 -0.1739  0.0276  0.1627
11718TIP3    H156645   0.869   5.486  13.886 -0.6169 -0.2413 -0.1391
11718TIP3    H256646   0.921   5.371  13.802  0.6404  0.0757  0.1836
11719TIP3   OH256647   4.911   0.794  12.082  0.1768 -0.2268 -1.0262
11719TIP3    H156648   4.899   0.838  11.998  0.0046 -0.5017 -1.1456
11719TIP3    H256649   4.977   0.726  12.065  0.1810 -0.2498 -0.9245
11720TIP3   OH256650   6.126   6.760  11.248 -0.0478 -0.3000  0.1954
11720TIP3    H156651   6.068   6.827  11.213  1.6662  1.1117 -0.0758
11720TIP3    H256652   6.095   6.678  11.209 -0.7811  0.6464 -1.2762
11721TIP3   OH256653   3.121   5.674   2.040  0.0671  0.0742  0.4394
11721TIP3    H156654   3.125   5.660   2.134 -1.7163  0.1239  0.5563
11721TIP3    H256655   3.131   5.769   2.030  1.5232 -0.0538  0.4521
11722TIP3   OH256656   6.828   6.363  16.188  0.1102 -0.0920  0.0880
11722TIP3    H156657   6.820   6.430  16.256 -0.5700 -2.2191  2.2486
11722TIP3    H256658   6.737   6.338  16.168  0.2886  0.4731 -1.6831
11723TIP3   OH256659   3.121   0.942   1.192  0.2793 -0.0044 -0.5681
11723TIP3    H156660   3.166   0.901   1.267 -1.7582 -2.0786 -0.3741
11723TIP3    H256661   3.075   1.017   1.230 -0.0647 -0.5510  0.1308
11724TIP3   OH256662   5.005   0.456  12.224 -0.1404  0.0766  0.1760
11724TIP3    H156663   5.037   0.409  12.301 -0.7348  0.3769  0.6200
11724TIP3    H256664   4.939   0.516  12.259 -0.5204  0.1152 -0.5903
11725TIP3   OH256665   4.730   4.356   5.391  0.6936 -0.1744 -0.0690
11725TIP3    H156666   4.769   4.363   5.478  0.9646 -1.6869 -0.0501
11725TIP3    H256667   4.718   4.262   5.377  0.7423  0.0311 -1.7060
11726TIP3   OH256668   0.025   4.645  15.956 -0.0118 -0.0219 -0.5987
11726TIP3    H156669  -0.064   4.673  15.977 -0.0355 -0.0708 -0.6332
11726TIP3    H256670   0.048   4.586  16.027 -0.1301 -0.2672 -0.7606
11727TIP3   OH256671   2.094   0.560  12.206  0.0500  0.1162 -0.1926
11727TIP3    H156672   2.049   0.477  12.189 -1.5721  0.4184  2.1127
11727TIP3    H256673   2.119   0.555  12.299  1.6604  1.4212 -0.5207
11728TIP3   OH256674   6.461   5.139  11.356  0.5632  0.3540 -0.0458
11728TIP3    H156675   6.436   5.133  11.448  0.0195 -1.7166 -0.2832
11728TIP3    H256676   6.402   5.204  11.319  0.0867  0.4393  0.8474
11729TIP3   OH256677   5.689   0.197  15.034 -0.3418 -0.3279 -0.2906
11729TIP3    H156678   5.710   0.105  15.049  0.4601 -0.3512 -1.4058
11729TIP3    H256679   5.661   0.229  15.120  2.2703 -0.8689  0.8773
11730TIP3   OH256680   6.369   2.891   1.989 -0.1988 -0.5166  0.0101
11730TIP3    H156681   6.284   2.928   1.967 -0.5452 -1.0510  0.4176
11730TIP3    H256682   6.428   2.925   1.922 -1.0936 -1.5897 -1.3995
11731TIP3   OH256683   6.281   3.118  16.532  0.3218  0.3693  0.2177
11731TIP3    H156684   6.264   3.209  16.555 -0.5969  0.1289  0.5290
11731TIP3    H256685   6.376   3.112  16.526  0.5055  0.9048  2.0597
11732TIP3   OH256686   4.598   6.333   3.857 -0.8314 -0.6100 -0.4256
11732TIP3    H156687   4.506   6.314   3.874 -0.9179 -0.5410 -0.7958
11732TIP3    H256688   4.597   6.380   3.773 -0.3553 -1.8424 -1.1426
11733TIP3   OH256689   4.603   0.640  16.437 -0.8228 -0.1131  0.4592
11733TIP3    H156690   4.625   0.557  16.395 -0.3150  1.0175 -1.6489
11733TIP3    H256691   4.677   0.658  16.495  0.9501  0.6038 -1.8645
11734TIP3   OH256692   0.641   4.346   3.296  0.2226 -0.3486 -0.2582
11734TIP3    H156693   0.693   4.361   3.375  1.0982 -1.2011 -0.6542
11734TIP3    H256694   0.569   4.291   3.326 -0.1272  0.3294  0.1734
11735TIP3   OH256695   1.340   0.802   4.554  0.1800  0.1662  0.0492
11735TIP3    H156696   1.363   0.740   4.485 -1.2434  0.5022 -0.7769
11735TIP3    H256697   1.252   0.775   4.580  0.7164  0.0135  1.8005
11736TIP3   OH256698   3.405   5.795  13.724 -0.0913 -0.4082 -0.0607
11736TIP3    H156699   3.480   5.829  13.773 -0.3040  0.0384 -0.0365
11736TIP3    H256700   3.360   5.873  13.693  0.9500 -0.6724 -2.4198
11737TIP3   OH256701   5.917   5.968   6.248  0.1243 -0.0971  0.3644
11737TIP3    H156702   5.846   5.997   6.191  1.5305  1.0573 -0.8476
11737TIP3    H256703   5.892   6.000   6.335 -0.6772  0.5708 -0.0996
11738TIP3   OH256704   3.602   6.027   1.310  0.2116  0.1346  0.2167
11738TIP3    H156705   3.524   5.985   1.345  1.4879 -1.2970  1.4341
11738TIP3    H256706   3.671   5.961   1.314  1.1890  0.8477 -2.2447
11739TIP3   OH256707   6.510   1.230   2.135 -0.6524  0.1495 -0.0501
11739TIP3    H156708   6.444   1.296   2.156 -1.0880 -0.8679  2.0943
11739TIP3    H256709   6.529   1.188   2.219  0.4015 -1.7246 -1.1552
11740TIP3   OH256710   2.378   3.201  11.735  0.0119 -0.5938 -0.1624
11740TIP3    H156711   2.305   3.200  11.673 -0.6132 -0.1037  0.5408
11740TIP3    H256712   2.439   3.135  11.702  0.3144  0.5383 -2.0141
11741TIP3   OH256713   3.524   2.088  11.751  0.2753  0.2477 -0.2927
11741TIP3    H156714   3.556   2.063  11.664 -1.3802 -1.3666 -0.5075
11741TIP3    H256715   3.460   2.021  11.773 -0.4131  1.4296  1.5690
11742TIP3   OH256716   5.760   1.181   1.538  0.3574  0.1107  0.2333
11742TIP3    H156717   5.691   1.158   1.475  1.9049 -0.1685 -1.4444
11742TIP3    H256718   5.756   1.113   1.605 -0.2733 -0.5404 -0.4485
11743TIP3   OH256719   3.238   4.046  14.691  0.9661 -0.4731  0.4881
11743TIP3    H156720   3.212   4.138  14.689  1.5328 -0.2884 -1.9933
11743TIP3    H256721   3.333   4.048  14.701  0.9126 -0.8216  1.1018
11744TIP3   OH256722   4.682   3.735  11.665  0.0839  0.1115  0.0555
11744TIP3    H156723   4.634   3.726  11.583 -1.7594  1.2073  0.9367
11744TIP3    H256724   4.664   3.655  11.713  0.4225 -0.1379 -0.2255
11745TIP3   OH256725   1.801   0.729  16.008 -0.5233 -0.0819  0.3443
11745TIP3    H156726   1.872   0.676  16.042  0.9086  1.8612  0.5505
11745TIP3    H256727   1.787   0.696  15.919 -0.3884 -1.4169  0.7914
11746TIP3   OH256728   4.794   5.541   3.192 -0.7817  0.0869  0.7199
11746TIP3    H156729   4.739   5.590   3.131 -1.1223 -2.1404 -0.8800
11746TIP3    H256730   4.880   5.539   3.150 -0.6550 -0.2975  1.0026
11747TIP3   OH256731   5.423   2.873  10.321  0.0753 -0.1567 -0.0549
11747TIP3    H156732   5.341   2.892  10.276 -0.4335 -0.4063  0.7351
11747TIP3    H256733   5.486   2.934  10.283 -0.5628  0.2893 -0.4250
11748TIP3   OH256734   1.500   6.469  12.328  0.1391  0.6639 -0.2531
11748TIP3    H156735   1.451   6.532  12.273 -1.5571  0.5827  1.0659
11748TIP3    H256736   1.433   6.429  12.383  1.8371  1.2579  2.3951
11749TIP3   OH256737   3.634   6.381  11.615 -0.1989  0.9785 -0.0590
11749TIP3    H156738   3.564   6.361  11.677 -1.7560  2.3991 -1.2612
11749TIP3    H256739   3.649   6.475  11.624  0.7038  0.9138 -0.6994
11750TIP3   OH256740   6.414   4.113  16.232  0.0035  0.8710 -0.5817
11750TIP3    H156741   6.368   4.178  16.286  0.2665  0.6013 -0.0224
11750TIP3    H256742   6.432   4.159  16.150 -1.3877  0.9276 -0.8664
11751TIP3   OH256743   1.064   0.936  16.691 -0.1120 -0.6080 -0.7532
11751TIP3    H156744   1.042   0.922  16.783  0.5782  0.5858 -0.3789
11751TIP3    H256745   1.109   0.856  16.664 -1.1428 -1.3458 -0.3302
11752TIP3   OH256746   0.202   2.739  10.388  0.1629  0.1847  0.2099
11752TIP3    H156747   0.237   2.708  10.305 -1.3748  0.2572 -0.5143
11752TIP3    H256748   0.126   2.683  10.404 -0.1693  0.8488  1.0332
11753TIP3   OH256749   3.691   3.658   3.602  0.5273 -0.4125 -0.2400
11753TIP3    H156750   3.628   3.703   3.546  2.5493 -0.6805 -2.8988
11753TIP3    H256751   3.712   3.577   3.554  0.2955 -2.0839  2.2834
11754TIP3   OH256752   1.706   4.246  13.918 -0.4881  0.2310  0.4919
11754TIP3    H156753   1.763   4.298  13.861 -0.0404 -0.5746  0.1779
11754TIP3    H256754   1.715   4.286  14.004 -1.9404  2.0791 -0.1559
11755TIP3   OH256755   3.838   0.028   5.341 -0.1242 -0.1256  0.2814
11755TIP3    H156756   3.920   0.022   5.292 -1.4412 -0.6957 -1.9857
11755TIP3    H256757   3.794  -0.055   5.325 -2.3835  1.2127 -0.9370
11756TIP3   OH256758   1.956   5.549   1.670  0.2373 -0.4211  0.2843
11756TIP3    H156759   1.947   5.627   1.726 -0.6843 -0.9217  0.8561
11756TIP3    H256760   1.919   5.576   1.586  2.0610  0.4878 -0.2645
11757TIP3   OH256761   1.111   3.848   3.237 -0.1039 -0.7331 -0.5023
11757TIP3    H156762   1.126   3.910   3.308 -0.5360 -1.0635 -0.1187
11757TIP3    H256763   1.134   3.897   3.158 -1.6014  0.3478 -0.3133
11758TIP3   OH256764   4.647   6.467  15.450  0.8125  0.1207  0.4246
11758TIP3    H156765   4.707   6.510  15.389  1.4635 -0.9128  0.3146
11758TIP3    H256766   4.651   6.521  15.529  0.9891  0.7111  0.0210
11759TIP3   OH256767   0.026   5.574   1.784  0.0068 -0.1512 -0.5169
11759TIP3    H156768   0.085   5.577   1.709  0.8508 -2.2976 -0.0166
11759TIP3    H256769   0.008   5.481   1.797  1.4481 -0.0943  3.0930
11760TIP3   OH256770   3.650   2.765  14.280 -0.0754  0.3723  1.1661
11760TIP3    H156771   3.604   2.844  14.252  0.3780 -0.0339 -0.8720
11760TIP3    H256772   3.676   2.722  14.199  2.5576 -0.1971  2.2104
11761TIP3   OH256773   3.949   3.958   6.312  0.1874  0.3659 -0.5155
11761TIP3    H156774   3.989   3.985   6.229 -0.1699 -0.4301 -0.9682
11761TIP3    H256775   3.994   4.009   6.379 -1.5450  3.3046 -1.3950
11762TIP3   OH256776   2.910   2.582   0.318 -0.2653 -0.4109 -0.2631
11762TIP3    H156777   2.829   2.533   0.329 -1.1133  1.1344  0.8073
11762TIP3    H256778   2.967   2.524   0.267  0.1748 -4.0629  3.8117
11763TIP3   OH256779   1.845   1.048   3.635  0.0104  0.6035  0.1195
11763TIP3    H156780   1.786   0.985   3.677 -0.3208  1.7018  1.3739
11763TIP3    H256781   1.865   1.009   3.550 -2.0586 -0.0825 -0.1068
11764TIP3   OH256782   3.752   0.279   3.616 -0.3457 -0.0334 -0.1489
11764TIP3    H156783   3.734   0.186   3.629  0.2995 -0.7585 -3.4122
11764TIP3    H256784   3.847   0.284   3.606  0.4333  1.9485  5.2080
11765TIP3   OH256785   5.037   2.983  15.166  0.1794  0.4027  0.2713
11765TIP3    H156786   4.976   3.046  15.205 -1.9407 -1.2153 -0.2296
11765TIP3    H256787   5.100   2.965  15.236 -1.3100  0.3984  1.6882
11766TIP3   OH256788   5.624   2.841  13.095  0.0494  0.0210  0.0377
11766TIP3    H156789   5.598   2.755  13.059 -0.2414 -1.2911  3.0583
11766TIP3    H256790   5.719   2.843  13.087  0.0563 -0.5969 -0.0830
11767TIP3   OH256791   4.323   2.915  14.601 -0.5123  0.0048 -0.2920
11767TIP3    H156792   4.301   2.956  14.685 -1.2395  0.3970 -0.6598
11767TIP3    H256793   4.412   2.883  14.612 -0.3860  0.5836  0.4273
11768TIP3   OH256794   4.149   1.176   0.966  0.0559 -0.0560  0.2791
11768TIP3    H156795   4.168   1.244   1.031  1.8745 -0.8032  0.5836
11768TIP3    H256796   4.183   1.211   0.884  1.0129 -0.5928  0.4401
11769TIP3   OH256797   0.394   3.728   4.698  0.4414 -0.2442 -0.3464
11769TIP3    H156798   0.412   3.760   4.610  1.1611  1.0777  0.2452
11769TIP3    H256799   0.446   3.785   4.755 -0.8654 -0.3570  1.0111
11770TIP3   OH256800   4.115   6.002  16.986 -0.3363 -0.4043  0.0149
11770TIP3    H156801   4.187   6.046  17.031 -2.0091  1.6323  0.8850
11770TIP3    H256802   4.138   6.008  16.893  0.7336 -0.0352  0.2885
11771TIP3   OH256803   6.685   4.295  15.170  0.4050 -0.4679  0.8454
11771TIP3    H156804   6.646   4.381  15.189  0.9926 -0.3469  1.5702
11771TIP3    H256805   6.627   4.233  15.214  1.1776 -0.2637  2.2231
11772TIP3   OH256806   6.725   3.960  12.127 -0.5566 -0.4862  0.0758
11772TIP3    H156807   6.767   4.037  12.166 -1.4416 -0.4012  0.8866
11772TIP3    H256808   6.795   3.918  12.077  0.1895  0.3024  0.4284
11773TIP3   OH256809   1.919   4.237  12.136 -1.2101  0.2696 -0.0575
11773TIP3    H156810   1.902   4.177  12.209  1.5124 -1.3488 -0.6120
11773TIP3    H256811   1.924   4.323  12.176 -1.2058 -0.4048  1.4443
11774TIP3   OH256812   6.112   5.349  13.434 -0.0780  0.6990 -0.0388
11774TIP3    H156813   6.029   5.302  13.440 -0.4701  0.7826 -3.1611
11774TIP3    H256814   6.136   5.367  13.525 -2.7078 -0.6192  1.0245
11775TIP3   OH256815   5.738   2.174   3.531 -0.0463 -0.0218 -0.6491
11775TIP3    H156816   5.672   2.109   3.556 -0.9392  2.0413  2.9890
11775TIP3    H256817   5.822   2.134   3.555 -0.3155 -0.8828 -1.0906
11776TIP3   OH256818   5.196   4.341  11.235  0.2384 -0.6861 -0.2050
11776TIP3    H156819   5.144   4.380  11.165 -1.2476 -1.6852  0.3150
11776TIP3    H256820   5.217   4.253  11.203  0.0311 -0.9455  0.3593
11777TIP3   OH256821   4.352   3.354   0.110 -0.4978 -0.3860  0.1317
11777TIP3    H156822   4.300   3.404   0.047 -1.7264  0.5517  1.7922
11777TIP3    H256823   4.297   3.280   0.133 -0.5519 -0.1077  0.9225
11778TIP3   OH256824   5.912   4.056   3.704 -0.1360 -0.7214 -0.0796
11778TIP3    H156825   5.932   3.999   3.778  0.5403 -1.7343 -0.9947
11778TIP3    H256826   5.923   4.000   3.627 -1.3861  0.1384 -0.9297
11779TIP3   OH256827   4.618   3.156  11.474 -0.6725 -0.1524 -0.0473
11779TIP3    H156828   4.615   3.140  11.569  0.3586 -2.0310 -0.2733
11779TIP3    H256829   4.690   3.100  11.444 -1.5973 -0.3159 -2.0763
11780TIP3   OH256830   0.434   0.752   6.434 -0.1594 -0.1417 -0.1194
11780TIP3    H156831   0.367   0.815   6.410 -0.5711 -0.2906  0.5946
11780TIP3    H256832   0.513   0.804   6.449  1.3923 -0.3088 -5.6587
11781TIP3   OH256833   4.796   1.120   1.783 -0.1431 -0.1305 -0.1349
11781TIP3    H156834   4.757   1.180   1.846 -0.2485  1.0875 -1.3258
11781TIP3    H256835   4.811   1.039   1.833 -1.7455  0.2345  1.0126
11782TIP3   OH256836   0.468   2.530  14.061 -0.5699  0.0167  0.0048
11782TIP3    H156837   0.494   2.482  14.139  0.2790 -0.4972 -0.5804
11782TIP3    H256838   0.374   2.514  14.053 -0.8699  0.8887  1.4533
11783TIP3   OH256839   2.278   3.785   5.121  0.0100  0.6148  0.0929
11783TIP3    H156840   2.211   3.839   5.078  0.3088  1.0574  0.1779
11783TIP3    H256841   2.246   3.774   5.210 -1.1531 -1.1997 -0.4820
11784TIP3   OH256842   2.230   2.190   5.307 -0.2374  0.2949  0.0841
11784TIP3    H156843   2.254   2.179   5.215  1.3993  0.2674  0.4772
11784TIP3    H256844   2.251   2.106   5.347 -0.6372  0.4123  0.5369
11785TIP3   OH256845   5.085   5.834   1.532  0.0479 -0.6421  0.4722
11785TIP3    H156846   4.999   5.875   1.528  0.4880  0.3557  0.6623
11785TIP3    H256847   5.114   5.830   1.441  1.0217  1.8314  0.5898
11786TIP3   OH256848   3.685   1.042  13.867 -0.1712  0.1200 -0.2733
11786TIP3    H156849   3.754   1.065  13.929  0.0330 -0.6493 -0.2001
11786TIP3    H256850   3.624   1.116  13.869  0.7999  0.9414 -0.5598
11787TIP3   OH256851   0.617   4.601  14.146 -0.0368  0.4894 -0.5083
11787TIP3    H156852   0.613   4.531  14.080  0.6521  1.3082 -1.4526
11787TIP3    H256853   0.601   4.681  14.096  1.2945  1.2081  0.1669
11788TIP3   OH256854   6.269   5.496  14.236 -0.1150  0.0100  0.2930
11788TIP3    H156855   6.212   5.436  14.286  0.7681  0.0089  1.3436
11788TIP3    H256856   6.329   5.438  14.189  0.7389  0.0346  1.3086
11789TIP3   OH256857   2.165   1.722  12.661  0.3469  0.3353 -0.4780
11789TIP3    H156858   2.183   1.759  12.574 -0.1128 -0.0304 -0.7339
11789TIP3    H256859   2.070   1.722  12.668  0.3812  0.3843  0.0397
11790TIP3   OH256860   2.447   0.925  16.378 -0.2207  0.2016  0.1980
11790TIP3    H156861   2.481   0.961  16.460 -0.3907 -0.4626  0.5710
11790TIP3    H256862   2.511   0.859  16.352  0.1184  0.7965 -0.5103
11791TIP3   OH256863   6.588   4.528   3.277  0.2150  0.4311 -0.0272
11791TIP3    H156864   6.617   4.618   3.292 -0.4165  0.5643  0.4430
11791TIP3    H256865   6.641   4.475   3.337 -1.3600  0.8157  1.7896
11792TIP3   OH256866   0.937   6.847   2.284  0.5822 -0.4895  0.0022
11792TIP3    H156867   0.982   6.802   2.213 -2.7066 -1.0196 -1.9458
11792TIP3    H256868   0.887   6.779   2.328 -0.6936  0.4738  0.1006
11793TIP3   OH256869   6.521   3.272  15.477  0.3648 -0.1285 -0.6890
11793TIP3    H156870   6.476   3.189  15.462 -0.0839  0.3446 -2.0921
11793TIP3    H256871   6.569   3.288  15.396 -1.3179  2.0530 -1.3605
11794TIP3   OH256872   3.052   1.108   5.634  0.5789 -0.4914 -0.6169
11794TIP3    H156873   3.005   1.154   5.564  2.1601  0.3008 -1.2025
11794TIP3    H256874   3.138   1.149   5.636 -0.1623  1.2369  3.4806
11795TIP3   OH256875   4.721   4.102   0.383 -0.2138 -0.1343 -0.8134
11795TIP3    H156876   4.660   4.083   0.455  1.4222 -0.2145  0.6091
11795TIP3    H256877   4.710   4.195   0.367 -0.2205 -0.0012 -0.0831
11796TIP3   OH256878   3.619   0.166   2.671 -0.1047  0.0627  0.2546
11796TIP3    H156879   3.702   0.210   2.690  0.9169 -1.2548 -0.9412
11796TIP3    H256880   3.640   0.105   2.600 -2.4528  0.8409 -1.2200
11797TIP3   OH256881   1.592   6.177  13.734 -0.3652 -0.7391  0.0362
11797TIP3    H156882   1.513   6.138  13.698  1.0944 -1.5365 -2.5708
11797TIP3    H256883   1.603   6.259  13.687 -0.0776 -0.1946  1.0088
11798TIP3   OH256884   4.593   6.625  11.515  0.0318  0.5882  0.1122
11798TIP3    H156885   4.502   6.594  11.519  0.0239  0.6791  0.7028
11798TIP3    H256886   4.586   6.715  11.483 -0.0345  0.3824 -0.4639
11799TIP3   OH256887   6.379   1.956   4.550 -0.2599 -0.2608  0.7798
11799TIP3    H156888   6.466   1.991   4.569  0.0154 -0.5474  0.1028
11799TIP3    H256889   6.329   1.971   4.630  0.6584 -0.8831  1.4940
11800TIP3   OH256890   0.693   1.656   5.859  0.4666  0.5503 -0.6486
11800TIP3    H156891   0.717   1.617   5.943  0.1648  1.3651 -0.1789
11800TIP3    H256892   0.774   1.698   5.829  0.0225  2.1959  0.3267
11801TIP3   OH256893   1.926   0.479   0.488  0.5279  0.0860 -0.1016
11801TIP3    H156894   1.922   0.572   0.466 -0.5142  0.2949  0.8796
11801TIP3    H256895   1.895   0.474   0.578  1.2531 -1.1409  0.1030
11802TIP3   OH256896   5.672   3.752   4.958 -0.1518 -0.4855  0.2413
11802TIP3    H156897   5.726   3.785   5.029  0.2896  0.2115 -0.4031
11802TIP3    H256898   5.590   3.801   4.965  0.2056  0.1988 -0.2284
11803TIP3   OH256899   2.945   0.853   1.679  0.0408 -0.1244  0.5545
11803TIP3    H156900   3.029   0.807   1.676  0.4087  0.2612  3.1529
11803TIP3    H256901   2.956   0.926   1.617  1.2775 -0.6199  0.1586
11804TIP3   OH256902   6.558   5.727  12.391 -0.1919  0.0072 -0.0776
11804TIP3    H156903   6.560   5.804  12.448  0.2742  0.7387 -1.0574
11804TIP3    H256904   6.562   5.763  12.302  1.6106 -1.2069 -0.5287
11805TIP3   OH256905   4.076   5.865  13.657 -0.3478  0.5081  0.0889
11805TIP3    H156906   4.045   5.811  13.730 -0.3621  1.1899  0.5908
11805TIP3    H256907   4.129   5.805  13.604 -0.0496  0.0979  0.8423
11806TIP3   OH256908   1.723   2.130  14.435 -0.4533 -0.1135 -0.1705
11806TIP3    H156909   1.714   2.214  14.389 -0.1892  0.7532  1.2830
11806TIP3    H256910   1.812   2.102  14.416 -0.6858 -0.2991 -1.0248
11807TIP3   OH256911   0.123   3.476  11.981 -0.0453 -0.1082 -0.3144
11807TIP3    H156912   0.138   3.498  12.073  2.5836 -0.3823 -0.5834
11807TIP3    H256913   0.034   3.441  11.978 -0.5365  0.8127  1.9308
11808TIP3   OH256914   2.818   5.855   4.956  0.0486 -0.3552  0.5930
11808TIP3    H156915   2.871   5.932   4.974  0.0330 -0.5193  1.3504
11808TIP3    H256916   2.823   5.845   4.860  3.2709 -1.7129  0.7655
11809TIP3   OH256917   5.855   6.624  15.884 -0.1168  0.0020 -0.3139
11809TIP3    H156918   5.840   6.571  15.805 -0.2381 -0.1383 -0.1977
11809TIP3    H256919   5.922   6.577  15.932  2.0209  1.4992 -1.6550
11810TIP3   OH256920   2.128   4.125  12.343 -0.1635  0.2532  0.1256
11810TIP3    H156921   2.063   4.055  12.352 -0.7843  0.5282 -1.7510
11810TIP3    H256922   2.116   4.179  12.421  0.2323 -1.6185  1.5578
11811TIP3   OH256923   6.378   2.538   3.503 -0.2374  0.0356 -0.0734
11811TIP3    H156924   6.466   2.503   3.514 -0.6907 -0.6029  1.8192
11811TIP3    H256925   6.388   2.608   3.439  1.6260 -0.0878  0.0404
11812TIP3   OH256926   1.505   2.120  13.150  0.1649  0.1412 -0.5292
11812TIP3    H156927   1.595   2.130  13.179 -0.1208  1.5790 -0.0577
11812TIP3    H256928   1.458   2.192  13.192 -0.9000  0.3494 -2.0090
11813TIP3   OH256929   0.726   1.675  10.542  0.7188  0.8944  0.3633
11813TIP3    H156930   0.710   1.583  10.521  0.4850  0.5768  1.7919
11813TIP3    H256931   0.713   1.722  10.460  1.0938 -0.3724 -0.4441
11814TIP3   OH256932   2.530   2.998   2.702 -0.1678 -0.0011  0.0600
11814TIP3    H156933   2.564   3.057   2.635 -0.0328 -1.7764 -1.5349
11814TIP3    H256934   2.497   2.923   2.653  1.3220 -2.0999  2.0518
11815TIP3   OH256935   1.006   1.574   0.218  0.2672  0.1148  0.1200
11815TIP3    H156936   0.968   1.529   0.143  0.8496 -0.9375  0.4512
11815TIP3    H256937   1.094   1.599   0.190 -0.2722  1.6928 -0.3018
11816TIP3   OH256938   3.319   1.342   5.913  0.6757 -0.1248 -0.0110
11816TIP3    H156939   3.294   1.263   5.962  1.5251 -0.5464 -0.2377
11816TIP3    H256940   3.381   1.387   5.970  1.0199 -0.1798 -0.3379
11817TIP3   OH256941   0.991   3.782  11.011  0.0817  0.2108  0.0082
11817TIP3    H156942   0.918   3.762  10.953  0.4994 -1.7791  0.1050
11817TIP3    H256943   0.958   3.764  11.099 -1.2424  5.1412  0.8448
11818TIP3   OH256944   2.782   4.554  14.775 -0.0131 -0.0311  0.0013
11818TIP3    H156945   2.780   4.649  14.790  1.9355 -0.0538  0.7112
11818TIP3    H256946   2.798   4.545  14.681  2.5003  0.4556  0.3140
11819TIP3   OH256947   5.873   1.152   4.471  0.0075  0.2054  0.0253
11819TIP3    H156948   5.891   1.086   4.405 -3.0543  0.1975 -0.9335
11819TIP3    H256949   5.835   1.104   4.544  0.2961  0.6096  0.4504
11820TIP3   OH256950   4.886   3.621  17.096  0.1350 -0.0221  0.1078
11820TIP3    H156951   4.910   3.614  17.003 -0.6369  1.6965 -0.2586
11820TIP3    H256952   4.806   3.569  17.104  1.2883 -1.8534  0.2970
11821TIP3   OH256953   4.804   3.176   3.680  0.6080  0.4224  0.1198
11821TIP3    H156954   4.800   3.197   3.773  1.2195 -0.6348  0.3964
11821TIP3    H256955   4.898   3.167   3.661  0.4846  0.5282 -0.5742
11822TIP3   OH256956   0.435   0.002  15.086  0.3419  0.4196  0.0381
11822TIP3    H156957   0.460   0.005  15.179 -1.8480 -0.4466  0.7036
11822TIP3    H256958   0.448  -0.089  15.061  0.7612  0.6156 -0.4826
11823TIP3   OH256959   5.737   6.228   3.464 -0.3374 -0.1444 -0.0032
11823TIP3    H156960   5.816   6.252   3.415 -0.0754 -1.0119 -0.0259
11823TIP3    H256961   5.704   6.150   3.420 -2.4632  1.4176 -1.3293
11824TIP3   OH256962   5.474   3.190   1.844 -0.0606  0.1882 -0.5876
11824TIP3    H156963   5.516   3.264   1.801  1.1145 -0.1667 -0.0921
11824TIP3    H256964   5.397   3.227   1.886  1.4451  1.5395  1.1861
11825TIP3   OH256965   5.957   0.419   2.991  0.5531 -0.0422  0.2816
11825TIP3    H156966   5.972   0.507   2.957  0.5124 -0.4017 -0.6812
11825TIP3    H256967   6.027   0.366   2.954 -0.3873 -0.7657 -0.5395
11826TIP3   OH256968   6.609   6.171   1.835 -0.0769 -0.3409  0.4179
11826TIP3    H156969   6.691   6.128   1.813  0.3790  0.5316  0.3739
11826TIP3    H256970   6.542   6.119   1.791  0.4958 -0.7861  0.0636
11827TIP3   OH256971   6.345   3.522  17.045  0.2769  0.0956  0.6159
11827TIP3    H156972   6.415   3.587  17.038  2.2327 -1.8682  0.8872
11827TIP3    H256973   6.265   3.574  17.054  1.7447  2.4393  1.0461
11828TIP3   OH256974   3.599   1.369  16.824 -0.0553 -0.3052  0.0026
11828TIP3    H156975   3.532   1.351  16.758 -1.3604  1.3383  0.8020
11828TIP3    H256976   3.592   1.295  16.885  0.5512 -1.3713 -1.1551
11829TIP3   OH256977   3.917   5.062   4.657 -0.0184 -0.0448  0.4594
11829TIP3    H156978   3.969   5.067   4.737  0.9225  0.5002 -0.1604
11829TIP3    H256979   3.941   4.978   4.618 -0.0428 -0.0539  0.4635
11830TIP3   OH256980   4.861   3.455   2.103  0.1682  0.4618 -0.3161
11830TIP3    H156981   4.780   3.462   2.154  1.8680  1.8308  2.4211
11830TIP3    H256982   4.866   3.539   2.056 -0.5988 -0.1686 -1.5989
11831TIP3   OH256983   4.378   2.547  16.380  0.3658  0.0787 -0.7487
11831TIP3    H156984   4.456   2.602  16.384  1.4688 -1.3940 -1.3434
11831TIP3    H256985   4.337   2.557  16.466  1.6961  0.1510 -0.1156
11832TIP3   OH256986   2.359   6.145   4.843  0.0433 -0.3149  0.0018
11832TIP3    H156987   2.319   6.200   4.775 -0.8557 -1.7834 -0.7022
11832TIP3    H256988   2.333   6.056   4.820  0.5220 -0.9395  1.7487
11833TIP3   OH256989   1.614   4.154  15.323 -0.2649  0.1667  0.1670
11833TIP3    H156990   1.584   4.110  15.402 -0.6540  0.0095 -0.0646
11833TIP3    H256991   1.696   4.110  15.301 -0.4926 -0.2363  0.1121
11834TIP3   OH256992   5.214   0.943  14.500 -0.2126  0.1857  0.0859
11834TIP3    H156993   5.167   1.010  14.550 -3.2679 -1.1761 -0.6950
11834TIP3    H256994   5.181   0.860  14.536  2.1994 -0.9443 -0.0923
11835TIP3   OH256995   3.654   4.417   0.794 -0.2033  0.1079  0.0614
11835TIP3    H156996   3.691   4.495   0.753 -0.7284 -0.1398 -0.9149
11835TIP3    H256997   3.563   4.416   0.765 -0.7548  0.2043  1.6798
11836TIP3   OH256998   6.783   4.642  16.930  0.2401  0.4747  0.4015
11836TIP3    H156999   6.808   4.602  16.847  1.4227  0.1541  0.8872
11836TIP3    H257000   6.699   4.683  16.912 -0.4268 -1.1484 -0.4636
11837TIP3   OH257001   5.103   4.210   5.876 -0.1721  0.0106  0.2717
11837TIP3    H157002   5.149   4.265   5.939  0.3002  0.5584 -0.5333
11837TIP3    H257003   5.011   4.235   5.885  0.0152  0.8214  0.0435
11838TIP3   OH257004   1.385   4.321  14.256 -0.3370  0.2096 -0.5890
11838TIP3    H157005   1.440   4.397  14.274 -0.8642  0.7257 -1.1423
11838TIP3    H257006   1.330   4.347  14.182 -0.6455 -0.6466 -0.6785
11839TIP3   OH257007   2.578   0.444  15.859 -0.3295 -0.0248  0.1522
11839TIP3    H157008   2.516   0.429  15.930 -0.6717  0.5490 -0.0202
11839TIP3    H257009   2.574   0.538  15.843  0.8899  0.0908  0.4157
11840TIP3   OH257010   5.161   0.377  15.398  0.2055 -0.0327 -0.3033
11840TIP3    H157011   5.184   0.323  15.322  0.5918 -0.0609 -0.1660
11840TIP3    H257012   5.241   0.381  15.450  0.2637  0.9305 -0.4622
11841TIP3   OH257013   6.762   5.291  16.722 -0.5719  0.3283  0.4237
11841TIP3    H157014   6.694   5.285  16.655 -0.2583  1.1341  0.0171
11841TIP3    H257015   6.765   5.384  16.746  0.3447  0.3095  0.4497
11842TIP3   OH257016   3.027   5.282   6.072 -0.0284 -0.0068 -0.2510
11842TIP3    H157017   3.058   5.289   6.162  1.4291  0.0551 -0.7422
11842TIP3    H257018   2.932   5.290   6.079 -0.0559 -1.3440  1.4097
11843TIP3   OH257019   1.273   2.660   3.828  0.0052 -0.0548  0.1000
11843TIP3    H157020   1.287   2.724   3.898  1.7893  1.3080 -1.3908
11843TIP3    H257021   1.319   2.697   3.753 -2.1685 -1.2481 -1.9332
11844TIP3   OH257022   0.791   0.278  15.592 -0.0686 -0.1254  0.2033
11844TIP3    H157023   0.772   0.366  15.624  0.5279  1.0862 -2.5079
11844TIP3    H257024   0.760   0.278  15.501 -0.2084 -2.7986  0.1582
11845TIP3   OH257025   2.803   3.911  12.933 -0.2151 -0.1947  0.2337
11845TIP3    H157026   2.817   3.896  12.840  1.4346 -0.6750  0.5390
11845TIP3    H257027   2.780   3.824  12.968  1.6936 -0.5747  0.6719
11846TIP3   OH257028   5.093   5.954  15.142  0.0650 -0.1911 -0.2995
11846TIP3    H157029   5.026   5.927  15.204  0.1703 -1.9040 -0.8504
11846TIP3    H257030   5.159   5.884  15.147  0.1806 -0.2819 -2.1377
11847TIP3   OH257031   5.701   2.966   5.944  0.1614 -0.9086 -0.0824
11847TIP3    H157032   5.616   2.971   5.987 -0.4409  2.0199 -1.3699
11847TIP3    H257033   5.763   2.954   6.016 -0.9986  1.4831  1.4575
11848TIP3   OH257034   2.425   5.703   4.959  0.1762  0.0159 -0.5540
11848TIP3    H157035   2.483   5.726   5.032  1.3087 -0.5453 -1.2583
11848TIP3    H257036   2.431   5.608   4.953 -0.3809  0.0024 -1.0200
11849TIP3   OH257037   1.543   2.038   3.783  0.4633 -0.3648  0.7424
11849TIP3    H157038   1.456   2.041   3.744  1.1892  1.5068 -0.9132
11849TIP3    H257039   1.542   2.107   3.850  1.3612  1.5403 -1.0731
11850TIP3   OH257040   2.442   2.559  13.682  0.0244  0.3100 -0.1978
11850TIP3    H157041   2.468   2.506  13.606  0.2298  0.6926 -0.3998
11850TIP3    H257042   2.502   2.532  13.752 -0.0825  0.0472 -0.2049
11851TIP3   OH257043   2.112   6.835  10.698 -0.0440 -0.5603  0.0173
11851TIP3    H157044   2.118   6.925  10.730 -1.7494 -0.2088 -0.5741
11851TIP3    H257045   2.196   6.819  10.655  0.2482  0.7810  0.0601
11852TIP3   OH257046   4.955   3.102   0.783 -0.2607  0.4988  0.3867
11852TIP3    H157047   4.891   3.123   0.714 -0.2427  1.4015  0.6429
11852TIP3    H257048   4.901   3.073   0.857 -0.2679 -0.7641 -0.0885
11853TIP3   OH257049   3.855   0.810  12.087  0.2983  0.0749  0.0049
11853TIP3    H157050   3.821   0.821  12.175 -2.2471 -1.5349 -0.6697
11853TIP3    H257051   3.804   0.871  12.033  2.3317  1.5845 -0.3268
11854TIP3   OH257052   5.812   3.107  16.406  0.2977 -0.8367  0.3459
11854TIP3    H157053   5.884   3.168  16.414 -0.6211  0.5113 -1.0089
11854TIP3    H257054   5.785   3.088  16.496  0.3123  1.1429  0.8176
11855TIP3   OH257055   3.354   3.235  11.409  0.1714  0.7982  0.3385
11855TIP3    H157056   3.299   3.159  11.426  0.6913  0.3368  0.0181
11855TIP3    H257057   3.378   3.268  11.496  0.9498 -0.1572  0.5088
11856TIP3   OH257058   4.154   2.917   2.677 -0.4121  0.0655 -0.4478
11856TIP3    H157059   4.144   3.009   2.701 -0.3661 -0.1296  0.3458
11856TIP3    H257060   4.247   2.898   2.690 -0.3904 -0.0555 -0.7643
11857TIP3   OH257061   2.951   2.539  16.173  0.5918 -0.4629 -0.1454
11857TIP3    H157062   2.878   2.515  16.116  0.6273  0.5064 -0.6158
11857TIP3    H257063   3.025   2.551  16.114  1.1122 -1.3043  0.3155
11858TIP3   OH257064   3.074   6.384  10.856 -0.0081 -0.0188 -0.7907
11858TIP3    H157065   3.107   6.364  10.769  4.2362  0.8322  0.3923
11858TIP3    H257066   3.111   6.316  10.913 -2.9850 -0.7936  0.4436
11859TIP3   OH257067   5.593   0.406  15.241  0.6865 -0.7588  0.6459
11859TIP3    H157068   5.594   0.452  15.325 -0.5545 -0.1746  0.3623
11859TIP3    H257069   5.551   0.468  15.181  0.5899 -1.5884 -0.1572
11860TIP3   OH257070   4.152   0.786  15.080  0.8510  0.2782 -0.2464
11860TIP3    H157071   4.154   0.848  15.008  1.2373 -0.5074 -0.9215
11860TIP3    H257072   4.072   0.808  15.128  2.1776  2.8643  0.9704
11861TIP3   OH257073   3.436   4.145   6.278 -0.0387  0.6725 -0.6383
11861TIP3    H157074   3.529   4.169   6.281 -0.1411  0.9656  1.8593
11861TIP3    H257075   3.432   4.072   6.216  1.9629  0.1999 -0.2812
11862TIP3   OH257076   4.703   4.894   4.796  0.2176  0.2940  0.1830
11862TIP3    H157077   4.667   4.808   4.776  0.2693  0.3466 -0.1356
11862TIP3    H257078   4.738   4.885   4.885 -0.0154  0.0650  0.2516
11863TIP3   OH257079   4.128   3.866   2.856  0.1149 -1.0385  0.7806
11863TIP3    H157080   4.204   3.828   2.812 -0.3422 -0.1952 -0.8384
11863TIP3    H257081   4.163   3.935   2.912  0.4680  0.8561 -1.6097
11864TIP3   OH257082   1.335   4.309   4.846 -0.2656  0.1311 -0.1555
11864TIP3    H157083   1.374   4.235   4.892  1.8636  3.0652  3.3436
11864TIP3    H257084   1.275   4.348   4.910 -0.1856  2.2315 -1.2605
11865TIP3   OH257085   2.169   1.344   5.655  0.0639 -0.4216  0.1672
11865TIP3    H157086   2.232   1.416   5.659 -0.4704  0.0786 -0.3300
11865TIP3    H257087   2.091   1.382   5.615 -0.4307 -1.1305  0.4369
11866TIP3   OH257088   4.455   0.193   3.934 -0.0980  0.3179 -0.0493
11866TIP3    H157089   4.538   0.160   3.900 -0.6703  0.4231 -1.6210
11866TIP3    H257090   4.394   0.120   3.921 -0.1784  0.0565  1.5500
11867TIP3   OH257091   0.477   6.341  12.218 -0.4324 -0.1997  0.1650
11867TIP3    H157092   0.491   6.353  12.124  0.3016 -1.4084  0.0931
11867TIP3    H257093   0.495   6.427  12.256 -0.6279  0.2794 -0.7788
11868TIP3   OH257094   1.131   3.457   5.746  0.4869  0.2225 -0.3970
11868TIP3    H157095   1.154   3.380   5.693  0.9283  0.4266 -0.5105
11868TIP3    H257096   1.181   3.446   5.827 -1.2371 -0.7958  0.5872
11869TIP3   OH257097   4.379   6.116   5.877 -0.5074 -0.0572  0.7839
11869TIP3    H157098   4.313   6.053   5.908 -0.6781 -0.5989 -0.6166
11869TIP3    H257099   4.458   6.062   5.863 -0.6563  0.0178 -0.4270
11870TIP3   OH257100   1.313   1.115  14.120 -0.0843 -0.0051 -0.1805
11870TIP3    H157101   1.280   1.201  14.094  1.3833  0.3947 -0.7875
11870TIP3    H257102   1.319   1.120  14.216 -0.6531  0.3077 -0.1546
11871TIP3   OH257103   6.074   2.184   3.915 -0.7134  0.0668  0.4700
11871TIP3    H157104   6.128   2.261   3.900 -0.9972  0.3646  0.9849
11871TIP3    H257105   6.137   2.112   3.924 -0.4352  0.3002  0.3988
11872TIP3   OH257106   5.042   1.467  12.977 -0.0240 -0.1816 -0.3377
11872TIP3    H157107   4.975   1.430  12.920 -0.3468 -0.2638  0.0921
11872TIP3    H257108   5.009   1.554  13.000 -0.2240 -0.4084  0.2641
11873TIP3   OH257109   6.560   4.148  13.303  0.3051 -0.3384 -0.6806
11873TIP3    H157110   6.577   4.232  13.345 -2.8674 -0.2969  0.8531
11873TIP3    H257111   6.531   4.170  13.215 -3.1420  0.5693  0.5285
11874TIP3   OH257112   4.249   5.259   5.235  0.2228  0.2029 -0.2570
11874TIP3    H157113   4.187   5.187   5.226  0.2390 -0.1409  1.9174
11874TIP3    H257114   4.324   5.221   5.281  1.3094  1.0319 -1.2809
11875TIP3   OH257115   3.235   0.675   3.666 -0.9639  0.3660 -0.4591
11875TIP3    H157116   3.148   0.665   3.704  0.0271 -0.3454  1.8585
11875TIP3    H257117   3.295   0.656   3.739  1.1489  2.6039 -1.4708
11876TIP3   OH257118   1.766   5.171   3.519 -0.3025  0.1695 -0.0902
11876TIP3    H157119   1.680   5.154   3.558  0.5012 -1.4819  1.0780
11876TIP3    H257120   1.823   5.106   3.559  1.1121 -0.0322 -2.3058
11877TIP3   OH257121   5.233   1.129   4.918 -0.3658 -0.4628 -0.1388
11877TIP3    H157122   5.261   1.153   4.829 -0.5102 -0.1256 -0.0935
11877TIP3    H257123   5.138   1.124   4.913 -0.3596 -0.6707 -0.0569
11878TIP3   OH257124   3.438   2.106   0.282  0.2137 -0.1681  0.2222
11878TIP3    H157125   3.485   2.089   0.200 -1.3647  0.7854 -0.9437
11878TIP3    H257126   3.404   2.021   0.309 -1.4042 -0.1565 -1.5479
11879TIP3   OH257127   4.402   5.677   0.819  0.0845  0.3981  0.2309
11879TIP3    H157128   4.369   5.731   0.747 -0.9971 -0.1298  0.3089
11879TIP3    H257129   4.361   5.591   0.806  2.6128 -0.7854 -0.5104
11880TIP3   OH257130   6.113   4.424  16.029  0.0325 -0.3290  0.2210
11880TIP3    H157131   6.152   4.364  15.965 -2.1973 -1.9257  0.1882
11880TIP3    H257132   6.073   4.493  15.976 -1.6835 -1.5688 -0.1872
11881TIP3   OH257133   4.802   2.218   1.445 -0.1412 -0.0810 -0.3092
11881TIP3    H157134   4.726   2.177   1.487  0.4386 -0.0602  0.8105
11881TIP3    H257135   4.868   2.149   1.444 -0.0568  0.0071 -0.9564
11882TIP3   OH257136   6.584   5.679   0.441 -0.4129  0.2473  0.3356
11882TIP3    H157137   6.489   5.681   0.454 -0.9074 -0.0631 -2.5721
11882TIP3    H257138   6.595   5.688   0.347  2.4292 -1.1570  0.4485
11883TIP3   OH257139   5.459   2.125   2.865  0.1445 -0.6839  0.2063
11883TIP3    H157140   5.543   2.114   2.909 -0.1282 -0.5060  0.7773
11883TIP3    H257141   5.394   2.111   2.933 -0.2653  0.4368  0.0640
11884TIP3   OH257142   5.403   3.807   2.185  0.2157 -0.9081  0.1828
11884TIP3    H157143   5.472   3.842   2.241  0.7539 -0.4026 -0.7885
11884TIP3    H257144   5.388   3.874   2.119 -0.8080 -1.2575  0.0337
11885TIP3   OH257145   0.395   4.450  12.038 -0.6462 -0.0507 -0.1961
11885TIP3    H157146   0.315   4.411  12.002 -1.8496  1.6992  0.4357
11885TIP3    H257147   0.458   4.378  12.039 -2.3130 -1.6050 -0.3612
11886TIP3   OH257148   4.929   0.263   4.940  0.0757  0.1857 -0.3786
11886TIP3    H157149   4.862   0.282   4.875 -0.2562  1.8240  0.3748
11886TIP3    H257150   4.882   0.221   5.012 -0.2367  1.5775  0.2640
11887TIP3   OH257151   0.353   0.186   1.346 -0.5669  0.3645 -0.4858
11887TIP3    H157152   0.305   0.200   1.264  1.0090 -1.3938 -1.7909
11887TIP3    H257153   0.437   0.151   1.318  0.9462  1.9546  1.8193
11888TIP3   OH257154   0.097   1.607   0.775  0.8246  0.5356  0.3357
11888TIP3    H157155   0.170   1.555   0.741 -0.5794  0.3044 -2.6041
11888TIP3    H257156   0.134   1.652   0.852  3.2551 -1.5564  0.5303
11889TIP3   OH257157   0.722   5.157   2.928 -0.4539 -0.2191 -0.2372
11889TIP3    H157158   0.798   5.103   2.947 -0.2659  0.0522 -0.2031
11889TIP3    H257159   0.758   5.244   2.911 -0.6682 -0.3237 -1.2723
11890TIP3   OH257160   6.809   2.236   3.510  0.2266  0.0393  0.0177
11890TIP3    H157161   6.864   2.182   3.568 -0.2243 -2.5240 -1.7797
11890TIP3    H257162   6.861   2.245   3.430 -0.8281 -0.0454 -0.6885
11891TIP3   OH257163   1.737   2.898  11.807 -0.4191 -0.2520 -0.4855
11891TIP3    H157164   1.767   2.922  11.719 -1.0301 -0.5762 -0.7873
11891TIP3    H257165   1.716   2.805  11.801  1.9800 -0.9690  0.6884
11892TIP3   OH257166   4.629   6.604  12.791 -0.0402 -0.7339  0.3491
11892TIP3    H157167   4.588   6.520  12.815  0.9379 -1.4944 -0.5460
11892TIP3    H257168   4.558   6.655  12.753 -0.7238 -1.0179  1.1975
11893TIP3   OH257169   2.074   1.662  14.994  0.1564  0.2155 -0.3251
11893TIP3    H157170   2.017   1.722  14.945 -0.2811 -1.1224 -1.5428
11893TIP3    H257171   2.042   1.666  15.084 -1.5785 -0.1449 -0.8872
11894TIP3   OH257172   2.900   2.136  17.059  0.8130 -0.5866 -0.4730
11894TIP3    H157173   2.929   2.133  16.967  0.2296  2.0109 -0.7972
11894TIP3    H257174   2.843   2.059  17.068 -0.9220  0.2844 -2.9793
11895TIP3   OH257175   5.852   2.267   4.157  0.5938 -0.2900  0.2403
11895TIP3    H157176   5.928   2.294   4.104 -0.1375 -0.9280 -1.1931
11895TIP3    H257177   5.782   2.325   4.129 -0.3151 -1.8866 -0.9885
11896TIP3   OH257178   2.471   3.332   2.262 -0.0604  0.2965 -0.1853
11896TIP3    H157179   2.392   3.356   2.213  0.7066 -0.7388 -2.0236
11896TIP3    H257180   2.524   3.412   2.263 -2.1858  1.8613  3.4578
11897TIP3   OH257181   6.015   0.300  15.615  0.3903  0.0012  0.5595
11897TIP3    H157182   6.041   0.377  15.564  1.1865 -0.1290  0.7562
11897TIP3    H257183   6.083   0.236  15.598 -0.6307 -0.9270 -0.1466
11898TIP3   OH257184   5.373   5.751   3.677 -0.5975 -0.3376 -0.0450
11898TIP3    H157185   5.424   5.681   3.718 -0.1825 -0.8612 -1.4042
11898TIP3    H257186   5.282   5.723   3.686 -0.4801 -0.6805  0.1029
11899TIP3   OH257187   3.852   6.370   4.000 -0.2448  0.3106 -0.3462
11899TIP3    H157188   3.913   6.342   4.068 -0.6064  3.0232  1.2497
11899TIP3    H257189   3.907   6.394   3.926  0.2384 -1.6191 -0.6497
11900TIP3   OH257190   6.289   4.612  13.412  0.1578  0.0802 -0.2487
11900TIP3    H157191   6.380   4.583  13.405  0.5138  1.4242 -1.8475
11900TIP3    H257192   6.270   4.612  13.505  2.0561  0.5588  0.1647
11901TIP3   OH257193   4.476   3.176   2.126  0.2287 -0.4487  0.1432
11901TIP3    H157194   4.567   3.185   2.098  0.6444 -2.3046  0.7887
11901TIP3    H257195   4.479   3.189   2.220 -0.4160  0.8004  0.0196
11902TIP3   OH257196   2.663   5.618   3.860 -0.1109  0.1109 -0.0356
11902TIP3    H157197   2.651   5.594   3.952 -0.6066 -0.8385 -0.3293
11902TIP3    H257198   2.701   5.705   3.863 -0.4015  0.2236  1.0693
11903TIP3   OH257199   1.179   4.557  10.752  0.3149  0.1083  0.1250
11903TIP3    H157200   1.176   4.624  10.683 -0.5091  0.3341  0.3646
11903TIP3    H257201   1.128   4.595  10.824 -0.8931 -1.1086 -0.0537
11904TIP3   OH257202   6.030   1.870  11.696  0.4576  0.3925  0.4220
11904TIP3    H157203   6.089   1.795  11.699  1.5994  1.1987 -0.8329
11904TIP3    H257204   5.955   1.840  11.646  0.4717 -0.1967  0.7523
11905TIP3   OH257205   2.210   5.950  11.283  0.4066 -0.3663  0.5036
11905TIP3    H157206   2.214   5.865  11.239  0.2057  0.7839 -1.9014
11905TIP3    H257207   2.295   5.991  11.263 -0.1347  0.6377  0.1867
11906TIP3   OH257208   2.289   5.631  14.572 -0.2288  0.3765  0.3136
11906TIP3    H157209   2.293   5.630  14.476 -0.2672  1.4154  0.2991
11906TIP3    H257210   2.201   5.661  14.593 -0.0153  0.7648  0.6729
11907TIP3   OH257211   3.135   1.276  12.257 -0.0780  0.2473  0.0494
11907TIP3    H157212   3.175   1.353  12.298  0.5623 -1.2119  2.3781
11907TIP3    H257213   3.052   1.264  12.302 -0.7461  0.2383 -1.1395
11908TIP3   OH257214   0.596   4.075  11.684  0.2843 -0.2477  0.0785
11908TIP3    H157215   0.674   4.061  11.737 -0.2492  1.7471  1.4879
11908TIP3    H257216   0.528   4.022  11.728  0.1821  0.2895  0.5852
11909TIP3   OH257217   3.171   5.468  14.167  0.5907  0.5939  0.3022
11909TIP3    H157218   3.219   5.543  14.202  1.6266  1.1401 -2.0877
11909TIP3    H257219   3.225   5.436  14.095  0.4060 -2.8000  1.4981
11910TIP3   OH257220   4.244   4.217  16.071  0.1778  0.1210  0.2677
11910TIP3    H157221   4.296   4.270  16.010 -1.1845  1.1120 -0.1017
11910TIP3    H257222   4.184   4.168  16.014 -0.9424  0.8707  0.7543
11911TIP3   OH257223   3.760   5.295   4.721  0.2487 -0.0539  0.5803
11911TIP3    H157224   3.827   5.231   4.701  0.8485  0.6745  0.1953
11911TIP3    H257225   3.711   5.305   4.640  0.4841  0.3421  0.4818
11912TIP3   OH257226   0.596   3.639   6.100 -0.2853 -0.3521 -0.0887
11912TIP3    H157227   0.516   3.649   6.049  0.3172  0.0349 -0.9866
11912TIP3    H257228   0.655   3.589   6.043  0.7483  0.9225 -0.1907
11913TIP3   OH257229   4.275   0.153  12.592  0.4583  0.1698 -0.2083
11913TIP3    H157230   4.347   0.105  12.552 -0.3076 -1.0671 -0.1524
11913TIP3    H257231   4.228   0.192  12.519 -0.5415 -1.5201 -0.5079
11914TIP3   OH257232   2.247   5.442  16.823  0.1619 -0.1526 -0.5187
11914TIP3    H157233   2.303   5.365  16.821  1.1717  0.4222  1.8196
11914TIP3    H257234   2.297   5.509  16.776  0.9942  0.0533  0.6148
11915TIP3   OH257235   1.245   5.118   0.442 -0.4551  0.2530 -0.4411
11915TIP3    H157236   1.232   5.172   0.364  0.6811  1.7201  0.3155
11915TIP3    H257237   1.311   5.166   0.492 -0.6668 -1.0035  1.0998
11916TIP3   OH257238   5.945   2.447   2.336  0.0006 -0.3273 -0.0041
11916TIP3    H157239   5.885   2.476   2.266 -1.4947  1.9673  2.0446
11916TIP3    H257240   5.903   2.370   2.373 -1.1777  0.5937  0.6655
11917TIP3   OH257241   3.868   6.511   3.451 -0.5543 -0.3135 -0.4572
11917TIP3    H157242   3.815   6.518   3.531 -1.2029  0.8733 -0.9721
11917TIP3    H257243   3.888   6.602   3.428 -1.2522 -0.5756 -2.2136
11918TIP3   OH257244   6.752   3.995  13.148  0.3158 -0.4343  0.3402
11918TIP3    H157245   6.779   3.923  13.092 -0.4902  0.3490 -1.1056
11918TIP3    H257246   6.657   4.001  13.136  0.3324  0.6864  0.6588
11919TIP3   OH257247   3.094   0.632   1.184  0.8195  0.3428  0.0342
11919TIP3    H157248   3.051   0.588   1.110  0.4991 -0.1396  0.4995
11919TIP3    H257249   3.061   0.721   1.182  2.7169  1.0977 -1.9271
11920TIP3   OH257250   2.250   2.979   2.777 -0.4718 -0.6723  0.1944
11920TIP3    H157251   2.338   2.942   2.786  0.3856  1.6353  2.6299
11920TIP3    H257252   2.193   2.916   2.822  0.2743 -1.1567  0.4818
11921TIP3   OH257253   0.290   2.679  14.598 -0.3208 -0.6748  0.5448
11921TIP3    H157254   0.342   2.659  14.520 -1.1233  1.8183 -0.7122
11921TIP3    H257255   0.206   2.636  14.583 -0.3580 -0.4822  0.2079
11922TIP3   OH257256   3.955   6.491   1.785  0.2742  0.6854  0.4204
11922TIP3    H157257   3.860   6.490   1.800  0.1363  0.2814 -0.4540
11922TIP3    H257258   3.978   6.584   1.788 -1.0261  1.4246 -4.4574
11923TIP3   OH257259   6.403   5.346  14.816  0.0059 -0.4534  0.1286
11923TIP3    H157260   6.431   5.271  14.868 -1.3633 -0.6048  0.6962
11923TIP3    H257261   6.443   5.422  14.859  1.2906 -0.8248 -0.3764
11924TIP3   OH257262   0.773   3.816   4.413  0.2044 -0.6503  0.3780
11924TIP3    H157263   0.743   3.906   4.402 -1.2295 -1.2550 -1.2557
11924TIP3    H257264   0.734   3.769   4.339  2.4990 -2.2420  0.0748
11925TIP3   OH257265   5.315   3.874   5.256 -0.4008  0.0110 -0.1472
11925TIP3    H157266   5.229   3.838   5.233 -0.8150  0.1212  1.1264
11925TIP3    H257267   5.298   3.967   5.271 -0.1400 -0.0334  0.4503
11926TIP3   OH257268   2.138   0.623   3.973  0.6070 -0.3276 -0.0522
11926TIP3    H157269   2.142   0.698   3.913 -1.1070  0.0465  0.2702
11926TIP3    H257270   2.159   0.661   4.059  3.2187 -0.8890 -0.3365
11927TIP3   OH257271   5.534   4.066  14.241  0.7211 -0.1187  0.3463
11927TIP3    H157272   5.558   4.131  14.306  0.9842 -0.9969  1.1500
11927TIP3    H257273   5.440   4.053  14.253  0.2011  1.6409 -1.2608
11928TIP3   OH257274   6.432   4.535  15.020 -0.2140  0.0087 -0.4038
11928TIP3    H157275   6.469   4.469  14.961  1.1844  0.9500 -0.6312
11928TIP3    H257276   6.477   4.522  15.103 -0.6424  0.0584 -0.1578
11929TIP3   OH257277   3.333   1.099  15.820 -0.7677 -0.5236  0.1009
11929TIP3    H157278   3.428   1.099  15.814 -0.6955 -0.8511  0.9996
11929TIP3    H257279   3.307   1.011  15.794 -1.0307  0.2543 -2.4734
11930TIP3   OH257280   5.353   3.259  15.664  0.6937  0.6993 -0.3546
11930TIP3    H157281   5.386   3.201  15.733 -1.3132  0.6229  0.6318
11930TIP3    H257282   5.308   3.329  15.711 -0.2841  0.9278 -1.5777
11931TIP3   OH257283   4.341   0.414   4.610  0.4217  0.2090  0.5045
11931TIP3    H157284   4.425   0.418   4.656  1.1917 -0.0479 -0.8271
11931TIP3    H257285   4.357   0.356   4.536 -1.3029 -0.8715  0.9336
11932TIP3   OH257286   5.338   4.244  13.282  0.3497  0.3852 -0.6654
11932TIP3    H157287   5.350   4.249  13.377 -0.2601 -0.9041 -0.4969
11932TIP3    H257288   5.254   4.287  13.266  1.3747  2.4730 -0.9209
11933TIP3   OH257289   4.111   0.832   4.137 -0.2257  0.1616  0.2920
11933TIP3    H157290   4.185   0.871   4.182 -1.3854  3.4696 -0.4285
11933TIP3    H257291   4.135   0.740   4.126  3.9603  1.1544 -0.2914
11934TIP3   OH257292   3.026   5.946   2.666  0.1252  0.2218 -0.1549
11934TIP3    H157293   3.057   6.035   2.646  1.2094  0.9834  3.9358
11934TIP3    H257294   2.933   5.957   2.687  0.0121  0.1715 -0.6124
11935TIP3   OH257295   4.500   5.064  16.047 -0.0877  0.3507 -0.3002
11935TIP3    H157296   4.561   5.062  15.974 -0.0171  0.2322 -0.2377
11935TIP3    H257297   4.442   4.989  16.033 -1.1068  1.2513 -1.1136
11936TIP3   OH257298   5.012   1.023   2.900  0.3988  0.7844  0.3591
11936TIP3    H157299   5.079   1.083   2.930 -0.0422  0.7419  1.4722
11936TIP3    H257300   5.057   0.967   2.836  1.6277  0.2771  1.6201
11937TIP3   OH257301   4.787   2.824  15.787 -0.0301 -0.3228  0.2860
11937TIP3    H157302   4.748   2.738  15.769 -0.8796  0.5069 -2.3023
11937TIP3    H257303   4.732   2.861  15.856  1.9645 -2.7969  3.5325
11938TIP3   OH257304   6.192   5.224   5.793 -0.7567  0.0420  0.0418
11938TIP3    H157305   6.210   5.250   5.883 -0.3518 -2.2572  0.6954
11938TIP3    H257306   6.116   5.166   5.800  1.5254 -3.3250 -0.4167
11939TIP3   OH257307   3.504   2.853   2.365  0.1973 -0.2797  0.3802
11939TIP3    H157308   3.589   2.887   2.393 -0.1811 -0.1614  1.4257
11939TIP3    H257309   3.447   2.930   2.361  0.0683 -0.3943 -0.0538
11940TIP3   OH257310   2.482   0.272  14.596  0.1618  0.3298  0.0460
11940TIP3    H157311   2.475   0.367  14.587  1.5657  0.5110  0.5809
11940TIP3    H257312   2.452   0.238  14.512 -0.6040  1.2250 -0.0593
11941TIP3   OH257313   3.467   0.273   0.130  0.2850  0.7044  0.0305
11941TIP3    H157314   3.377   0.264   0.098  0.5314 -0.4545 -0.4046
11941TIP3    H257315   3.518   0.297   0.052  0.7384 -1.2026 -0.3107
11942TIP3   OH257316   4.556   2.775  16.442  0.1332 -0.3258  0.7451
11942TIP3    H157317   4.633   2.801  16.492 -0.9868  0.2216  2.2374
11942TIP3    H257318   4.538   2.850  16.384  1.2309 -0.8265 -0.2808
11943TIP3   OH257319   0.481   6.746   0.378 -0.1771  0.4483  0.5469
11943TIP3    H157320   0.540   6.672   0.388  0.2261  0.5701 -0.7551
11943TIP3    H257321   0.448   6.739   0.289 -2.2807  0.2953  1.2787
11944TIP3   OH257322   3.883   3.168   4.591 -0.3091 -0.1859 -0.0070
11944TIP3    H157323   3.824   3.226   4.639  0.1289  0.6554 -0.4823
11944TIP3    H257324   3.863   3.184   4.499 -0.9296 -1.5709 -0.1437
11945TIP3   OH257325   1.748   5.048   5.939  0.1210  0.3190  0.6138
11945TIP3    H157326   1.756   5.015   6.029 -0.5971 -1.3110  0.1036
11945TIP3    H257327   1.656   5.072   5.930  0.2525  0.7554  0.3897
11946TIP3   OH257328   5.670   5.439  12.675  0.3468  0.3146 -0.3286
11946TIP3    H157329   5.730   5.369  12.648  0.1534 -0.1027  0.3216
11946TIP3    H257330   5.670   5.436  12.770 -0.9564  0.0873 -0.3121
11947TIP3   OH257331   5.100   5.987  13.051  0.2328  0.3205 -0.1268
11947TIP3    H157332   5.042   5.989  12.975 -0.0143 -0.6205  0.0287
11947TIP3    H257333   5.060   6.048  13.113 -0.5946 -0.3080 -0.0275
11948TIP3   OH257334   1.309   3.293  16.643  0.4965 -0.7043  0.1330
11948TIP3    H157335   1.224   3.256  16.664  1.0369 -1.0186  1.8780
11948TIP3    H257336   1.359   3.289  16.725  2.2939 -0.8067 -0.9051
11949TIP3   OH257337   4.694   3.266   1.689 -0.3568 -0.0501  0.0208
11949TIP3    H157338   4.771   3.307   1.649 -0.0651 -0.9707 -0.3893
11949TIP3    H257339   4.690   3.302   1.778  0.6443 -0.1220  0.0982
11950TIP3   OH257340   3.679   5.957   0.574 -0.5145 -0.4503  0.1778
11950TIP3    H157341   3.584   5.965   0.570 -1.0511 -1.6985  4.8594
11950TIP3    H257342   3.707   6.028   0.632  0.9530 -1.8352  1.2760
11951TIP3   OH257343   6.267   5.508  11.021 -0.4287  0.0727  0.7844
11951TIP3    H157344   6.176   5.523  11.046  0.1275  2.3933  1.7242
11951TIP3    H257345   6.275   5.549  10.934 -0.6316 -1.5712 -0.0402
11952TIP3   OH257346   2.245   0.407   1.911 -0.2833 -0.1410  0.4963
11952TIP3    H157347   2.295   0.424   1.831  0.4174 -2.8094  0.2727
11952TIP3    H257348   2.163   0.455   1.899 -0.8028 -1.5641 -2.5075
11953TIP3   OH257349   1.723   3.404   3.983 -0.5952 -0.1114  0.0507
11953TIP3    H157350   1.669   3.417   4.061  0.8138  0.0800  1.0255
11953TIP3    H257351   1.692   3.469   3.920  0.1042  1.6799  1.4796
11954TIP3   OH257352   3.464   5.784   1.829  0.0273  0.3530  0.0363
11954TIP3    H157353   3.382   5.784   1.779  1.0835 -1.0189 -1.8074
11954TIP3    H257354   3.469   5.696   1.867 -0.0774  0.9331  1.4695
11955TIP3   OH257355   2.727   1.298  15.437 -0.3262  0.0154  0.3806
11955TIP3    H157356   2.770   1.265  15.359 -2.3111  0.6846 -1.0755
11955TIP3    H257357   2.797   1.308  15.501  1.1622 -1.6689 -0.9110
11956TIP3   OH257358   5.071   3.518   6.095  0.9242  0.3427 -1.2622
11956TIP3    H157359   5.150   3.572   6.104  0.4764  0.6970  1.4627
11956TIP3    H257360   5.103   3.428   6.094  1.4083  0.5070 -0.9378
11957TIP3   OH257361   0.459   4.751   1.121 -0.1834  0.0813 -0.0486
11957TIP3    H157362   0.405   4.671   1.121 -0.2306  0.1091 -0.6372
11957TIP3    H257363   0.507   4.746   1.204 -1.0771  0.0520  0.4927
11958TIP3   OH257364   6.456   1.989   1.294 -0.0846  0.3286  0.1855
11958TIP3    H157365   6.536   2.037   1.272 -0.0900  0.7486  1.0451
11958TIP3    H257366   6.474   1.949   1.379 -0.1559 -1.0490 -0.4191
11959TIP3   OH257367   3.274   0.431   1.208  0.7350 -0.2033 -0.4430
11959TIP3    H157368   3.216   0.495   1.166  1.2997  0.6259  0.0059
11959TIP3    H257369   3.276   0.457   1.300 -1.9004 -3.0418  0.5907
11960TIP3   OH257370   1.973   0.256  15.543 -0.2400  0.6475 -0.5646
11960TIP3    H157371   1.936   0.249  15.631 -0.0684  3.6600 -0.1245
11960TIP3    H257372   2.056   0.210  15.547 -0.5766  0.1240  0.6301
11961TIP3   OH257373   3.928   3.760   5.789  0.0986 -0.2993  0.0254
11961TIP3    H157374   3.996   3.775   5.854  0.6224 -1.7309 -0.1382
11961TIP3    H257375   3.894   3.847   5.769  2.4937  0.6052 -0.5468
11962TIP3   OH257376   3.793   6.662   1.234 -0.5707 -0.2274  0.2539
11962TIP3    H157377   3.743   6.626   1.307 -0.6152  2.4202  1.6706
11962TIP3    H257378   3.885   6.656   1.262 -0.5103 -0.1364  0.0776
11963TIP3   OH257379   2.864   6.195   1.998  0.1282  0.2112  0.1882
11963TIP3    H157380   2.776   6.199   1.960  0.5290  2.7003 -0.6738
11963TIP3    H257381   2.909   6.271   1.961  2.5637 -0.8288  0.8456
11964TIP3   OH257382   0.334   2.180   0.018 -0.3865  0.3848  0.1198
11964TIP3    H157383   0.314   2.134   0.099  1.8668 -0.0077  0.5121
11964TIP3    H257384   0.406   2.130  -0.021  0.4613  2.1420 -0.6881
11965TIP3   OH257385   0.229   2.027  15.648  0.2405 -0.3295  0.3826
11965TIP3    H157386   0.142   1.988  15.653  0.1087 -0.4716 -2.0303
11965TIP3    H257387   0.239   2.054  15.557  3.1645 -1.3394  0.2851
11966TIP3   OH257388   3.093   6.644  15.784  0.6578 -0.2354 -0.7218
11966TIP3    H157389   3.013   6.639  15.836  0.8964  1.3881 -0.1322
11966TIP3    H257390   3.162   6.656  15.850  0.9800  1.7691 -1.3434
11967TIP3   OH257391   2.384   1.793   1.685 -0.0402 -0.3281  0.0098
11967TIP3    H157392   2.446   1.720   1.691 -0.2241 -0.5264 -0.4416
11967TIP3    H257393   2.362   1.813   1.776 -0.3873 -1.1808  0.1190
11968TIP3   OH257394   0.878   3.643   5.211  0.6115  0.1590  0.2515
11968TIP3    H157395   0.885   3.622   5.304  0.3240 -0.6785  0.0959
11968TIP3    H257396   0.848   3.734   5.208 -0.2542 -0.0908  0.9823
11969TIP3   OH257397   3.272   3.728  11.136 -0.4228  0.2724  0.3448
11969TIP3    H157398   3.347   3.784  11.118 -1.2283  1.0340 -0.7280
11969TIP3    H257399   3.238   3.760  11.219 -0.6837  1.1697 -0.1034
11970TIP3   OH257400   1.264   3.807   5.945  0.3345 -0.0078  0.4023
11970TIP3    H157401   1.248   3.888   5.993  2.6615  0.9979 -0.3540
11970TIP3    H257402   1.314   3.752   6.005  1.2644  0.3339 -0.0262
11971TIP3   OH257403   4.648   0.672   6.605 -1.0070  0.3691  0.2418
11971TIP3    H157404   4.589   0.603   6.575 -1.4642  1.2308 -0.9588
11971TIP3    H257405   4.736   0.636   6.594 -1.2723 -0.6091  1.2102
11972TIP3   OH257406   1.759   0.833  15.428  0.1915  0.1124 -0.1640
11972TIP3    H157407   1.811   0.841  15.348  1.3322  0.3772  0.5772
11972TIP3    H257408   1.682   0.782  15.402  0.2894  0.6137 -1.5346
11973TIP3   OH257409   4.575   2.526  13.585  0.0808 -0.4941  0.3621
11973TIP3    H157410   4.643   2.577  13.629 -1.6360  0.3116  2.2723
11973TIP3    H257411   4.610   2.438  13.579  0.9617 -0.3048  2.1407
11974TIP3   OH257412   4.930   0.061  13.320  0.0048 -0.0288 -0.3600
11974TIP3    H157413   4.897   0.143  13.284  0.0825  0.2727  0.2371
11974TIP3    H257414   4.851   0.012  13.346 -0.1288 -0.8578 -2.1821
11975TIP3   OH257415   2.156   3.335  14.484 -0.4142  0.3843  0.4539
11975TIP3    H157416   2.161   3.412  14.428  0.0514  0.0642  0.0373
11975TIP3    H257417   2.076   3.347  14.535 -0.1610  1.3153  0.6573
11976TIP3   OH257418   5.491   2.683  11.942  0.3066 -0.0932  0.2632
11976TIP3    H157419   5.456   2.770  11.925 -0.1991 -0.0408  1.5014
11976TIP3    H257420   5.553   2.668  11.871  2.4463  2.3916  1.4483
11977TIP3   OH257421   6.645   2.641  15.315 -0.0686 -0.3088 -0.0910
11977TIP3    H157422   6.552   2.627  15.336  0.5695  0.8079  4.5880
11977TIP3    H257423   6.650   2.734  15.292  0.0182 -0.0421  0.9614
11978TIP3   OH257424   0.902   5.089  10.927  0.0060  0.1071  0.0266
11978TIP3    H157425   0.933   5.060  10.841 -0.0574 -0.4744  0.1937
11978TIP3    H257426   0.834   5.026  10.950 -0.2402  0.4858  0.3344
11979TIP3   OH257427   2.206   1.370   3.285  0.1688  0.3785 -0.1259
11979TIP3    H157428   2.260   1.294   3.260 -1.2068 -0.2972 -1.1846
11979TIP3    H257429   2.154   1.338   3.359  2.7742  1.7526  2.5177
11980TIP3   OH257430   1.912   5.085  14.254 -0.0539  0.0691  0.4079
11980TIP3    H157431   1.821   5.066  14.230 -0.1552  0.6363  0.3341
11980TIP3    H257432   1.964   5.021  14.206 -0.2722  0.9399 -1.0534
11981TIP3   OH257433   1.524   0.515   0.117  0.4145  0.1804 -0.2544
11981TIP3    H157434   1.451   0.576   0.130 -0.9014 -1.5867  1.0541
11981TIP3    H257435   1.506   0.443   0.176  3.0350 -0.5389 -0.2073
11982TIP3   OH257436   5.251   6.272   3.710 -0.1365 -0.5002  0.3036
11982TIP3    H157437   5.285   6.194   3.754 -0.4623 -1.1199 -0.5270
11982TIP3    H257438   5.319   6.297   3.648  0.5478  0.6819  1.4880
11983TIP3   OH257439   1.396   2.222  13.790  0.3542 -0.0780  0.0720
11983TIP3    H157440   1.321   2.163  13.785 -0.0378  0.4006  0.2801
11983TIP3    H257441   1.363   2.306  13.759  1.3293 -0.3414 -1.7825
11984TIP3   OH257442   3.376   2.037   3.312 -0.1207  0.9291  0.1370
11984TIP3    H157443   3.358   2.094   3.237  1.4039  0.3080 -0.7551
11984TIP3    H257444   3.463   2.062   3.341 -0.5813  0.9621  1.5585
11985TIP3   OH257445   0.481   0.700   4.103 -0.7762 -0.0793 -0.7869
11985TIP3    H157446   0.411   0.762   4.124 -0.8661 -0.1615 -0.8443
11985TIP3    H257447   0.494   0.650   4.183 -2.0611 -1.3289 -1.3105
11986TIP3   OH257448   3.086   4.080  13.608  0.8416  0.6742  0.0586
11986TIP3    H157449   3.049   4.156  13.563 -1.1587 -0.8039 -0.9418
11986TIP3    H257450   3.115   4.022  13.538  0.8679 -0.1876  0.7655
11987TIP3   OH257451   5.137   5.615  17.009 -0.2698 -0.2998 -0.3292
11987TIP3    H157452   5.068   5.595  17.072  0.2804  0.0143  0.3781
11987TIP3    H257453   5.128   5.709  16.993 -0.0101 -0.2609 -0.2445
11988TIP3   OH257454   1.984   3.830   0.253 -0.2514 -0.4098  0.3791
11988TIP3    H157455   2.039   3.857   0.179 -0.4102 -1.0082  0.0342
11988TIP3    H257456   1.981   3.907   0.310  1.3772 -0.5361  0.6784
11989TIP3   OH257457   5.778   2.370  14.001 -0.4337 -0.1996 -0.1839
11989TIP3    H157458   5.825   2.287  14.008  0.4076  0.3173  0.5638
11989TIP3    H257459   5.708   2.363  14.065 -1.4304 -0.9733 -1.3010
11990TIP3   OH257460   4.808   6.430   6.029 -0.0355  0.5174 -0.8190
11990TIP3    H157461   4.744   6.375   5.984 -1.3789  1.4862 -0.1562
11990TIP3    H257462   4.890   6.381   6.025 -0.9173 -0.9476 -1.3203
11991TIP3   OH257463   4.594   4.387   6.251 -0.5585 -0.1657  0.1785
11991TIP3    H157464   4.624   4.477   6.242  1.0084 -0.5687  1.1130
11991TIP3    H257465   4.511   4.385   6.203 -0.6607  1.7797  0.1977
11992TIP3   OH257466   1.786   1.327  11.288  0.1085  0.1612 -0.0188
11992TIP3    H157467   1.854   1.315  11.222 -0.0051  0.6109 -0.2203
11992TIP3    H257468   1.706   1.294  11.247 -0.0440  0.8223 -0.2683
11993TIP3   OH257469   3.421   4.376   4.775 -0.5190  0.2476 -0.4784
11993TIP3    H157470   3.487   4.313   4.745  1.2992  1.9457 -0.3013
11993TIP3    H257471   3.394   4.343   4.860 -1.5805 -1.6444 -1.4880
11994TIP3   OH257472   6.674   5.936   2.855  0.0013 -0.0538  0.5682
11994TIP3    H157473   6.734   5.949   2.929 -0.8278  0.8621  1.1120
11994TIP3    H257474   6.616   6.012   2.859 -2.7868 -2.0889  1.5848
11995TIP3   OH257475   3.597   3.111   5.403  0.0368 -0.4252 -0.6143
11995TIP3    H157476   3.635   3.024   5.413  0.2851 -0.3172 -0.5969
11995TIP3    H257477   3.667   3.163   5.363 -0.6392 -0.6289 -2.1295
11996TIP3   OH257478   1.577   1.081  11.944  0.2283  0.4243 -0.6717
11996TIP3    H157479   1.492   1.086  11.989  0.3309 -0.0891 -0.4063
11996TIP3    H257480   1.640   1.105  12.012  0.3013  0.7595 -0.8570
11997TIP3   OH257481   3.403   2.940  11.133  0.3878 -0.6741 -0.7686
11997TIP3    H157482   3.323   2.981  11.101 -0.5731 -2.0170 -0.1740
11997TIP3    H257483   3.443   2.901  11.055 -0.2090 -1.0825 -0.8809
11998TIP3   OH257484   2.061   3.342   2.157 -0.0838  0.8982  0.1385
11998TIP3    H157485   1.969   3.331   2.182  0.0272 -0.8800 -0.1201
11998TIP3    H257486   2.109   3.340   2.240 -0.2763  1.9855  0.2868
11999TIP3   OH257487   4.226   6.086  16.120  0.0281  0.0386  0.0574
11999TIP3    H157488   4.173   6.162  16.096  1.8265  1.6448  0.9609
11999TIP3    H257489   4.194   6.016  16.063 -0.8743  1.7591 -1.6571
12000TIP3   OH257490   2.259   1.946  15.729  0.4055  0.0791  0.5137
12000TIP3    H157491   2.239   1.984  15.814  0.0541  2.1626 -0.4391
12000TIP3    H257492   2.353   1.928  15.731  0.2918 -0.4514  1.5243
12001TIP3   OH257493   3.627   3.569  12.560 -0.4362 -0.3546  0.0941
12001TIP3    H157494   3.651   3.500  12.622 -0.8183  0.4603  1.1646
12001TIP3    H257495   3.550   3.535  12.515  0.0477 -1.0918 -0.2086
12002TIP3   OH257496   2.578   5.708   6.443 -0.1495 -0.4042 -0.1721
12002TIP3    H157497   2.673   5.721   6.436 -0.1585 -0.3460 -0.1869
12002TIP3    H257498   2.566   5.666   6.528  0.0622 -2.0835 -0.9291
12003TIP3   OH257499   0.298   4.237   0.661 -0.4767  0.1318  0.5340
12003TIP3    H157500   0.383   4.228   0.702  0.3239  1.2079 -0.7745
12003TIP3    H257501   0.283   4.332   0.659 -0.5362  0.1187 -1.4442
12004TIP3   OH257502   6.793   5.205   2.115 -0.5946 -0.2038  0.6473
12004TIP3    H157503   6.816   5.115   2.139 -1.3488 -0.0602  2.0167
12004TIP3    H257504   6.876   5.253   2.119  0.4600 -1.3407 -3.0721
12005TIP3   OH257505   3.707   2.353   3.782 -0.2322  0.5595  0.0179
12005TIP3    H157506   3.753   2.413   3.723 -1.1347  0.5807 -0.6826
12005TIP3    H257507   3.660   2.409   3.843 -2.3022  0.6595 -1.5667
12006TIP3   OH257508   1.010   2.924  11.791  0.3878  0.1946 -0.3738
12006TIP3    H157509   0.919   2.954  11.798  0.3254  0.1289 -0.8844
12006TIP3    H257510   1.062   3.004  11.796  0.3799  0.1325  1.2057
12007TIP3   OH257511   4.566   5.828  12.159 -0.2470 -1.2926  0.3452
12007TIP3    H157512   4.483   5.839  12.114 -0.6421 -1.4770  1.0086
12007TIP3    H257513   4.542   5.792  12.245  0.3447  0.4491  1.2973
12008TIP3   OH257514   6.313   2.276  13.224  0.1661 -0.2186 -0.4200
12008TIP3    H157515   6.375   2.204  13.237  0.2198 -0.0003  0.6407
12008TIP3    H257516   6.353   2.330  13.156 -0.1129 -1.4368 -1.5746
12009TIP3   OH257517   5.074   1.491  10.705 -0.0471 -0.3730  0.0512
12009TIP3    H157518   5.049   1.400  10.721 -0.7877 -0.2164 -0.1735
12009TIP3    H257519   5.168   1.488  10.689  0.0453 -1.0147  0.6938
12010TIP3   OH257520   3.200   3.537   1.059  1.2824  0.1110  0.3929
12010TIP3    H157521   3.124   3.482   1.079  2.7353 -1.8555  0.7883
12010TIP3    H257522   3.220   3.581   1.141  1.9434 -1.1629  0.9313
12011TIP3   OH257523   4.745   0.466   3.359 -0.2497 -0.4314 -0.2974
12011TIP3    H157524   4.749   0.535   3.426 -1.5000  1.4958 -2.0711
12011TIP3    H257525   4.833   0.464   3.321  0.0228 -0.3977  0.3225
12012TIP3   OH257526   3.654   2.044   3.864  0.1752 -0.9456 -0.6166
12012TIP3    H157527   3.579   2.067   3.920  0.6022 -2.4593  0.6487
12012TIP3    H257528   3.680   2.126   3.824  0.4314  0.4318  2.1610
12013TIP3   OH257529   5.912   4.365   2.903 -0.0194 -0.1374  0.3246
12013TIP3    H157530   5.951   4.439   2.856  0.4432 -0.1919  0.6218
12013TIP3    H257531   5.981   4.333   2.961  0.4081 -1.9868 -1.1105
12014TIP3   OH257532   6.182   6.841  13.224  0.6169  0.4764 -0.2974
12014TIP3    H157533   6.109   6.818  13.166  0.2966 -0.3512  0.4103
12014TIP3    H257534   6.175   6.936  13.234  0.0687  0.4967 -0.8109
12015TIP3   OH257535   3.992   4.380   1.791 -0.0728  0.4968 -0.5811
12015TIP3    H157536   3.925   4.351   1.853 -0.3138 -0.2799 -1.1840
12015TIP3    H257537   3.971   4.471   1.772 -0.5057  0.4790 -0.1801
12016TIP3   OH257538   0.889   4.486   3.766  0.2108 -0.5391 -0.5334
12016TIP3    H157539   0.869   4.460   3.676  1.4942  2.1181 -1.7066
12016TIP3    H257540   0.980   4.460   3.780  0.5383  0.4993 -0.6332
12017TIP3   OH257541   3.618   5.521  14.974 -0.1283  0.4104 -0.2302
12017TIP3    H157542   3.573   5.449  14.929  1.7995 -0.2948 -1.1681
12017TIP3    H257543   3.647   5.578  14.903  2.5624 -0.4635  0.0760
12018TIP3   OH257544   4.215   2.749   0.855  0.1473  0.3403  0.5068
12018TIP3    H157545   4.164   2.712   0.783  2.2215  0.2438 -1.0183
12018TIP3    H257546   4.304   2.715   0.841  1.1010  2.1296  1.8158
12019TIP3   OH257547   5.376   1.619  10.697 -0.1581  0.1578  0.0232
12019TIP3    H157548   5.414   1.542  10.739 -1.4075  0.0031  0.9104
12019TIP3    H257549   5.370   1.684  10.766  0.2898  0.8465 -0.5720
12020TIP3   OH257550   4.759   4.211   4.401  0.6602  0.2449 -0.1665
12020TIP3    H157551   4.684   4.173   4.356  0.3498 -0.2070  0.7062
12020TIP3    H257552   4.746   4.187   4.493  2.7168 -1.2397 -0.2177
12021TIP3   OH257553   0.103   4.825   3.751 -0.2820 -0.2499  0.1197
12021TIP3    H157554   0.017   4.868   3.753 -0.9749 -1.3814 -1.8825
12021TIP3    H257555   0.166   4.896   3.753 -1.3504  0.7991 -1.4144
12022TIP3   OH257556   4.864   3.868   0.257  0.2183  1.0280 -0.1706
12022TIP3    H157557   4.827   3.940   0.307 -1.4143  0.0952  0.0302
12022TIP3    H257558   4.847   3.891   0.166 -0.2480  0.9259 -0.1101
12023TIP3   OH257559   3.419   5.189   5.540 -0.6994  0.7482  1.0121
12023TIP3    H157560   3.471   5.264   5.514 -0.4079 -0.6082 -3.0038
12023TIP3    H257561   3.479   5.114   5.534 -1.9589 -0.2925  0.7250
12024TIP3   OH257562   2.107   3.667   0.675  0.4703  0.3726  0.0539
12024TIP3    H157563   2.090   3.722   0.598  0.1498 -0.6435 -0.6289
12024TIP3    H257564   2.196   3.634   0.661 -0.1900 -1.1670 -0.7852
12025TIP3   OH257565   0.342   6.800  11.500  0.4541  0.2179 -0.1691
12025TIP3    H157566   0.280   6.757  11.558  1.5828  0.1481  1.0271
12025TIP3    H257567   0.337   6.893  11.524  2.5732 -0.0901  1.7123
12026TIP3   OH257568   5.351   5.330   4.825 -0.0078  0.2272  0.0681
12026TIP3    H157569   5.349   5.326   4.730  2.8076 -2.4670 -0.0380
12026TIP3    H257570   5.437   5.365   4.846 -0.6473  0.9612  1.6667
12027TIP3   OH257571   2.724   0.333   3.187  0.1203  0.5837 -0.3554
12027TIP3    H157572   2.722   0.273   3.262  1.0365  1.9211  0.7922
12027TIP3    H257573   2.770   0.284   3.119 -0.8587 -0.7162 -0.1282
12028TIP3   OH257574   6.112   6.862   5.779 -0.1463 -0.1881  0.6150
12028TIP3    H157575   6.126   6.839   5.871 -0.9694 -0.4019  0.6943
12028TIP3    H257576   6.018   6.880   5.773  0.1242  1.1304  0.0926
12029TIP3   OH257577   4.412   2.816  16.080 -0.0073 -0.1526  0.3109
12029TIP3    H157578   4.377   2.754  16.144 -1.2350  0.7940  0.5900
12029TIP3    H257579   4.342   2.827  16.016  0.0903  1.1148  0.3952
12030TIP3   OH257580   6.097   3.049   5.943  0.3116 -0.0540  0.9125
12030TIP3    H157581   6.082   2.982   6.009 -1.9954  0.7641  1.3074
12030TIP3    H257582   6.030   3.115   5.960  1.1270  1.3162 -0.8219
12031TIP3   OH257583   0.069   5.997  15.846 -0.2494  0.3010 -0.3542
12031TIP3    H157584   0.139   5.989  15.781 -0.6922  2.2661 -1.1376
12031TIP3    H257585   0.013   6.066  15.812 -1.9457 -0.4308  0.8479
12032TIP3   OH257586   5.318   1.197   3.899  0.1766  0.1754  0.3621
12032TIP3    H157587   5.377   1.241   3.960 -1.3988 -0.9413  2.8780
12032TIP3    H257588   5.332   1.104   3.915  0.9818 -0.2395 -2.3600
12033TIP3   OH257589   6.074   6.331  13.231 -1.0968  0.5808  0.5351
12033TIP3    H157590   6.134   6.374  13.292  0.1079  0.3700 -0.4506
12033TIP3    H257591   5.999   6.306  13.285 -0.2197  0.6765  1.8673
12034TIP3   OH257592   5.587   5.626  14.066 -0.3968 -0.0259 -0.3472
12034TIP3    H157593   5.626   5.555  14.116 -2.0896  0.6477  2.1108
12034TIP3    H257594   5.605   5.705  14.118 -1.5507  0.8234 -1.1841
12035TIP3   OH257595   1.818   6.216  16.282 -0.1556 -0.0155  0.1088
12035TIP3    H157596   1.773   6.274  16.343  0.5665 -2.3397  3.0920
12035TIP3    H257597   1.902   6.197  16.324  0.1226 -2.2598 -1.2777
12036TIP3   OH257598   3.950   2.940   0.591 -0.1032 -0.6691 -0.1608
12036TIP3    H157599   3.863   2.902   0.590 -0.5618  0.2354 -2.6401
12036TIP3    H257600   4.009   2.868   0.568 -0.3179 -0.9961  0.2982
12037TIP3   OH257601   3.055   2.814   0.198 -0.1984  0.7376  0.0218
12037TIP3    H157602   2.983   2.751   0.206  0.1381  0.3267 -0.1588
12037TIP3    H257603   3.040   2.878   0.268 -0.3637  0.2806  0.4022
12038TIP3   OH257604   1.532   0.895   4.296 -0.2828 -0.0874  0.3253
12038TIP3    H157605   1.594   0.853   4.355  1.5302  0.0316 -1.4020
12038TIP3    H257606   1.454   0.839   4.300  1.1636 -2.2467 -0.0312
12039TIP3   OH257607   4.419   3.424  13.938 -0.2367  0.1566 -0.4757
12039TIP3    H157608   4.350   3.490  13.925 -1.1280 -0.6412  0.0713
12039TIP3    H257609   4.399   3.356  13.874 -0.2227 -0.2846 -0.0131
12040TIP3   OH257610   1.666   2.613   2.398 -0.5194  0.4865  0.2822
12040TIP3    H157611   1.691   2.686   2.341 -1.0814  1.9782  1.8472
12040TIP3    H257612   1.626   2.549   2.340  1.2093  0.8129 -1.3390
12041TIP3   OH257613   6.026   2.322   1.929  0.1911  0.1787 -0.4828
12041TIP3    H157614   6.121   2.315   1.926  0.3011  0.9405  0.6435
12041TIP3    H257615   6.004   2.303   2.020 -0.6115  1.3960 -0.4102
12042TIP3   OH257616   2.711   1.660   2.156  0.1763 -0.2430  0.2924
12042TIP3    H157617   2.662   1.722   2.211  1.6102  1.3904 -0.2179
12042TIP3    H257618   2.793   1.645   2.203  0.9446  0.2941 -0.8489
12043TIP3   OH257619   2.172   5.265  10.864 -0.0984  0.2725 -0.3035
12043TIP3    H157620   2.173   5.184  10.813 -0.2768  0.3704 -0.4655
12043TIP3    H257621   2.083   5.272  10.897  0.9382 -1.9177  3.5328
12044TIP3   OH257622   1.370   4.427   1.840  0.3189  0.1342 -0.4254
12044TIP3    H157623   1.374   4.498   1.776 -0.4149  0.2309 -0.3710
12044TIP3    H257624   1.428   4.359   1.804  1.4739  0.9603 -0.2020
12045TIP3   OH257625   3.998   1.667  15.870 -0.2274 -0.2510  0.0375
12045TIP3    H157626   4.005   1.611  15.793  1.0097  0.1212 -0.1475
12045TIP3    H257627   4.027   1.753  15.840  2.7400 -0.6252  1.4272
12046TIP3   OH257628   1.824   2.847   2.932  0.2776 -0.2566 -0.1522
12046TIP3    H157629   1.742   2.818   2.973  0.7105  1.0772  1.8262
12046TIP3    H257630   1.797   2.910   2.866 -0.4559 -2.5367 -2.1492
12047TIP3   OH257631   6.289   1.103   3.976 -0.0055  0.5157  0.4061
12047TIP3    H157632   6.258   1.020   3.940  0.2152 -0.0617  1.5043
12047TIP3    H257633   6.215   1.163   3.965 -0.0286  0.3040 -0.7562
12048TIP3   OH257634   5.309   1.261  10.881  0.0825 -0.2122 -0.4816
12048TIP3    H157635   5.374   1.306  10.827 -0.1698 -0.1240 -0.7117
12048TIP3    H257636   5.342   1.171  10.888  1.1548  0.2413  0.8713
12049TIP3   OH257637   6.545   3.087   0.795  0.3294  0.5074 -0.2255
12049TIP3    H157638   6.610   3.034   0.749  0.4173  0.8625 -0.5039
12049TIP3    H257639   6.567   3.177   0.774  1.2166  0.7730  1.5825
12050TIP3   OH257640   0.361   3.480   5.950  0.2492  0.3028 -0.1884
12050TIP3    H157641   0.270   3.470   5.976  1.1232  0.2851  3.3980
12050TIP3    H257642   0.369   3.571   5.922 -0.9104  0.1790 -0.9784
12051TIP3   OH257643   4.487   0.339   3.494 -0.4456 -0.7142 -1.0379
12051TIP3    H157644   4.575   0.304   3.494  0.6797  1.8945 -1.0504
12051TIP3    H257645   4.469   0.360   3.586 -0.4005  0.1735 -1.2160
12052TIP3   OH257646   6.664   0.216  15.825 -0.0887  0.0121  0.2438
12052TIP3    H157647   6.594   0.187  15.766 -0.9913  1.2529  0.6661
12052TIP3    H257648   6.690   0.301  15.791  0.1964  0.2120  0.9434
12053TIP3   OH257649   5.591   6.376  13.700 -0.1098 -0.6337 -0.2218
12053TIP3    H157650   5.649   6.353  13.773  1.1129  3.1441  0.1829
12053TIP3    H257651   5.523   6.430  13.740 -1.5177 -1.4541 -1.4058
12054TIP3   OH257652   5.193   6.503  16.261  0.5198  0.2791  0.4074
12054TIP3    H157653   5.202   6.408  16.269  0.5637  0.4107  2.1371
12054TIP3    H257654   5.112   6.524  16.307  0.3481  1.0619 -0.2214
12055TIP3   OH257655   0.872   1.662  12.052 -0.4936 -0.0551  0.3014
12055TIP3    H157656   0.940   1.647  12.118  0.7631 -1.3747 -1.1865
12055TIP3    H257657   0.859   1.757  12.053  0.8079  0.1498  1.2097
12056TIP3   OH257658   2.352   6.214  15.834  0.3612 -0.2290  0.3965
12056TIP3    H157659   2.311   6.195  15.750  0.2533  1.1554  0.1099
12056TIP3    H257660   2.427   6.155  15.838 -0.6377 -1.5470  0.1371
12057TIP3   OH257661   1.391   6.589  11.622 -0.4075 -0.0828  0.6214
12057TIP3    H157662   1.373   6.631  11.538  1.0198 -1.2555 -0.3099
12057TIP3    H257663   1.482   6.613  11.642 -0.7966  0.3796  1.9852
12058TIP3   OH257664   5.671   5.665   0.994  0.0231  0.2393 -0.7038
12058TIP3    H157665   5.704   5.577   1.011 -1.3614 -0.1414  0.0996
12058TIP3    H257666   5.730   5.723   1.043  0.0686 -0.3475 -0.0593
12059TIP3   OH257667   4.694   2.439   0.172 -0.2978  0.0138  0.1581
12059TIP3    H157668   4.747   2.374   0.218 -1.1405 -1.0027 -0.2596
12059TIP3    H257669   4.716   2.428   0.080 -1.3263 -0.5375 -0.0367
12060TIP3   OH257670   6.027   2.512   0.255  1.0022 -0.1072 -0.5375
12060TIP3    H157671   6.107   2.561   0.233  0.5487  1.2902  0.7526
12060TIP3    H257672   5.981   2.568   0.316  0.0673 -1.8520  0.4404
12061TIP3   OH257673   2.417   2.157  16.069 -0.1233  0.0103 -0.2473
12061TIP3    H157674   2.507   2.125  16.054 -0.1850 -0.5659  0.5786
12061TIP3    H257675   2.429   2.241  16.114  0.0053  0.1629 -0.5608
12062TIP3   OH257676   5.661   1.631   1.740 -0.0150 -0.7816 -0.6544
12062TIP3    H157677   5.640   1.629   1.647  1.9400  0.3368 -1.1706
12062TIP3    H257678   5.757   1.626   1.744  0.0196  0.2433  1.2400
12063TIP3   OH257679   1.021   5.356  15.851  0.1139 -0.5749 -0.3950
12063TIP3    H157680   1.113   5.378  15.841 -0.1355  0.7109 -0.0976
12063TIP3    H257681   1.019   5.289  15.919  0.7316  0.2541  0.4513
12064TIP3   OH257682   1.396   4.170   3.711  0.6960  0.3030  0.0147
12064TIP3    H157683   1.308   4.205   3.700  0.3965 -0.4915 -0.1816
12064TIP3    H257684   1.444   4.202   3.635  0.5671  0.6874  0.0896
12065TIP3   OH257685   5.809   0.026   3.868  0.0693 -0.2597 -0.0093
12065TIP3    H157686   5.836   0.025   3.960 -0.9557 -0.4435  0.2992
12065TIP3    H257687   5.849   0.106   3.833  1.8290 -1.0233  0.1482
12066TIP3   OH257688   6.279   2.919  16.770  0.1153  0.6209 -0.0807
12066TIP3    H157689   6.315   2.992  16.720  2.5115 -0.0997  0.4590
12066TIP3    H257690   6.220   2.959  16.834 -0.4324  1.8193 -1.2893
12067TIP3   OH257691   2.037   3.083  12.164  0.4981 -0.0859  0.3916
12067TIP3    H157692   2.036   3.119  12.075  0.9626  0.2117  0.5042
12067TIP3    H257693   1.950   3.045  12.175  0.1690  0.5584  0.0859
12068TIP3   OH257694   3.166   4.806   4.813 -0.3756 -0.2105  0.1910
12068TIP3    H157695   3.238   4.827   4.753 -0.8495  0.8828 -0.0128
12068TIP3    H257696   3.155   4.711   4.805 -0.2527 -0.1238 -1.2572
12069TIP3   OH257697   5.210   4.552  15.489 -0.1104 -0.2061 -0.0037
12069TIP3    H157698   5.153   4.475  15.492 -0.7641  0.2828  0.8706
12069TIP3    H257699   5.240   4.557  15.399 -2.6606  0.3358 -0.9132
12070TIP3   OH257700   5.852   2.992  14.947  0.3438 -0.1478  0.4077
12070TIP3    H157701   5.789   2.962  15.012  1.0861 -0.6125  0.9246
12070TIP3    H257702   5.900   3.063  14.990 -0.4839  0.8979 -0.3345
12071TIP3   OH257703   3.686   4.765   1.337 -0.0241  0.5053 -0.9351
12071TIP3    H157704   3.602   4.771   1.383 -0.4324 -1.8140 -1.2070
12071TIP3    H257705   3.668   4.800   1.250 -1.2527 -1.4677 -1.5428
12072TIP3   OH257706   1.581   4.831   4.403 -0.2292 -0.3794  0.3722
12072TIP3    H157707   1.629   4.903   4.445  0.4739  0.5215 -1.8172
12072TIP3    H257708   1.648   4.766   4.381 -0.1772  0.1873 -1.3092
12073TIP3   OH257709   5.042   5.793   2.890 -0.3430 -0.2494  0.7090
12073TIP3    H157710   5.123   5.834   2.919  0.2138 -0.3394 -0.6165
12073TIP3    H257711   4.973   5.856   2.910  0.0947 -0.0467  1.5811
12074TIP3   OH257712   5.015   0.672   0.017  0.0750 -0.0342 -0.0277
12074TIP3    H157713   5.035   0.751  -0.032  0.0046  0.2558  0.4098
12074TIP3    H257714   4.979   0.611  -0.048 -0.6882  0.5967 -0.2082
12075TIP3   OH257715   0.749   4.941  16.753 -0.1186 -0.3052 -0.2133
12075TIP3    H157716   0.835   4.954  16.712  0.0337 -3.1795 -1.0944
12075TIP3    H257717   0.747   4.847  16.773 -2.5883 -0.0840  0.9270
12076TIP3   OH257718   2.273   2.643   4.407  0.7706 -0.7339  0.7083
12076TIP3    H157719   2.321   2.654   4.325 -0.6359 -0.8553 -0.1450
12076TIP3    H257720   2.296   2.721   4.458  2.0357 -0.8959  0.4169
12077TIP3   OH257721   0.188   5.545  12.163  0.1414 -0.0107 -0.8387
12077TIP3    H157722   0.206   5.501  12.246 -2.5147 -0.5832 -0.4636
12077TIP3    H257723   0.151   5.477  12.107 -0.9647  0.9971 -1.3943
12078TIP3   OH257724   4.830   3.131   5.507 -0.2779  0.3722 -0.1596
12078TIP3    H157725   4.876   3.067   5.561  0.5718  2.4873  1.8361
12078TIP3    H257726   4.743   3.138   5.548 -1.8116 -2.1163 -2.6725
12079TIP3   OH257727   4.129   1.449   0.773 -0.3052 -0.0293  0.0954
12079TIP3    H157728   4.149   1.432   0.681 -1.4037 -0.6237 -0.0546
12079TIP3    H257729   4.153   1.540   0.787 -1.8855  0.6625 -1.3178
12080TIP3   OH257730   1.769   5.681   4.141 -0.1558  0.5278 -0.0980
12080TIP3    H157731   1.854   5.700   4.180 -0.3904 -2.4136  2.2677
12080TIP3    H257732   1.705   5.701   4.210 -0.8816 -1.8448  0.0128
12081TIP3   OH257733   3.745   2.698  14.768 -0.1424  0.1299  0.1709
12081TIP3    H157734   3.828   2.694  14.721 -0.0632  0.3748  0.2859
12081TIP3    H257735   3.723   2.791  14.770 -0.1983  0.1136  0.5203
12082TIP3   OH257736   5.244   0.316   2.552 -0.0770  0.0910  0.1642
12082TIP3    H157737   5.171   0.254   2.553  0.6759 -0.8615 -0.8191
12082TIP3    H257738   5.272   0.322   2.644 -0.9743 -0.0292  0.4508
12083TIP3   OH257739   1.337   5.218  14.161 -0.1602 -0.1577 -0.3581
12083TIP3    H157740   1.316   5.143  14.218 -0.1999 -0.2247 -0.4610
12083TIP3    H257741   1.253   5.259  14.144 -0.3816 -1.0995 -1.7168
12084TIP3   OH257742   1.585   5.988   3.813  0.3687 -0.1105 -0.3195
12084TIP3    H157743   1.526   5.964   3.742  0.3624 -1.9253  0.2653
12084TIP3    H257744   1.670   6.000   3.771 -0.0203  0.7992 -0.8974
12085TIP3   OH257745   1.015   0.123   6.537  0.3359  0.4075 -0.0309
12085TIP3    H157746   1.079   0.107   6.606 -0.9262  2.3548  1.7311
12085TIP3    H257747   0.930   0.107   6.579 -0.4480  1.0020 -1.3218
12086TIP3   OH257748   2.560   4.792   0.784 -0.1189 -0.0057 -0.7054
12086TIP3    H157749   2.499   4.734   0.828  0.8709  0.0202  0.7603
12086TIP3    H257750   2.643   4.744   0.785  0.7026  1.3622  0.4702
12087TIP3   OH257751   5.752   0.605  15.734  0.0791  0.2280 -0.7594
12087TIP3    H157752   5.818   0.582  15.799 -1.4173  1.9522  1.5556
12087TIP3    H257753   5.779   0.691  15.702 -0.2974  0.3290 -0.8127
12088TIP3   OH257754   1.222   5.664  14.634 -0.3015  0.2885  0.0279
12088TIP3    H157755   1.149   5.615  14.597  0.0103 -0.5607  0.4956
12088TIP3    H257756   1.196   5.680  14.725  1.0965 -2.2559  0.9880
12089TIP3   OH257757   3.812   1.822   0.044  0.1578  0.0560  0.8273
12089TIP3    H157758   3.900   1.849   0.020 -0.7453  1.7903 -0.8285
12089TIP3    H257759   3.759   1.901   0.034 -1.8790 -1.3147  0.1156
12090TIP3   OH257760   3.732   4.607  17.108  0.3134 -0.1789 -0.1710
12090TIP3    H157761   3.822   4.584  17.085  0.3265  0.0752 -0.3716
12090TIP3    H257762   3.737   4.697  17.140 -0.0800  0.3444 -1.5060
12091TIP3   OH257763   4.993   2.477  11.268  0.0484 -0.3345 -0.2177
12091TIP3    H157764   5.070   2.422  11.283  0.1471 -0.1373  0.0217
12091TIP3    H257765   4.930   2.420  11.225 -0.0558 -0.7895  0.5088
12092TIP3   OH257766   6.505   5.475  14.440 -0.2810  0.5038  0.0090
12092TIP3    H157767   6.550   5.495  14.358 -0.5113  3.5719  0.4778
12092TIP3    H257768   6.430   5.536  14.440 -0.7409  0.0050  2.1151
12093TIP3   OH257769   1.567   3.737  13.454 -0.1448 -0.4113  0.2952
12093TIP3    H157770   1.536   3.798  13.522 -0.1986  0.6028 -0.6041
12093TIP3    H257771   1.566   3.651  13.496  0.2216  0.2425  1.7042
12094TIP3   OH257772   2.183   3.134  13.115  0.0405  0.0905 -0.2363
12094TIP3    H157773   2.262   3.155  13.065 -0.2274  1.0458 -0.2763
12094TIP3    H257774   2.172   3.208  13.175 -0.2140 -0.5614  0.5378
12095TIP3   OH257775   1.723   0.659  16.728  0.0022 -0.1591  0.0572
12095TIP3    H157776   1.658   0.700  16.785 -0.1020 -0.1800 -0.0464
12095TIP3    H257777   1.804   0.662  16.778  0.4016  1.7491 -0.5996
12096TIP3   OH257778   1.537   5.497   4.528 -0.4408  0.0457  0.4998
12096TIP3    H157779   1.544   5.427   4.593 -0.0544  1.1959  1.7417
12096TIP3    H257780   1.612   5.553   4.546 -0.5383  0.5859 -0.7237
12097TIP3   OH257781   2.461   2.220  16.558  0.5439  0.0966  0.2844
12097TIP3    H157782   2.530   2.156  16.539  0.0284  0.3801 -3.2121
12097TIP3    H257783   2.380   2.170  16.549  0.2042  0.6920 -0.0093
12098TIP3   OH257784   3.175   3.998   0.291 -0.1481 -0.3153 -0.2740
12098TIP3    H157785   3.096   4.039   0.328 -0.5586  0.3715 -1.8370
12098TIP3    H257786   3.181   3.914   0.336 -2.7517 -1.1525 -1.2624
12099TIP3   OH257787   2.766   5.090   1.457 -0.1333 -0.1439 -0.3059
12099TIP3    H157788   2.716   5.064   1.534  1.3600  0.7335  1.0291
12099TIP3    H257789   2.731   5.175   1.433  1.1387  0.8482  1.1220
12100TIP3   OH257790   0.349   5.890  11.774  0.4643  0.3341 -0.2296
12100TIP3    H157791   0.372   5.798  11.757  1.3159  0.6669 -0.9901
12100TIP3    H257792   0.309   5.919  11.692 -1.3758  0.1919  0.5744
12101TIP3   OH257793   2.252   1.376  12.158  0.4477  0.1780 -0.1192
12101TIP3    H157794   2.214   1.414  12.079  0.2717 -0.4346 -0.3334
12101TIP3    H257795   2.285   1.451  12.206 -1.8241  0.8621  0.5209
12102TIP3   OH257796   3.388   4.976   5.332  0.2259 -0.4811  0.7126
12102TIP3    H157797   3.298   4.946   5.319  0.6867 -0.7829 -2.6196
12102TIP3    H257798   3.438   4.895   5.345  0.3050 -0.4932  0.3401
12103TIP3   OH257799   6.288   0.742   2.979  0.3937  0.2302  0.1355
12103TIP3    H157800   6.269   0.794   2.902  0.1299 -0.1295 -0.0475
12103TIP3    H257801   6.208   0.691   2.994  0.8383 -0.5461 -0.0370
12104TIP3   OH257802   3.779   1.292   2.582 -0.0622 -0.1813 -0.3176
12104TIP3    H157803   3.822   1.216   2.542 -0.3326 -0.9458  0.8146
12104TIP3    H257804   3.851   1.353   2.601  0.1560 -0.1437 -1.2277
12105TIP3   OH257805   0.445   0.701   5.889  0.0280 -0.2392  0.2226
12105TIP3    H157806   0.444   0.650   5.809 -3.1464 -0.5054  0.3006
12105TIP3    H257807   0.381   0.658   5.946  0.1074  1.5656  1.7862
12106TIP3   OH257808   1.429   3.912   1.089 -0.2662 -0.2338 -0.1350
12106TIP3    H157809   1.375   3.980   1.049  1.0373 -0.1282 -1.7848
12106TIP3    H257810   1.387   3.830   1.064 -0.3616 -0.1232 -0.3368
12107TIP3   OH257811   0.606   0.251   3.773  0.1123 -0.1046  0.7390
12107TIP3    H157812   0.560   0.245   3.856  1.0215  0.0816  1.2737
12107TIP3    H257813   0.580   0.171   3.726  1.2327 -1.3286  2.0871
12108TIP3   OH257814   1.261   0.724   2.240 -0.5345  0.3887  0.0454
12108TIP3    H157815   1.263   0.820   2.238 -3.2731  0.5523  0.6645
12108TIP3    H257816   1.256   0.703   2.333  1.2480 -0.4789 -0.0122
12109TIP3   OH257817   6.087   4.563  11.953  0.8436 -0.3491 -0.2033
12109TIP3    H157818   6.037   4.621  12.010  2.2033 -0.0846  0.7871
12109TIP3    H257819   6.178   4.576  11.980  1.3904 -1.3076 -1.4702
12110TIP3   OH257820   2.775   3.797  12.631  0.4494  0.5055  0.3997
12110TIP3    H157821   2.801   3.875  12.583  1.8299  0.0479  0.3606
12110TIP3    H257822   2.756   3.732  12.564 -0.4596  0.7293  0.4356
12111TIP3   OH257823   2.398   2.316  10.934  0.2564 -0.4827  0.3065
12111TIP3    H157824   2.376   2.397  10.888  1.4232 -0.5869 -0.4684
12111TIP3    H257825   2.373   2.247  10.873 -0.7796 -0.7220  0.9859
12112TIP3   OH257826   0.694   5.581   6.359 -0.4149  0.4350 -0.0988
12112TIP3    H157827   0.746   5.515   6.314  1.8074  0.7716  1.7688
12112TIP3    H257828   0.757   5.648   6.386 -2.0325  1.5931  1.0849
12113TIP3   OH257829   5.106   5.502  13.015  0.0972 -0.2784 -0.3900
12113TIP3    H157830   5.127   5.576  13.072  1.0444 -0.3600 -0.6218
12113TIP3    H257831   5.011   5.490  13.026  0.1133  0.2756  0.4676
12114TIP3   OH257832   3.273   2.344  10.706 -0.1967 -0.1191  0.0501
12114TIP3    H157833   3.187   2.307  10.687  0.9131 -2.7641 -0.2910
12114TIP3    H257834   3.284   2.414  10.642 -1.8754 -0.0874 -0.2376
12115TIP3   OH257835   5.707   5.839   1.973 -0.3912 -0.2656 -0.9893
12115TIP3    H157836   5.721   5.913   2.032 -2.0119 -0.4007 -0.4016
12115TIP3    H257837   5.679   5.880   1.891 -0.2651 -0.1826 -0.9917
12116TIP3   OH257838   1.128   0.626   5.206 -0.8682  0.0129  0.1127
12116TIP3    H157839   1.046   0.674   5.195 -0.7111 -0.1337 -2.1008
12116TIP3    H257840   1.168   0.625   5.119  1.5152  0.0752  1.1134
12117TIP3   OH257841   0.214   0.758   4.127 -0.9175 -0.5536 -0.1435
12117TIP3    H157842   0.172   0.766   4.213 -0.2264  2.1851  0.0375
12117TIP3    H257843   0.144   0.781   4.065 -0.8334 -0.2678 -0.1357
12118TIP3   OH257844   3.333   3.750  14.311 -0.6757  0.0355  0.9104
12118TIP3    H157845   3.320   3.735  14.218  0.6932 -0.2297  0.7359
12118TIP3    H257846   3.245   3.762  14.346 -1.2137  0.0845 -0.3981
12119TIP3   OH257847   5.167   6.550   0.675  0.1261  0.0268 -0.1105
12119TIP3    H157848   5.260   6.566   0.689  0.1180 -0.4872  0.5505
12119TIP3    H257849   5.142   6.613   0.607  1.0121 -0.0169 -0.4918
12120TIP3   OH257850   1.086   2.186  15.730 -0.2981 -0.1439 -0.0992
12120TIP3    H157851   0.994   2.213  15.742 -0.1662  0.3370 -0.1563
12120TIP3    H257852   1.100   2.194  15.636  0.1520  0.9294  0.0509
12121TIP3   OH257853   0.211   5.052  15.555  0.4107 -0.2435 -0.0772
12121TIP3    H157854   0.131   5.097  15.583 -0.8981 -1.7695 -1.1739
12121TIP3    H257855   0.181   4.990  15.488  2.3162 -1.8734  0.5036
12122TIP3   OH257856   6.020   0.722  13.688  0.0442 -0.1793  0.5014
12122TIP3    H157857   6.047   0.678  13.768  1.1261  0.2704  0.3946
12122TIP3    H257858   6.096   0.716  13.630 -1.0543 -1.4403 -0.9182
12123TIP3   OH257859   2.693   4.980  15.129 -0.1704 -0.6531  0.0689
12123TIP3    H157860   2.689   4.923  15.205  1.6349  1.2482  1.6988
12123TIP3    H257861   2.753   4.935  15.069 -1.3700 -2.0106 -0.1684
12124TIP3   OH257862   1.775   0.268  14.211 -0.7499 -0.0172  0.1014
12124TIP3    H157863   1.737   0.352  14.237 -2.1431 -0.0705 -1.5596
12124TIP3    H257864   1.868   0.286  14.202 -0.8958  1.1138  0.6860
12125TIP3   OH257865   3.001   3.676   4.953  0.4972 -0.4651 -0.8379
12125TIP3    H157866   2.923   3.711   4.996 -0.1239 -0.7430 -1.7355
12125TIP3    H257867   2.981   3.584   4.936  1.1466 -0.6207 -0.7800
12126TIP3   OH257868   2.727   0.211   5.695 -0.5415  0.2723 -0.3471
12126TIP3    H157869   2.684   0.130   5.669 -2.2640  0.3061  2.0826
12126TIP3    H257870   2.781   0.186   5.770 -1.1351  1.3472  0.4580
12127TIP3   OH257871   2.822   4.867   5.044 -0.0386  0.6386 -0.1877
12127TIP3    H157872   2.735   4.851   5.008  0.3437  1.6604 -1.6575
12127TIP3    H257873   2.872   4.901   4.970  1.7085 -0.2319  0.5475
12128TIP3   OH257874   4.988   0.149  16.211  0.3253  0.3030 -0.1585
12128TIP3    H157875   5.038   0.070  16.191  0.0598  0.3645 -1.0942
12128TIP3    H257876   5.054   0.218  16.216  0.4632  0.1761 -0.2231
12129TIP3   OH257877   4.842   5.927   1.473  0.5500 -0.1764 -0.3630
12129TIP3    H157878   4.812   5.978   1.397 -0.6430  0.0122  0.2053
12129TIP3    H257879   4.763   5.916   1.527  1.2507 -0.8101  0.5657
12130TIP3   OH257880   2.766   2.046   1.008  0.0532 -0.7717 -0.1827
12130TIP3    H157881   2.717   2.044   0.926 -0.0278  1.0118 -0.2002
12130TIP3    H257882   2.845   1.994   0.990 -0.0944 -0.6288 -1.3036
12131TIP3   OH257883   6.430   1.815  11.918 -0.2533  0.4022 -0.1644
12131TIP3    H157884   6.452   1.893  11.969  1.2915  1.8851 -2.9055
12131TIP3    H257885   6.449   1.742  11.977  2.6084  1.9634  1.0201
12132TIP3   OH257886   3.376   4.496   3.884 -0.3818 -0.3907 -0.0700
12132TIP3    H157887   3.386   4.520   3.792  2.4378 -1.8492 -0.2411
12132TIP3    H257888   3.403   4.574   3.933  1.3873 -0.6780 -0.5412
12133TIP3   OH257889   6.133   3.752  11.763 -0.3341 -0.2177  0.3648
12133TIP3    H157890   6.122   3.672  11.814 -1.8597  0.8748  1.8694
12133TIP3    H257891   6.044   3.785  11.750  0.2917  1.7512  0.6797
12134TIP3   OH257892   2.946   2.364  13.676  0.1847  0.0343 -0.0835
12134TIP3    H157893   2.856   2.331  13.674  0.0696  0.2418  1.0761
12134TIP3    H257894   2.997   2.297  13.633 -0.1404 -1.3931  1.6405
12135TIP3   OH257895   5.222   3.606   2.596 -0.6800 -0.2327 -0.1386
12135TIP3    H157896   5.316   3.596   2.581 -0.5859  2.1072 -1.5116
12135TIP3    H257897   5.183   3.531   2.551  0.4904 -1.3901  0.6756
12136TIP3   OH257898   2.900   2.706  12.322  0.3709  0.5082  0.2461
12136TIP3    H157899   2.937   2.651  12.253 -0.3099 -1.1692  1.1667
12136TIP3    H257900   2.975   2.752  12.359  0.7475  1.4362 -1.5862
12137TIP3   OH257901   3.354   3.038   1.811  0.3838 -0.4681  0.4222
12137TIP3    H157902   3.365   3.016   1.903  0.1101  0.7606  0.7718
12137TIP3    H257903   3.404   3.119   1.800 -0.0726 -0.2815 -0.3699
12138TIP3   OH257904   1.255   1.359   3.860  0.1982 -0.1410 -0.3257
12138TIP3    H157905   1.231   1.270   3.836  1.5713 -0.1833 -1.6401
12138TIP3    H257906   1.175   1.410   3.843  0.3221 -0.6083 -2.6615
12139TIP3   OH257907   4.482   2.277  14.322  0.4687  0.2748  0.5356
12139TIP3    H157908   4.526   2.195  14.302  2.6535  1.3946  0.3660
12139TIP3    H257909   4.532   2.314  14.395  0.1805  1.8627 -0.0179
12140TIP3   OH257910   4.740   6.091   4.205 -0.3686  0.3159 -0.0431
12140TIP3    H157911   4.734   6.037   4.284 -2.3463  2.3014  1.2669
12140TIP3    H257912   4.767   6.029   4.136 -0.1976 -1.8163  1.8220
12141TIP3   OH257913   1.612   3.207  12.272 -0.3836  0.2073  0.5215
12141TIP3    H157914   1.659   3.222  12.191 -1.3359  0.5122  0.0063
12141TIP3    H257915   1.592   3.295  12.305  0.8123  0.0975  1.5874
12142TIP3   OH257916   6.345   2.074  14.930 -0.1399 -0.9591 -0.1438
12142TIP3    H157917   6.336   1.990  14.975  1.5507 -0.9334  0.3061
12142TIP3    H257918   6.288   2.133  14.979 -1.5067 -1.8532 -0.5865
12143TIP3   OH257919   3.601   2.497   3.255  0.3440  0.0883 -0.3001
12143TIP3    H157920   3.641   2.414   3.229 -0.9334 -0.3385 -0.9759
12143TIP3    H257921   3.513   2.495   3.217 -0.5530  0.7453  1.5795
12144TIP3   OH257922   2.729   2.439  11.041  0.2113  0.1884  0.1720
12144TIP3    H157923   2.753   2.395  10.960  1.2509 -0.3621  0.7645
12144TIP3    H257924   2.673   2.512  11.013 -0.6689 -0.8531 -0.9047
12145TIP3   OH257925   3.937   4.832  11.783  0.0538 -0.0293  0.1697
12145TIP3    H157926   3.866   4.862  11.840 -1.1622  0.5303 -1.5609
12145TIP3    H257927   3.937   4.894  11.710  0.3193 -1.7734 -1.3757
12146TIP3   OH257928   2.448   4.140  13.440  0.3108 -0.1717 -0.0771
12146TIP3    H157929   2.374   4.180  13.485 -0.5242 -0.6165 -1.0109
12146TIP3    H257930   2.486   4.210  13.387  1.6091  0.4838  1.6503
12147TIP3   OH257931   1.600   1.907   1.927  0.1956  0.4411  0.2880
12147TIP3    H157932   1.540   1.980   1.942  0.0029  0.2123  0.6337
12147TIP3    H257933   1.571   1.869   1.844  0.7771  1.2266 -0.2965
12148TIP3   OH257934   4.727   5.167  11.012  0.4267 -0.1054  0.3842
12148TIP3    H157935   4.790   5.183  11.082 -0.0611 -0.4878  0.9206
12148TIP3    H257936   4.775   5.113  10.949  0.9934  0.5743  0.2139
12149TIP3   OH257937   2.105   5.531   5.485  0.4864  0.2557 -0.6191
12149TIP3    H157938   2.073   5.619   5.501  0.6195  0.1756  0.1289
12149TIP3    H257939   2.055   5.476   5.545  1.6633  0.0666  0.2234
12150TIP3   OH257940   0.252   2.265   1.684  0.0866  0.1234 -0.0857
12150TIP3    H157941   0.259   2.173   1.710 -1.2949 -0.0803 -0.3660
12150TIP3    H257942   0.158   2.282   1.680  0.3160  1.7486  0.6268
12151TIP3   OH257943   5.773   1.601   3.864 -0.3014 -0.2097 -0.2930
12151TIP3    H157944   5.818   1.581   3.947 -0.8696  0.2022  0.1227
12151TIP3    H257945   5.733   1.686   3.879 -0.6627 -0.2711 -0.8977
12152TIP3   OH257946   4.546   2.675  14.786 -0.4563 -0.3248  0.1541
12152TIP3    H157947   4.503   2.719  14.859 -0.2020 -1.4298  0.9970
12152TIP3    H257948   4.474   2.653  14.726 -0.6550  0.6751  0.0187
12153TIP3   OH257949   6.697   2.535  16.215 -0.1500 -0.3452  0.0032
12153TIP3    H157950   6.615   2.496  16.245  1.7845 -2.5648  2.9361
12153TIP3    H257951   6.711   2.497  16.129 -1.6192 -0.8275 -0.0536
12154TIP3   OH257952   3.140   1.674  15.674  0.1847  0.6997  0.1657
12154TIP3    H157953   3.045   1.659  15.669  0.3508 -0.0594 -1.1231
12154TIP3    H257954   3.164   1.642  15.761 -0.8230  1.4327  0.7299
12155TIP3   OH257955   3.458   6.227   6.541  0.2442 -0.4058  0.2808
12155TIP3    H157956   3.540   6.273   6.526 -0.5304  1.4692  1.4331
12155TIP3    H257957   3.465   6.193   6.630 -1.2266  2.2611  1.5530
12156TIP3   OH257958   2.720   1.039   3.801  0.2940  0.6652 -0.3077
12156TIP3    H157959   2.678   1.119   3.832 -1.1942 -0.3247  0.3933
12156TIP3    H257960   2.653   0.971   3.813  2.2500 -1.1194  1.3493
12157TIP3   OH257961   2.192   1.955  15.050  0.2698  0.3927  0.1798
12157TIP3    H157962   2.183   1.919  14.962 -1.5597 -0.2035  0.5904
12157TIP3    H257963   2.244   2.035  15.037  0.5669 -0.0164 -1.3438
12158TIP3   OH257964   0.487   5.986   2.067 -0.1003 -0.1137  0.5741
12158TIP3    H157965   0.540   5.912   2.095 -0.5472 -0.1552  1.3391
12158TIP3    H257966   0.408   5.981   2.121 -0.6279  0.2810 -0.1368
12159TIP3   OH257967   5.301   1.471  12.255 -0.3667  0.1554 -0.2770
12159TIP3    H157968   5.310   1.489  12.349  2.7404 -0.0587 -0.4434
12159TIP3    H257969   5.247   1.393  12.251 -2.4626  1.4227  1.1521
12160TIP3   OH257970   4.461   0.350   5.310 -0.6910  0.2515 -0.4008
12160TIP3    H157971   4.404   0.412   5.357 -1.3055 -0.4779 -0.1644
12160TIP3    H257972   4.431   0.264   5.338  1.8609 -0.1900  1.3731
12161TIP3   OH257973   5.790   0.527   1.617  0.4699 -0.3057 -0.0603
12161TIP3    H157974   5.750   0.563   1.696 -1.4391 -1.1632 -0.5905
12161TIP3    H257975   5.717   0.502   1.562  1.7608 -0.9292 -1.5705
12162TIP3   OH257976   4.057   4.188  13.517 -0.1220 -0.2973 -0.2221
12162TIP3    H157977   4.015   4.121  13.464  1.5019 -0.1811 -1.7472
12162TIP3    H257978   4.150   4.179  13.498  0.3522  0.9467  1.2661
12163TIP3   OH257979   4.977   1.720  15.633 -0.2439 -0.5748  0.3465
12163TIP3    H157980   4.911   1.651  15.633 -0.6176 -0.2221 -0.5132
12163TIP3    H257981   5.059   1.674  15.653  0.5444 -2.3316 -5.1538
12164TIP3   OH257982   6.082   5.559   4.611 -0.1652  0.4239 -0.2393
12164TIP3    H157983   6.067   5.484   4.669 -0.7468  1.5385  1.1203
12164TIP3    H257984   6.155   5.532   4.555 -1.8443 -2.0265 -1.3951
12165TIP3   OH257985   1.905   2.558   2.804 -0.1906 -0.0167 -0.0523
12165TIP3    H157986   1.961   2.562   2.727  0.8518  0.1741  0.6958
12165TIP3    H257987   1.928   2.635   2.856  0.9414 -1.4018  1.6426
12166TIP3   OH257988   1.135   5.580  12.940  0.1123  0.1134  0.2157
12166TIP3    H157989   1.141   5.521  13.016 -0.3581  0.5450  0.5995
12166TIP3    H257990   1.042   5.601  12.934  0.2601  0.7319  0.0188
12167TIP3   OH257991   3.966   1.072  13.679 -0.2378  0.1400  0.3135
12167TIP3    H157992   3.928   0.994  13.720  0.8093 -0.9548 -0.7240
12167TIP3    H257993   3.947   1.143  13.740 -2.2404 -0.6966  0.7397
12168TIP3   OH257994   5.584   0.032   2.115  0.1736 -0.7870  0.4269
12168TIP3    H157995   5.530   0.090   2.061  0.9165 -0.7604 -0.3029
12168TIP3    H257996   5.553   0.047   2.204 -0.1595  0.1662  0.1619
12169TIP3   OH257997   2.839   3.486   4.068  0.9649 -0.1475 -0.0599
12169TIP3    H157998   2.785   3.564   4.074  0.7018 -0.4395  2.2714
12169TIP3    H257999   2.908   3.509   4.005 -1.5594  0.3339 -2.8585
12170TIP3   OH258000   4.291   1.097   2.813  0.1372 -0.5549  0.0198
12170TIP3    H158001   4.378   1.058   2.817  0.6368  0.5347  0.0268
12170TIP3    H258002   4.275   1.131   2.901  1.4948  2.9537 -0.9551
12171TIP3   OH258003   3.385   0.243  14.170 -0.4456 -0.1939 -0.8709
12171TIP3    H158004   3.423   0.330  14.160 -1.3750  0.0310 -2.9302
12171TIP3    H258005   3.456   0.183  14.147 -0.0974  0.0376 -0.4272
12172TIP3   OH258006   5.237   4.866   3.008 -0.0335 -0.0045  0.6256
12172TIP3    H158007   5.177   4.909   2.947 -1.7621  1.1337  2.9545
12172TIP3    H258008   5.258   4.933   3.073  0.9537 -1.3994  1.8127
12173TIP3   OH258009   6.828   6.596  14.373 -0.8319  0.2830 -0.7685
12173TIP3    H158010   6.797   6.631  14.289 -4.2461  1.9497  0.9727
12173TIP3    H258011   6.765   6.629  14.437  2.4715  0.3966  2.7503
12174TIP3   OH258012   4.869   0.595  11.535  0.1369 -0.5416  0.1856
12174TIP3    H158013   4.882   0.551  11.452  0.9695  0.0923 -0.0365
12174TIP3    H258014   4.775   0.591  11.551 -0.1803  0.2886 -1.3390
12175TIP3   OH258015   4.457   5.461  14.588  0.1990 -0.0254 -0.1543
12175TIP3    H158016   4.549   5.441  14.604 -0.3429 -2.0948  0.6517
12175TIP3    H258017   4.456   5.555  14.568  2.4204  0.1138  0.1649
12176TIP3   OH258018   5.790   4.823  10.459  0.1395  0.0019  0.0976
12176TIP3    H158019   5.730   4.847  10.389  0.7610 -1.7427 -1.1000
12176TIP3    H258020   5.739   4.762  10.513  0.4006 -0.4632 -0.1761
12177TIP3   OH258021   5.692   0.519   2.941 -0.1867 -0.0824 -0.0780
12177TIP3    H158022   5.666   0.488   3.028  0.6993  0.1236  0.2677
12177TIP3    H258023   5.787   0.515   2.942 -0.1284  0.9573 -0.6556
12178TIP3   OH258024   1.133   2.648  16.477 -0.4521 -0.1847 -0.4300
12178TIP3    H158025   1.218   2.609  16.499  0.5971  0.8100 -2.4714
12178TIP3    H258026   1.070   2.599  16.531  1.7191  2.2234  4.9902
12179TIP3   OH258027   5.918   1.069  14.735  0.3090 -0.5251  0.1568
12179TIP3    H158028   5.837   1.075  14.786 -0.1607 -0.1655 -0.6199
12179TIP3    H258029   5.918   0.979  14.702  0.2803 -0.5541  0.2340
12180TIP3   OH258030   0.596   5.939   4.639 -0.0827 -0.6994 -0.2009
12180TIP3    H158031   0.503   5.963   4.637 -0.3026 -1.5069 -0.0043
12180TIP3    H258032   0.618   5.924   4.547 -0.2174 -0.7653 -0.2232
12181TIP3   OH258033   2.161   0.425   2.428 -0.4904  0.0312  0.3764
12181TIP3    H158034   2.106   0.503   2.416 -2.0775 -1.1612 -0.3995
12181TIP3    H258035   2.246   0.460   2.454 -0.8675  2.0874 -0.9368
12182TIP3   OH258036   5.953   3.211   0.547  0.1933  0.7318  0.0691
12182TIP3    H158037   6.012   3.204   0.622  2.3127  3.6820 -1.1045
12182TIP3    H258038   5.893   3.282   0.570 -1.6772 -0.8783  0.4024
12183TIP3   OH258039   1.060   1.774   6.442 -0.1208  0.0927 -0.2835
12183TIP3    H158040   0.993   1.740   6.382 -0.1022 -1.1500  0.3645
12183TIP3    H258041   1.055   1.869   6.432  0.4444 -0.0924 -2.8502
12184TIP3   OH258042   0.458   5.838  14.398 -0.3224 -0.0274 -0.2538
12184TIP3    H158043   0.513   5.796  14.332 -0.7115 -1.1605  0.1155
12184TIP3    H258044   0.414   5.909  14.351 -0.8855 -1.0538 -1.3287
12185TIP3   OH258045   6.076   6.030   4.016  0.1896  0.6235  0.3822
12185TIP3    H158046   6.129   6.105   3.987  0.4486  1.1634  2.1433
12185TIP3    H258047   6.093   6.023   4.110 -0.3367 -1.2633  0.3789
12186TIP3   OH258048   5.931   3.576   4.306 -0.0499  0.0116  0.0260
12186TIP3    H158049   5.985   3.560   4.384  0.6649 -0.5579 -0.5775
12186TIP3    H258050   5.985   3.633   4.251  0.3884 -1.3848 -1.0374
12187TIP3   OH258051   6.412   5.081   3.925  0.2585 -1.0001  0.1672
12187TIP3    H158052   6.443   5.162   3.884 -0.6676  0.0711  1.4609
12187TIP3    H258053   6.367   5.035   3.854  0.9890 -0.4998 -0.6508
12188TIP3   OH258054   2.885   0.704  14.651 -0.1796 -0.2468 -0.9001
12188TIP3    H158055   2.831   0.763  14.599  0.1195 -0.7458 -1.8012
12188TIP3    H258056   2.970   0.704  14.607 -0.0157 -0.9317 -0.6013
12189TIP3   OH258057   2.436   2.347  14.485 -0.3774  0.6627  0.6917
12189TIP3    H158058   2.469   2.259  14.467  0.5202  0.9883  0.6920
12189TIP3    H258059   2.440   2.355  14.580 -1.3386  0.3741  0.7606
12190TIP3   OH258060   3.633   0.433   6.539 -0.3145 -0.8884  0.4853
12190TIP3    H158061   3.711   0.426   6.485 -1.5817 -0.4017 -1.5016
12190TIP3    H258062   3.656   0.496   6.607  0.5201  0.5564 -1.0590
12191TIP3   OH258063   3.205   2.168  15.090  0.0762  0.4214 -0.1327
12191TIP3    H158064   3.160   2.110  15.152 -0.8667  0.5370 -0.7056
12191TIP3    H258065   3.252   2.230  15.146  0.0852 -0.1164  0.4760
12192TIP3   OH258066   2.597   1.189   6.339  0.2457 -0.2016 -0.2653
12192TIP3    H158067   2.534   1.141   6.285 -1.9602  1.5714  0.5847
12192TIP3    H258068   2.593   1.146   6.425  0.2931 -0.1582 -0.2414
12193TIP3   OH258069   1.632   0.318   4.482  0.0473  0.1082  1.1736
12193TIP3    H158070   1.537   0.309   4.468  0.1309  1.0201 -0.1499
12193TIP3    H258071   1.639   0.361   4.567 -0.6250 -1.8997  2.3363
12194TIP3   OH258072   5.099   4.347   1.066  0.3885 -0.5680 -0.3232
12194TIP3    H158073   5.111   4.253   1.060  0.5986 -0.7181  1.7064
12194TIP3    H258074   5.159   4.375   1.135 -0.9773  0.7444  0.4090
12195TIP3   OH258075   6.687   5.079   2.777 -0.2665 -0.0201 -0.2121
12195TIP3    H158076   6.764   5.041   2.818 -0.0229 -0.9843 -1.4870
12195TIP3    H258077   6.614   5.051   2.833  0.0901 -0.9779 -0.2034
12196TIP3   OH258078   3.958   2.092  17.070 -0.4779 -0.4816 -0.0626
12196TIP3    H158079   3.944   2.087  16.975 -1.0543 -0.4103  0.0178
12196TIP3    H258080   3.872   2.078  17.108 -0.7181  1.8197  0.3886
12197TIP3   OH258081   5.044   0.451  16.932 -0.3464 -0.4741 -0.2389
12197TIP3    H158082   4.978   0.458  16.862  1.5760 -0.2875 -2.1373
12197TIP3    H258083   5.109   0.518  16.910  1.5331 -2.0288  0.3208
12198TIP3   OH258084   4.829   0.021   2.343 -0.2272  0.1217 -0.4235
12198TIP3    H158085   4.857  -0.016   2.259  3.0668  1.4039 -0.0377
12198TIP3    H258086   4.891  -0.015   2.407 -1.7234  0.3626  1.2332
12199TIP3   OH258087   3.390   4.909   2.075 -0.0220  0.0964 -0.8932
12199TIP3    H158088   3.379   4.828   2.024  3.4118 -0.3295 -1.2122
12199TIP3    H258089   3.355   4.978   2.018 -1.3640 -0.9579 -1.3873
12200TIP3   OH258090   1.112   2.704   2.857  0.6464  0.5063 -0.4356
12200TIP3    H158091   1.144   2.719   2.768  1.6595 -1.3194 -0.4250
12200TIP3    H258092   1.147   2.619   2.881 -1.8791 -0.3099  0.7131
12201TIP3   OH258093   3.785   3.879   0.828  0.7621  0.3012 -0.6317
12201TIP3    H158094   3.755   3.957   0.781 -0.8729  0.3823  0.4810
12201TIP3    H258095   3.754   3.891   0.917  0.9595 -1.3734 -0.2981
12202TIP3   OH258096   3.422   6.659  11.620 -0.2025 -0.1971 -0.3404
12202TIP3    H158097   3.398   6.751  11.614  0.1399 -0.2099 -2.2840
12202TIP3    H258098   3.515   6.661  11.646 -0.3691 -0.0284  0.2680
12203TIP3   OH258099   1.858   2.717  13.532  0.4161 -0.5828 -0.5448
12203TIP3    H158100   1.904   2.732  13.615 -1.0766 -2.3420  0.6798
12203TIP3    H258101   1.817   2.631  13.542 -1.9364  0.2388 -2.1137
12204TIP3   OH258102   0.984   3.640   5.495  0.1763  0.5803 -0.6247
12204TIP3    H158103   1.004   3.651   5.588 -1.3166  0.9556 -0.3223
12204TIP3    H258104   0.953   3.550   5.487  0.0097  0.6444 -0.7005
12205TIP3   OH258105   3.182   4.037  12.657 -0.2169  0.1036 -0.1636
12205TIP3    H158106   3.185   4.113  12.600  0.7208 -0.4887 -0.9401
12205TIP3    H258107   3.231   3.970  12.610  0.1358 -0.5658  1.1161
12206TIP3   OH258108   6.103   4.521  17.067 -0.4398  0.2279  0.8911
12206TIP3    H158109   6.188   4.551  17.098  0.0037 -1.0321  0.9099
12206TIP3    H258110   6.041   4.554  17.132  0.3218 -1.1922  2.3928
12207TIP3   OH258111   4.423   5.976  11.767  0.0827  0.3628 -0.9201
12207TIP3    H158112   4.401   6.014  11.852  0.8739 -0.5474 -0.2910
12207TIP3    H258113   4.464   6.047  11.719 -2.8667  1.7568 -1.6567
12208TIP3   OH258114   6.305   4.693   1.306  0.6265 -0.1943 -0.8207
12208TIP3    H158115   6.312   4.605   1.270 -0.3827 -0.3242 -0.7314
12208TIP3    H258116   6.300   4.751   1.230 -2.3806 -0.5349 -0.9970
12209TIP3   OH258117   1.771   4.708   1.691  0.0263 -0.1082  0.2100
12209TIP3    H158118   1.798   4.706   1.599  2.1324  0.3401  0.7758
12209TIP3    H258119   1.710   4.782   1.696  0.2138  0.1242 -0.7318
12210TIP3   OH258120   1.442   1.939  13.531 -0.5538  0.0818  0.1536
12210TIP3    H158121   1.512   1.982  13.581 -2.1999  0.6188  2.1623
12210TIP3    H258122   1.409   2.007  13.472  0.7434 -0.2517 -0.9906
12211TIP3   OH258123   6.761   1.880  11.400 -0.3995 -0.9172  0.2880
12211TIP3    H158124   6.832   1.818  11.415  0.5580  0.1853  0.4764
12211TIP3    H258125   6.732   1.904  11.488 -0.8873 -1.2201  0.2132
12212TIP3   OH258126   4.024   1.480   5.613  0.2224  0.1267  0.0990
12212TIP3    H158127   3.995   1.490   5.522  1.2068 -0.7881 -0.3346
12212TIP3    H258128   4.095   1.543   5.622  0.3845 -0.0570  0.1106
12213TIP3   OH258129   3.410   2.728   3.878 -0.0453  0.0773  0.1481
12213TIP3    H158130   3.479   2.671   3.913 -1.8265 -1.1894  1.8286
12213TIP3    H258131   3.379   2.777   3.954 -1.2406  0.3529 -0.4969
12214TIP3   OH258132   1.596   6.356   1.788  0.5026  0.3528 -0.1203
12214TIP3    H158133   1.581   6.440   1.743  2.1943  0.5171 -0.4465
12214TIP3    H258134   1.619   6.295   1.718  1.7735  0.2678  0.3310
12215TIP3   OH258135   2.110   1.713  13.558 -0.0116 -0.6295  0.7703
12215TIP3    H158136   2.062   1.740  13.480 -0.1661  0.8738  1.3488
12215TIP3    H258137   2.185   1.664  13.524 -1.1545 -1.7878 -0.1986
12216TIP3   OH258138   5.094   5.541  11.595 -0.6465 -0.4830 -0.5877
12216TIP3    H158139   5.071   5.498  11.678 -0.2620 -0.2145 -0.3384
12216TIP3    H258140   5.028   5.608  11.583 -1.3324 -1.2164 -1.0460
12217TIP3   OH258141   3.914   0.752  11.818  0.0328 -0.1867  0.0599
12217TIP3    H158142   4.009   0.742  11.812 -0.0224 -1.8026  1.2698
12217TIP3    H258143   3.898   0.775  11.909 -0.8297 -1.8934  0.3936
12218TIP3   OH258144   0.786   4.224  13.568  0.2817  0.4680 -0.9011
12218TIP3    H158145   0.858   4.172  13.531  0.0322 -1.3328  0.9613
12218TIP3    H258146   0.711   4.163  13.568 -1.5793  2.5037 -3.5010
12219TIP3   OH258147   3.014   4.705   3.282  0.0588 -0.1336 -1.0779
12219TIP3    H158148   3.110   4.707   3.287  0.0414 -1.0958  1.0210
12219TIP3    H258149   2.992   4.613   3.297 -1.2155  0.3497  0.2488
12220TIP3   OH258150   1.494   5.779   2.619 -0.3600 -0.1615 -0.3689
12220TIP3    H158151   1.489   5.730   2.537  0.2103 -2.1211  0.6937
12220TIP3    H258152   1.406   5.774   2.655 -0.2548 -0.6283 -0.1638
12221TIP3   OH258153   4.174   4.595   4.209 -0.7102  0.2410 -0.6643
12221TIP3    H158154   4.125   4.620   4.130  1.0519  1.4733 -1.4332
12221TIP3    H258155   4.194   4.502   4.196 -2.8185 -0.3334 -0.2837
12222TIP3   OH258156   1.990   5.399  16.947 -0.3174 -0.0503 -0.4480
12222TIP3    H158157   2.067   5.451  16.922 -0.2264 -0.3416 -0.8023
12222TIP3    H258158   1.949   5.448  17.017  0.4538 -0.1196  0.0631
12223TIP3   OH258159   0.234   6.134  15.599  0.1210  0.1000  0.2875
12223TIP3    H158160   0.285   6.158  15.522  1.3836 -3.2074 -0.0692
12223TIP3    H258161   0.157   6.090  15.563 -0.0043 -0.1902  0.8987
12224TIP3   OH258162   2.805   0.827   4.009 -0.3592 -0.4622 -0.0232
12224TIP3    H158163   2.804   0.922   4.015 -0.8855 -0.1236 -3.4115
12224TIP3    H258164   2.712   0.802   4.012 -0.1937 -0.9750  1.5182
12225TIP3   OH258165   6.674   4.603   3.872  0.2842  0.0128  0.2112
12225TIP3    H158166   6.761   4.572   3.896  0.2606 -0.7729 -0.6414
12225TIP3    H258167   6.690   4.676   3.813  0.3960 -0.8392 -0.8411
12226TIP3   OH258168   0.760   6.455   5.409 -0.4966  0.1997  0.0710
12226TIP3    H158169   0.851   6.484   5.419 -0.0410 -0.9139 -0.6793
12226TIP3    H258170   0.750   6.440   5.315 -1.2049 -0.4743  0.2444
12227TIP3   OH258171   6.421   4.267   3.828 -0.2321  0.7304 -0.6755
12227TIP3    H158172   6.479   4.209   3.877  0.0983  1.3470 -0.3247
12227TIP3    H258173   6.472   4.347   3.816 -1.0318  1.3128 -0.2973
12228TIP3   OH258174   1.580   0.440  14.522  0.2605 -0.9417  0.4168
12228TIP3    H158175   1.496   0.440  14.568  0.6676 -1.1629  1.1803
12228TIP3    H258176   1.645   0.437  14.592  0.9121 -0.4196 -0.1589
12229TIP3   OH258177   3.081   6.806   2.399  0.1628  0.5026  0.0894
12229TIP3    H158178   3.104   6.896   2.420 -2.1960  1.0963  0.4119
12229TIP3    H258179   3.087   6.802   2.303  3.4274 -0.0165  0.1996
12230TIP3   OH258180   4.565   5.014  13.725 -0.4918 -0.4211 -0.1014
12230TIP3    H158181   4.489   4.959  13.746 -1.3648  0.0369 -1.8393
12230TIP3    H258182   4.533   5.104  13.735 -0.0739 -0.2227 -0.4908
12231TIP3   OH258183   5.775   6.342   5.804  0.2966 -0.0009 -0.0648
12231TIP3    H158184   5.739   6.342   5.892  0.2549 -1.0390 -0.0727
12231TIP3    H258185   5.711   6.295   5.751  0.5414  0.2026 -0.5569
12232TIP3   OH258186   2.171   4.162   5.652 -0.2188  0.0587  0.2389
12232TIP3    H158187   2.261   4.186   5.629 -0.8148  1.4120 -0.7933
12232TIP3    H258188   2.128   4.148   5.568 -0.3053 -3.4861  0.6909
12233TIP3   OH258189   5.293   4.598  11.560  0.2303  0.2985 -0.0941
12233TIP3    H158190   5.274   4.658  11.632  0.4931 -1.2097  1.2926
12233TIP3    H258191   5.224   4.532  11.564  1.0624 -0.6222 -0.2810
12234TIP3   OH258192   5.234   0.421   1.439 -0.4923  0.0735  0.0117
12234TIP3    H158193   5.325   0.423   1.469 -0.5906  2.1233  0.3687
12234TIP3    H258194   5.238   0.447   1.347 -0.7575  1.2878  0.3158
12235TIP3   OH258195   2.836   4.851   5.795  0.3995 -0.3467  0.3042
12235TIP3    H158196   2.778   4.908   5.745 -0.8879 -1.2017  0.7808
12235TIP3    H258197   2.899   4.910   5.835  0.4588  0.5085 -0.9887
12236TIP3   OH258198   1.129   1.808   2.412 -0.1321 -0.7165  0.1613
12236TIP3    H158199   1.174   1.771   2.336 -0.0455  0.0815 -0.1888
12236TIP3    H258200   1.038   1.818   2.383  0.2401  1.2410 -0.4931
12237TIP3   OH258201   5.480   3.452  12.359  0.4226 -0.5700  0.2156
12237TIP3    H158202   5.504   3.412  12.443 -2.9658  0.0906  1.6782
12237TIP3    H258203   5.415   3.518  12.382 -2.0363 -1.6017 -3.0629
12238TIP3   OH258204   6.400   1.179   4.230  0.2081  0.2373  0.3313
12238TIP3    H158205   6.357   1.157   4.147  0.5097  0.0210  0.2309
12238TIP3    H258206   6.474   1.119   4.236 -0.2854 -0.3046  1.1573
12239TIP3   OH258207   5.568   4.344  12.555 -0.4179  0.5078  0.0034
12239TIP3    H158208   5.637   4.280  12.542 -1.6091 -0.5714 -1.3562
12239TIP3    H258209   5.606   4.409  12.615  2.0336  0.4019 -1.3107
12240TIP3   OH258210   1.716   0.275  10.898 -0.2759  0.3415 -0.4720
12240TIP3    H158211   1.748   0.246  10.812  0.8477 -0.6883  0.2750
12240TIP3    H258212   1.621   0.280  10.887 -0.2698 -1.1051 -1.4005
12241TIP3   OH258213   2.369   0.965   4.025  0.2939  0.3195  0.0249
12241TIP3    H158214   2.317   0.941   4.102 -1.1782 -0.4756 -1.1612
12241TIP3    H258215   2.320   1.035   3.983 -1.0472 -1.8591 -2.2671
12242TIP3   OH258216   3.446   3.606  15.207  0.3324 -0.0856  0.1194
12242TIP3    H158217   3.536   3.631  15.226  0.4624 -0.1773 -0.3607
12242TIP3    H258218   3.450   3.570  15.119  0.3425 -2.7454  1.1262
12243TIP3   OH258219   3.743   3.406   0.151 -0.0682 -0.2550  0.4099
12243TIP3    H158220   3.677   3.435   0.088  0.2844  0.5667  0.4032
12243TIP3    H258221   3.698   3.408   0.235  0.4976  2.4751  0.7490
12244TIP3   OH258222   0.359   4.215  15.830  0.7415  0.2560  0.6050
12244TIP3    H158223   0.430   4.172  15.877  0.0006  1.5812  3.1657
12244TIP3    H258224   0.367   4.308  15.854 -1.5656  0.5092  0.6855
12245TIP3   OH258225   0.286   6.528  13.393 -0.0540  0.7141  0.4196
12245TIP3    H158226   0.372   6.519  13.434  0.0039 -2.0955 -0.0724
12245TIP3    H258227   0.294   6.477  13.312 -2.2124  0.2223  0.4722
12246TIP3   OH258228   1.525   1.379  14.768  0.0368  0.1609 -0.3397
12246TIP3    H158229   1.535   1.341  14.681  1.4349  0.1422 -0.1912
12246TIP3    H258230   1.562   1.467  14.760 -1.3035  0.7788 -0.1560
12247TIP3   OH258231   5.234   3.867   2.969  0.0014 -0.1610  0.1488
12247TIP3    H158232   5.309   3.908   2.926 -0.0674  1.5338  1.5530
12247TIP3    H258233   5.237   3.900   3.059 -1.5179 -1.3306  0.6626
12248TIP3   OH258234   6.031   2.540   4.393 -0.4082 -0.1490  0.1799
12248TIP3    H158235   6.082   2.613   4.427 -1.4890 -0.0784  1.7614
12248TIP3    H258236   6.095   2.482   4.352  0.3540  2.4505 -2.7598
12249TIP3   OH258237   5.843   4.793   5.897  0.0341 -0.2062  0.2738
12249TIP3    H158238   5.902   4.798   5.822  1.3466 -1.2972  1.1716
12249TIP3    H258239   5.758   4.768   5.860  0.4992 -0.0678 -0.9034
12250TIP3   OH258240   6.002   0.367   1.695 -0.4479  0.0152 -0.2212
12250TIP3    H158241   6.073   0.335   1.639  1.1211  1.4535  0.8569
12250TIP3    H258242   5.934   0.396   1.634  0.7827  0.5884 -1.3472
12251TIP3   OH258243   1.162   5.433  13.169 -0.3362 -0.1782  0.2238
12251TIP3    H158244   1.092   5.377  13.135 -0.1640 -1.4611  1.8542
12251TIP3    H258245   1.165   5.413  13.263  0.8922  1.3287  0.5361
12252TIP3   OH258246   2.052   4.840  14.284 -0.1343 -0.8032  0.2047
12252TIP3    H158247   2.127   4.867  14.337  1.1849 -1.0019 -1.5011
12252TIP3    H258248   2.088   4.781  14.219 -1.7541 -0.7805 -0.7721
12253TIP3   OH258249   3.783   6.463  13.229  0.2251 -0.1701 -0.6181
12253TIP3    H158250   3.744   6.419  13.154  2.3818 -0.0695 -1.8763
12253TIP3    H258251   3.802   6.392  13.291  0.8409 -0.6290 -1.3153
12254TIP3   OH258252   1.800   1.660   1.123 -0.0930 -0.1497 -0.0243
12254TIP3    H158253   1.779   1.586   1.065 -1.0458  0.1010 -0.0110
12254TIP3    H258254   1.842   1.724   1.066 -3.0968  1.0942 -1.0475
12255TIP3   OH258255   1.516   1.662  13.532  0.5878  0.3132 -0.1623
12255TIP3    H158256   1.478   1.624  13.454 -1.0085 -0.5662  0.9972
12255TIP3    H258257   1.489   1.754  13.530  1.1957  0.4830 -1.0024
12256TIP3   OH258258   2.323   4.450   5.079  0.0052  0.2393 -0.4167
12256TIP3    H158259   2.241   4.498   5.091 -0.0374  0.1503 -0.3450
12256TIP3    H258260   2.338   4.452   4.985 -0.6396 -0.6459 -0.5551
12257TIP3   OH258261   3.035   1.730   1.913  0.0862  0.1345  0.6369
12257TIP3    H158262   2.955   1.754   1.866 -0.0887 -0.4566  0.6208
12257TIP3    H258263   3.106   1.746   1.850 -0.1887 -1.1548 -0.0387
12258TIP3   OH258264   4.331   0.767  10.888  0.0740 -0.3503 -0.2269
12258TIP3    H158265   4.288   0.685  10.867  2.7758 -1.5722 -1.4200
12258TIP3    H258266   4.348   0.808  10.803  1.7400 -0.2233  0.1283
12259TIP3   OH258267   0.873   5.543  12.846  0.0900  0.2477  0.1026
12259TIP3    H158268   0.790   5.496  12.857 -0.6608  1.0808 -1.6660
12259TIP3    H258269   0.860   5.597  12.768  2.5930 -0.2327 -0.7303
12260TIP3   OH258270   2.256   6.218   3.923 -1.0201  0.5631  0.1405
12260TIP3    H158271   2.223   6.136   3.885 -1.9124 -0.2486  2.5246
12260TIP3    H258272   2.247   6.282   3.852 -0.4506 -1.3181 -1.7434
12261TIP3   OH258273   5.418   6.288   5.101  0.2681  0.3179 -0.4787
12261TIP3    H158274   5.363   6.256   5.030 -1.6542  1.2567  0.5273
12261TIP3    H258275   5.393   6.380   5.111  3.4555  1.4264 -1.2770
12262TIP3   OH258276   0.838   3.150  11.526  0.1406  0.1658  0.0125
12262TIP3    H158277   0.786   3.083  11.571 -1.9491  1.9209  0.3592
12262TIP3    H258278   0.883   3.197  11.596  0.3105  0.1731 -0.1006
12263TIP3   OH258279   0.617   6.178   3.275  0.3565 -0.3596  0.1714
12263TIP3    H158280   0.597   6.231   3.198 -0.7814 -0.9691  0.0121
12263TIP3    H258281   0.691   6.123   3.249  1.3253  0.8926  0.2322
12264TIP3   OH258282   0.706   6.676  11.447  0.7590  0.0001  0.3552
12264TIP3    H158283   0.665   6.637  11.523  1.1769  0.2544  0.7171
12264TIP3    H258284   0.698   6.771  11.461  2.6064  0.0922  1.0976
12265TIP3   OH258285   1.354   5.497  12.510  0.3545  0.0942 -0.3191
12265TIP3    H158286   1.274   5.446  12.522  1.0582 -0.8662  0.5986
12265TIP3    H258287   1.424   5.433  12.523  1.2678  1.1001 -0.1667
12266TIP3   OH258288   4.907   3.987  12.740 -0.0569 -0.1896  0.4847
12266TIP3    H158289   4.982   4.043  12.721  1.1845 -1.6856  0.7621
12266TIP3    H258290   4.854   3.988  12.660  0.5598  0.4314  0.0774
12267TIP3   OH258291   4.146   0.876  12.169  0.3711 -0.4313  0.4607
12267TIP3    H158292   4.095   0.824  12.231  0.9100 -0.8566  0.5556
12267TIP3    H258293   4.090   0.952  12.149 -1.0306 -1.7053 -0.7339
12268TIP3   OH258294   2.429   0.622   0.596  0.1601  0.0467  0.1316
12268TIP3    H158295   2.483   0.584   0.527  1.2462  0.7222  0.5767
12268TIP3    H258296   2.341   0.587   0.580  0.3743  0.1806 -1.5767
12269TIP3   OH258297   4.829   2.763  14.432 -0.1419  0.5576  0.0362
12269TIP3    H158298   4.824   2.848  14.475  1.6811  0.4268  0.5910
12269TIP3    H258299   4.897   2.773  14.366 -1.7644  0.2647 -1.7959
12270TIP3   OH258300   0.300   0.748  16.564 -0.8168  0.4948  0.2745
12270TIP3    H158301   0.384   0.793  16.572 -0.0479 -0.6719 -0.7587
12270TIP3    H258302   0.259   0.787  16.487 -0.0873 -0.5767 -0.7079
12271TIP3   OH258303   0.555   2.667   1.922 -0.3925 -1.0615 -0.2622
12271TIP3    H158304   0.524   2.584   1.887 -0.7866 -0.4260 -1.4506
12271TIP3    H258305   0.534   2.732   1.855  2.0479 -0.3348 -0.4159
12272TIP3   OH258306   4.788   1.630  11.642  0.2113 -0.4863  0.2217
12272TIP3    H158307   4.727   1.686  11.595 -0.9835 -0.8994  1.2125
12272TIP3    H258308   4.771   1.649  11.735 -1.0030 -3.1724  0.6547
12273TIP3   OH258309   2.785   5.064   2.558 -0.1061 -0.6368 -0.3224
12273TIP3    H158310   2.721   5.111   2.610  0.5065  0.3436 -0.4372
12273TIP3    H258311   2.849   5.130   2.532 -0.0070 -1.2310 -1.7122
12274TIP3   OH258312   6.345   1.487  12.119  0.1102 -0.0130  0.4810
12274TIP3    H158313   6.322   1.423  12.186 -0.1135  0.4965  0.8963
12274TIP3    H258314   6.353   1.570  12.166  2.7801 -0.1159  0.3677
12275TIP3   OH258315   0.328   0.568  16.258  0.4191  0.2683  0.0933
12275TIP3    H158316   0.318   0.628  16.332 -1.9425 -0.0668  0.1082
12275TIP3    H258317   0.318   0.481  16.297 -0.5859  0.0794 -0.5628
12276TIP3   OH258318   2.646   4.510   5.144 -0.0891  0.2363  0.2370
12276TIP3    H158319   2.643   4.586   5.202 -1.9785 -1.1928  2.1273
12276TIP3    H258320   2.644   4.435   5.202 -1.2488 -1.2933 -1.6519
12277TIP3   OH258321   6.858   4.362  12.929  0.0699 -0.1860  0.4802
12277TIP3    H158322   6.838   4.291  12.869 -1.0372 -0.7548  1.4859
12277TIP3    H258323   6.778   4.374  12.981 -0.6664  3.3192 -1.1482
12278TIP3   OH258324   6.621   5.389  15.793 -0.0640  0.1328  0.2607
12278TIP3    H158325   6.696   5.367  15.848 -1.2912 -0.6142  1.6953
12278TIP3    H258326   6.594   5.476  15.824 -0.4867 -0.0953  0.5319
12279TIP3   OH258327   1.708   4.511   1.966 -0.0292  0.2803 -0.1046
12279TIP3    H158328   1.803   4.520   1.964  0.1590 -1.2487  0.1111
12279TIP3    H258329   1.680   4.520   1.875  0.8619 -3.4021 -0.9330
12280TIP3   OH258330   3.172   1.370   3.713 -0.1644 -0.3445  0.5062
12280TIP3    H158331   3.185   1.460   3.746 -0.2134 -0.0608 -0.2382
12280TIP3    H258332   3.230   1.317   3.767 -1.3752 -0.1197  2.1086
12281TIP3   OH258333   5.279   1.025  11.454  0.6234  0.2134  0.1279
12281TIP3    H158334   5.230   0.945  11.437  1.8027 -0.4089 -0.4902
12281TIP3    H258335   5.307   1.017  11.545  0.1383  0.2755  0.2887
12282TIP3   OH258336   4.097   1.824  10.512 -0.1587 -0.1902 -0.1297
12282TIP3    H158337   4.082   1.916  10.534  1.4730  0.1303 -0.2742
12282TIP3    H258338   4.016   1.797  10.469  0.4354  2.1391 -3.0558
12283TIP3   OH258339   5.095   2.673   1.668  0.0558  0.0812 -0.4447
12283TIP3    H158340   5.180   2.714   1.680 -0.2498  0.5516  0.1670
12283TIP3    H258341   5.046   2.694   1.748 -0.6963 -0.0220 -0.8619
12284TIP3   OH258342   2.752   3.145   3.212  0.2914 -0.2187 -0.2193
12284TIP3    H158343   2.764   3.167   3.305 -0.5220  0.4577 -0.2660
12284TIP3    H258344   2.817   3.077   3.195 -1.2744 -2.3050  1.5473
12285TIP3   OH258345   0.100   6.837   2.022  0.0525  0.6407 -0.0797
12285TIP3    H158346   0.009   6.810   2.034 -0.2007  1.4157 -0.1699
12285TIP3    H258347   0.147   6.756   2.007 -0.7616  0.2929 -0.8585
12286TIP3   OH258348   4.687   3.162   4.016  0.0509 -0.3703  0.3666
12286TIP3    H158349   4.779   3.162   3.989 -0.4372  2.5149 -1.7743
12286TIP3    H258350   4.687   3.204   4.102  0.7863 -1.2124  0.7927
12287TIP3   OH258351   6.110   4.691   1.521  0.6028 -0.1104  0.8285
12287TIP3    H158352   6.124   4.772   1.569  1.4374  0.9095 -1.0093
12287TIP3    H258353   6.185   4.685   1.462 -0.2616 -1.3710 -0.2015
12288TIP3   OH258354   6.305   1.784   2.441  0.0521 -0.3041  0.8485
12288TIP3    H158355   6.275   1.701   2.403  1.3837 -1.1497  1.5585
12288TIP3    H258356   6.238   1.847   2.415 -0.3377 -1.3278 -0.8222
12289TIP3   OH258357   0.205   0.209   4.998 -0.1661 -0.3597 -0.3440
12289TIP3    H158358   0.241   0.275   5.057 -0.1145 -0.3999 -0.3301
12289TIP3    H258359   0.280   0.157   4.971 -0.2865 -0.7887  0.1233
12290TIP3   OH258360   1.231   4.955  15.398  0.2793 -0.3797 -0.7476
12290TIP3    H158361   1.239   4.867  15.362 -0.1947 -0.7738  0.0778
12290TIP3    H258362   1.233   4.942  15.493 -1.3707  0.3258 -0.5855
12291TIP3   OH258363   0.316   1.984  11.430 -0.7759  0.1445 -0.3252
12291TIP3    H158364   0.309   2.052  11.497  0.1502  0.3125 -0.3815
12291TIP3    H258365   0.278   1.906  11.470  0.7929 -0.0598  0.8422
12292TIP3   OH258366   2.908   6.337   5.922  0.5058  0.1730  0.0172
12292TIP3    H158367   2.832   6.385   5.956 -0.0216  0.0626 -0.9495
12292TIP3    H258368   2.946   6.293   5.998 -1.7661 -1.6418  0.2176
12293TIP3   OH258369   3.961   4.657   6.394 -0.0235 -0.7637  0.2448
12293TIP3    H158370   3.981   4.733   6.340  1.4686 -0.9141  0.5185
12293TIP3    H258371   4.043   4.639   6.441 -1.1333 -0.8376  2.3130
12294TIP3   OH258372   3.498   1.177  16.992 -0.1103 -0.1931 -0.3282
12294TIP3    H158373   3.518   1.154  17.082  2.1089 -0.9837 -0.9645
12294TIP3    H258374   3.440   1.253  16.999  1.4273  0.8922  1.7610
12295TIP3   OH258375   5.672   2.377  11.763 -0.2692  0.4918  0.0618
12295TIP3    H158376   5.744   2.437  11.781 -0.8256  1.6593 -1.3902
12295TIP3    H258377   5.675   2.313  11.834  0.3950  2.1952  1.6359
12296TIP3   OH258378   0.469   4.328  11.626  0.1578  0.3698  0.3843
12296TIP3    H158379   0.489   4.239  11.655  0.3921  0.3521  0.1710
12296TIP3    H258380   0.427   4.369  11.702  1.1398  0.4460  0.9001
12297TIP3   OH258381   3.109   0.909  13.249 -0.2964 -0.2341  0.5281
12297TIP3    H158382   3.128   0.921  13.156 -2.7295 -0.5441 -0.0961
12297TIP3    H258383   3.033   0.965  13.264 -0.9872 -1.4910  1.8954
12298TIP3   OH258384   2.055   1.043   5.008 -0.3480  0.3230 -0.2490
12298TIP3    H158385   2.120   0.979   4.980 -0.3504  0.0697  0.2991
12298TIP3    H258386   1.971   1.001   4.990 -0.3514 -0.2296  0.9561
12299TIP3   OH258387   1.573   5.351  16.538  0.6225  0.5713 -0.2152
12299TIP3    H158388   1.494   5.370  16.587 -1.5292  0.1245 -3.2347
12299TIP3    H258389   1.593   5.259  16.558 -1.9618 -0.5626 -2.1552
12300TIP3   OH258390   2.144   4.507  15.146  0.0040 -0.6290 -0.0157
12300TIP3    H158391   2.161   4.561  15.068  0.4910 -0.7386  0.0109
12300TIP3    H258392   2.194   4.427  15.130  0.4422 -0.4840  0.5946
12301TIP3   OH258393   1.673   4.857   2.223 -0.2572 -0.0423 -0.6202
12301TIP3    H158394   1.701   4.815   2.142 -0.4766  0.0546 -0.7466
12301TIP3    H258395   1.754   4.869   2.273 -0.1391 -0.2267 -0.7643
12302TIP3   OH258396   3.358   2.531   3.148 -0.1224  0.5887  0.7042
12302TIP3    H158397   3.276   2.507   3.104 -0.6999 -0.4692  2.2805
12302TIP3    H258398   3.341   2.617   3.185  1.0753  2.5165 -2.7573
12303TIP3   OH258399   1.775   3.042  15.396  0.4266  0.1920  0.1811
12303TIP3    H158400   1.759   2.998  15.312  2.7343 -1.5883  0.5707
12303TIP3    H258401   1.821   3.122  15.372 -1.5418  1.2036 -0.3857
12304TIP3   OH258402   6.640   4.788   3.675 -0.7024 -0.9730 -0.1239
12304TIP3    H158403   6.546   4.790   3.655 -0.3966 -0.0665 -1.5892
12304TIP3    H258404   6.683   4.790   3.590  0.6562  0.6866  0.5474
12305TIP3   OH258405   3.755   2.480  15.499 -0.0562 -0.3603 -0.3247
12305TIP3    H158406   3.750   2.574  15.482 -0.5908 -0.2642  0.2991
12305TIP3    H258407   3.696   2.440  15.435 -2.6397  0.0566  1.6029
12306TIP3   OH258408   0.203   2.281  13.476  0.1773 -0.4494  0.1704
12306TIP3    H158409   0.263   2.342  13.519 -0.1377 -1.1503  1.6553
12306TIP3    H258410   0.116   2.309  13.504 -0.0248 -0.9993  0.1069
12307TIP3   OH258411   4.993   3.696   2.362  0.4117 -0.1905  0.3075
12307TIP3    H158412   4.908   3.697   2.408 -1.3458 -1.8119 -2.5813
12307TIP3    H258413   5.030   3.611   2.383 -0.8255 -1.3278 -1.7581
12308TIP3   OH258414   0.064   1.672   0.049  0.1922 -0.7614  0.0313
12308TIP3    H158415   0.060   1.721   0.131 -2.5208 -2.0146  0.7504
12308TIP3    H258416   0.050   1.581   0.074  0.3802 -1.3186 -1.7342
12309TIP3   OH258417   4.563   3.663  14.717  0.0674 -0.6856 -1.0689
12309TIP3    H158418   4.651   3.641  14.688  0.8382  0.2151  0.4501
12309TIP3    H258419   4.528   3.581  14.752  0.9041 -0.7119 -0.2672
12310TIP3   OH258420   3.927   1.450   2.778 -0.2356 -0.3261 -0.2545
12310TIP3    H158421   3.998   1.514   2.781  0.8047 -1.4529  2.1845
12310TIP3    H258422   3.971   1.366   2.770 -1.4705 -0.8997 -1.3706
12311TIP3   OH258423   5.316   4.048  13.092 -0.2403 -0.1358  0.7409
12311TIP3    H158424   5.313   3.985  13.163  1.4031 -0.1035  0.8707
12311TIP3    H258425   5.325   4.133  13.135 -1.3282  0.1039  0.5342
12312TIP3   OH258426   6.854   1.607   3.415 -0.6265 -0.9771  0.5567
12312TIP3    H158427   6.779   1.662   3.389 -0.1336 -1.2894 -1.7473
12312TIP3    H258428   6.907   1.664   3.471 -1.4296  0.0262  0.3332
12313TIP3   OH258429   0.814   2.567   5.397 -0.1717  0.7006 -0.1911
12313TIP3    H158430   0.809   2.645   5.342 -0.7267  0.5962 -0.2971
12313TIP3    H258431   0.906   2.539   5.392 -0.0306  1.1921 -0.3621
12314TIP3   OH258432   6.762   3.610  10.785  0.4006 -0.4828  0.2602
12314TIP3    H158433   6.678   3.639  10.749  0.9296 -0.0482 -0.6311
12314TIP3    H258434   6.753   3.515  10.791  0.3710 -0.5904 -1.2224
12315TIP3   OH258435   6.710   6.068   2.427  0.3891  0.2563  0.4963
12315TIP3    H158436   6.689   6.152   2.387 -1.3455 -0.7728 -0.8981
12315TIP3    H258437   6.742   6.015   2.354 -1.4819 -1.2271  0.6852
12316TIP3   OH258438   5.051   3.921   0.937 -0.4809  0.9498 -0.6721
12316TIP3    H158439   5.098   3.947   0.857  0.8513 -0.6832 -0.4828
12316TIP3    H258440   4.959   3.929   0.914 -0.1550  3.3195 -1.3933
12317TIP3   OH258441   5.203   0.294  15.925 -0.1519  0.5247  0.5454
12317TIP3    H158442   5.199   0.320  15.833  0.7878  0.3250  0.4380
12317TIP3    H258443   5.114   0.310  15.959 -1.3204 -1.9062 -1.0590
12318TIP3   OH258444   6.498   0.226   2.805  0.1674 -0.0225 -0.4764
12318TIP3    H158445   6.451   0.278   2.870 -0.3955  0.0716 -0.9443
12318TIP3    H258446   6.466   0.259   2.720 -1.3175 -2.0604 -0.7968
12319TIP3   OH258447   5.923   0.050   2.269 -0.2737  0.2500  0.0237
12319TIP3    H158448   6.011   0.014   2.254 -0.7535 -1.1416  0.4537
12319TIP3    H258449   5.879  -0.016   2.321 -1.4898  1.0840  0.0758
12320TIP3   OH258450   1.125   2.450  16.059 -0.0664  0.5498 -0.6039
12320TIP3    H158451   1.069   2.374  16.074  0.0647  0.0904 -2.2066
12320TIP3    H258452   1.157   2.438  15.969  0.2473  2.3193 -0.7597
12321TIP3   OH258453   2.652   3.247   1.012  0.9288  0.1208 -0.5565
12321TIP3    H158454   2.596   3.218   1.084  0.9523  2.3850  0.4862
12321TIP3    H258455   2.599   3.237   0.934  0.7586 -2.0500 -0.2082
12322TIP3   OH258456   6.154   5.913  14.652 -0.2498  0.8895  0.4662
12322TIP3    H158457   6.234   5.935  14.699 -0.1915 -0.0800  0.8423
12322TIP3    H258458   6.104   5.858  14.712 -1.4771  1.9414  0.4545
12323TIP3   OH258459   6.244   4.124   1.116 -0.2424 -0.2984 -0.2337
12323TIP3    H158460   6.255   4.060   1.046 -0.7715  1.5464 -2.1188
12323TIP3    H258461   6.149   4.138   1.120 -0.2830 -0.8817  1.3716
12324TIP3   OH258462   0.713   0.671   2.796  0.4692 -0.0220 -0.0016
12324TIP3    H158463   0.784   0.669   2.733 -0.2907 -0.3656 -0.8682
12324TIP3    H258464   0.725   0.752   2.844  1.9721 -0.5195  0.4986
12325TIP3   OH258465   2.261   1.287  16.083 -0.5094  0.4471 -0.0574
12325TIP3    H158466   2.206   1.324  16.013 -1.1817  2.2591  1.3405
12325TIP3    H258467   2.314   1.221  16.040 -2.7603 -0.3484 -1.7819
12326TIP3   OH258468   4.902   6.324  14.436  0.5344  0.1399  0.0474
12326TIP3    H158469   4.835   6.278  14.386  1.0659 -0.6749  0.0568
12326TIP3    H258470   4.869   6.326  14.526  0.5724 -0.3788  0.0776
12327TIP3   OH258471   2.870   0.218  12.465 -0.5268 -0.6772 -0.1409
12327TIP3    H158472   2.913   0.288  12.417 -0.3196 -1.2623 -0.8227
12327TIP3    H258473   2.778   0.224  12.439 -0.2699 -1.5426 -1.3198
12328TIP3   OH258474   2.519   3.667  16.788  0.6235 -0.6861  0.5664
12328TIP3    H158475   2.495   3.658  16.696  2.9666  1.0338 -0.3104
12328TIP3    H258476   2.558   3.583  16.812 -0.3658 -1.2794  0.1433
12329TIP3   OH258477   6.643   1.894   0.400 -0.0096 -0.7201 -0.0725
12329TIP3    H158478   6.705   1.913   0.330 -0.9989  0.7698 -0.5963
12329TIP3    H258479   6.600   1.978   0.418 -0.6763 -1.3402  1.4485
12330TIP3   OH258480   3.481   1.508  15.330  0.1922  0.4230  0.1329
12330TIP3    H158481   3.443   1.532  15.245  0.8288  1.0322  0.0145
12330TIP3    H258482   3.447   1.574  15.391 -0.0109  0.1707  0.2990
12331TIP3   OH258483   3.803   3.444  15.860  0.6717 -0.3659 -0.4925
12331TIP3    H158484   3.894   3.425  15.883  0.5667 -1.2429 -0.7577
12331TIP3    H258485   3.757   3.361  15.874  0.2097 -0.3622 -1.7789
12332TIP3   OH258486   6.444   5.817  13.661 -0.2486 -0.5020 -0.0738
12332TIP3    H158487   6.506   5.890  13.665  0.1791 -0.9036  0.8650
12332TIP3    H258488   6.438   5.786  13.751 -1.4544 -0.7832 -0.2356
12333TIP3   OH258489   5.631   5.347  14.746 -0.0433  0.0328  0.1425
12333TIP3    H158490   5.613   5.388  14.662  0.6669  0.4332  0.1794
12333TIP3    H258491   5.716   5.382  14.772 -0.9197  1.0971  1.7501
12334TIP3   OH258492   1.714   5.169  13.113 -0.4523 -0.2701  0.3677
12334TIP3    H158493   1.704   5.125  13.197  2.0265  0.1261  0.9490
12334TIP3    H258494   1.633   5.218  13.102 -3.0427 -4.1589  0.0663
12335TIP3   OH258495   2.771   2.679   5.526 -0.1281  0.0191  0.0659
12335TIP3    H158496   2.782   2.725   5.609  1.0365  0.2066 -0.1839
12335TIP3    H258497   2.845   2.706   5.473 -0.4985 -0.6213 -0.8019
12336TIP3   OH258498   5.505   1.821  14.051 -0.6080 -0.4113  0.3258
12336TIP3    H158499   5.426   1.829  13.997 -0.3504  0.8211  0.0951
12336TIP3    H258500   5.500   1.894  14.112  0.1519 -0.5629  0.5816
12337TIP3   OH258501   0.856   4.453   5.000  0.3588 -0.1282  0.1083
12337TIP3    H158502   0.816   4.381   5.048  0.0385 -1.6022 -2.1891
12337TIP3    H258503   0.948   4.453   5.026  0.4265 -1.5912 -0.0933
12338TIP3   OH258504   1.905   4.567  14.736  0.0990  0.3569  0.1974
12338TIP3    H158505   1.909   4.633  14.806  1.5690  0.5660 -0.0542
12338TIP3    H258506   1.956   4.604  14.665  0.5025 -0.8313 -0.1541
12339TIP3   OH258507   0.324   3.776   1.974 -0.6312 -0.1848 -0.2384
12339TIP3    H158508   0.312   3.855   2.027  0.8344 -0.8250  1.1363
12339TIP3    H258509   0.375   3.717   2.029 -0.0945 -1.3906 -1.9185
12340TIP3   OH258510   1.568   5.877  13.537  0.6297  0.2188 -0.0861
12340TIP3    H158511   1.516   5.934  13.593 -0.8075  0.7442 -1.8873
12340TIP3    H258512   1.545   5.788  13.565 -0.1876  0.4732  0.0721
12341TIP3   OH258513   4.679   3.039   6.182 -0.1892 -0.4027  0.3703
12341TIP3    H158514   4.583   3.038   6.185 -0.3208 -2.1131 -1.6730
12341TIP3    H258515   4.704   2.948   6.200  1.0667  0.0276  0.8789
12342TIP3   OH258516   2.962   4.551   3.690  0.1925  0.2411  0.1767
12342TIP3    H158517   2.934   4.637   3.721  2.6525 -0.3590  4.8656
12342TIP3    H258518   2.945   4.492   3.763  2.9335 -2.3143 -1.0520
12343TIP3   OH258519   0.942   3.085   5.507  0.0137  0.0631  0.2105
12343TIP3    H158520   0.971   2.995   5.495 -1.3514 -0.2603 -0.8372
12343TIP3    H258521   0.918   3.115   5.419 -0.0681  1.2778  0.6202
12344TIP3   OH258522   2.263   4.864   2.954 -0.5530 -0.0149 -0.3412
12344TIP3    H158523   2.189   4.910   2.994 -0.0067  2.9067 -2.3721
12344TIP3    H258524   2.229   4.832   2.870 -0.9600 -3.7795  1.0373
12345TIP3   OH258525   0.319   6.126  11.907 -0.4231 -0.1693  0.1153
12345TIP3    H158526   0.231   6.130  11.944  0.1765 -1.1276  1.7638
12345TIP3    H258527   0.342   6.033  11.907  1.3630  0.2071  1.7519
12346TIP3   OH258528   0.665   4.524   4.810 -0.3469 -0.6770 -0.4026
12346TIP3    H158529   0.741   4.525   4.868 -0.3297  1.1446 -0.3833
12346TIP3    H258530   0.596   4.483   4.862 -0.3127  0.8504  0.9439
12347TIP3   OH258531   2.034   6.384  12.808  0.5573  0.4286 -0.2341
12347TIP3    H158532   2.003   6.356  12.894 -1.3811 -0.4424 -1.1433
12347TIP3    H258533   2.129   6.387  12.816  0.3885  1.3415  2.1967
12348TIP3   OH258534   0.426   3.761  16.191 -0.5852  0.3263 -0.4204
12348TIP3    H158535   0.404   3.683  16.141 -0.6075 -0.8479  1.3135
12348TIP3    H258536   0.519   3.777  16.171 -0.5773 -0.1541 -0.7796
12349TIP3   OH258537   5.314   3.646   5.440 -0.0030 -0.2131 -0.2394
12349TIP3    H158538   5.391   3.702   5.447 -0.1963 -0.1046  1.6556
12349TIP3    H258539   5.330   3.592   5.363  0.6339  1.7375 -1.5543
12350TIP3   OH258540   6.195   3.834   1.310  0.5338 -0.0567  0.3073
12350TIP3    H158541   6.237   3.919   1.297 -0.9929  0.8343  0.7942
12350TIP3    H258542   6.103   3.849   1.287  0.3544 -1.7609 -0.2214
12351TIP3   OH258543   3.589   4.125   2.680 -0.0293  0.9988  0.0046
12351TIP3    H158544   3.658   4.172   2.726 -0.2591  0.6990  0.6772
12351TIP3    H258545   3.626   4.104   2.594  0.9491  0.3061  0.5765
12352TIP3   OH258546   1.280   3.585  16.081 -0.9019  0.4859 -0.4986
12352TIP3    H158547   1.283   3.580  15.986 -1.0884 -1.6360 -0.4345
12352TIP3    H258548   1.198   3.630  16.100 -2.2833 -1.5602 -1.3419
12353TIP3   OH258549   5.618   2.264  16.791 -0.2084  0.4641 -0.5447
12353TIP3    H158550   5.645   2.285  16.701  0.1010 -1.3882 -0.9286
12353TIP3    H258551   5.699   2.272  16.842 -0.2248  0.7894 -0.5674
12354TIP3   OH258552   1.910   2.074   4.160  0.2937 -0.5955  0.0281
12354TIP3    H158553   1.876   2.034   4.080  0.1590 -1.4527  0.5035
12354TIP3    H258554   1.882   2.015   4.230 -0.9444  0.9235  0.8993
12355TIP3   OH258555   4.589   3.710  12.317 -0.0904  0.2885 -0.0186
12355TIP3    H158556   4.591   3.717  12.413 -0.2789 -2.0680  0.2338
12355TIP3    H258557   4.668   3.754  12.287 -0.5660  1.9942  1.1240
12356TIP3   OH258558   6.423   6.584  14.083  0.4053  0.1051  0.2564
12356TIP3    H158559   6.416   6.679  14.069 -0.3218  0.0544  0.2329
12356TIP3    H258560   6.410   6.573  14.177  0.0347 -0.0079  0.1938
12357TIP3   OH258561   6.576   5.385   0.556  0.3666 -0.1919 -0.2737
12357TIP3    H158562   6.653   5.385   0.498 -0.3201  1.9649 -1.2836
12357TIP3    H258563   6.605   5.432   0.634  0.7620 -1.5645  0.4470
12358TIP3   OH258564   3.459   1.302   4.104 -0.6298 -0.3888  0.3977
12358TIP3    H158565   3.498   1.341   4.026  0.3277  0.0418  1.0799
12358TIP3    H258566   3.372   1.341   4.109 -0.6884 -0.3940 -0.4232
12359TIP3   OH258567   3.633   1.766  12.217 -0.3145  0.2024 -0.1502
12359TIP3    H158568   3.698   1.823  12.175  0.1109 -0.5035 -0.4709
12359TIP3    H258569   3.666   1.754  12.306 -0.1908  0.1300 -0.2053
12360TIP3   OH258570   2.609   1.413   0.103 -0.2522 -0.8677  0.6042
12360TIP3    H158571   2.704   1.419   0.114 -0.1580 -0.8539 -0.1665
12360TIP3    H258572   2.573   1.465   0.175  0.3296 -0.6423  0.7371
12361TIP3   OH258573   3.915   2.005  12.849 -0.4497 -0.1621  0.3955
12361TIP3    H158574   4.000   2.050  12.843  0.2123 -1.3917  0.2814
12361TIP3    H258575   3.868   2.033  12.770  0.9528 -1.6269 -1.0415
12362TIP3   OH258576   4.450   4.821  15.462 -0.7015 -0.3606 -0.1164
12362TIP3    H158577   4.375   4.768  15.436 -0.6924 -0.4539  0.0496
12362TIP3    H258578   4.486   4.854  15.379 -1.6571  0.6884 -0.1505
12363TIP3   OH258579   6.486   4.221   2.271  0.2323 -0.3839  0.2357
12363TIP3    H158580   6.464   4.134   2.237 -0.2775 -0.0134 -0.4005
12363TIP3    H258581   6.402   4.266   2.278  0.7119  0.9285 -1.8649
12364TIP3   OH258582   6.349   1.858  15.745 -0.5882  0.1842 -0.1561
12364TIP3    H158583   6.329   1.772  15.707  2.0083 -0.2179 -0.7765
12364TIP3    H258584   6.328   1.848  15.838 -0.0182 -1.2317 -0.1514
12365TIP3   OH258585   3.774   1.362  11.286  0.1636 -0.4472 -0.2939
12365TIP3    H158586   3.769   1.456  11.270  2.8108 -0.0639  0.5699
12365TIP3    H258587   3.752   1.322  11.201 -2.8721  0.7776 -0.2007
12366TIP3   OH258588   5.216   2.264   2.718 -0.2124  0.1604 -0.4528
12366TIP3    H158589   5.258   2.342   2.681  1.2067 -1.2810 -2.0201
12366TIP3    H258590   5.255   2.191   2.671 -1.8657 -1.5017  0.6341
12367TIP3   OH258591   0.159   2.053  13.661 -0.7906 -0.1108  0.3776
12367TIP3    H158592   0.133   2.056  13.753  0.9527 -0.0063  0.9123
12367TIP3    H258593   0.134   2.138  13.626 -0.5758  0.2305  1.0317
12368TIP3   OH258594   4.976   2.732   3.408 -0.1270 -0.0740 -0.4722
12368TIP3    H158595   5.040   2.775   3.351 -1.0367  0.5715 -1.0227
12368TIP3    H258596   5.029   2.699   3.481  0.8705  0.2353 -1.0230
12369TIP3   OH258597   2.679   4.380   3.607  0.4230 -0.2176  0.3417
12369TIP3    H158598   2.583   4.387   3.612  0.4877  2.9461 -0.5426
12369TIP3    H258599   2.695   4.329   3.529 -0.5873  0.4088 -0.3051
12370TIP3   OH258600   0.512   3.014   0.986  0.1826 -0.1439 -0.2287
12370TIP3    H158601   0.600   2.994   1.017  0.2665 -0.9841 -0.9843
12370TIP3    H258602   0.524   3.085   0.923  0.2943 -0.0740 -0.1274
12371TIP3   OH258603   2.335   5.335  16.431 -0.4173  0.3813 -0.4204
12371TIP3    H158604   2.375   5.422  16.432  0.4418  0.1527 -3.3674
12371TIP3    H258605   2.246   5.351  16.398 -0.9701  0.3235  0.9990
12372TIP3   OH258606   6.361   2.222   0.919  0.5055  0.1588  0.3085
12372TIP3    H158607   6.366   2.132   0.886  0.6301  0.6830 -1.1969
12372TIP3    H258608   6.448   2.238   0.956  0.8838  0.0270 -0.4855
12373TIP3   OH258609   5.124   0.533   2.178  0.0098 -0.1107 -0.5665
12373TIP3    H158610   5.083   0.455   2.141 -0.0556 -1.0397  1.3546
12373TIP3    H258611   5.218   0.516   2.171  0.0493 -1.8593  2.6107
12374TIP3   OH258612   4.541   0.544  13.664 -0.4079 -0.0408  0.2063
12374TIP3    H158613   4.621   0.565  13.712  0.6053  0.3791 -1.5886
12374TIP3    H258614   4.516   0.457  13.696  1.2631 -0.5646  0.1493
12375TIP3   OH258615   3.646   4.557   4.278  0.2098  0.6322  0.3199
12375TIP3    H158616   3.655   4.529   4.187 -0.1778 -0.5473  0.6322
12375TIP3    H258617   3.626   4.651   4.272 -0.3803  0.4568 -0.8285
12376TIP3   OH258618   0.373   5.226  16.540 -0.8959 -0.7143  0.4884
12376TIP3    H158619   0.278   5.234  16.555 -0.6160  1.0426  1.5762
12376TIP3    H258620   0.406   5.315  16.548  0.7691 -1.1795 -0.6967
12377TIP3   OH258621   1.207   1.345   0.120 -0.2497 -0.4178 -0.4358
12377TIP3    H158622   1.156   1.268   0.145 -0.5808 -0.1848 -0.3785
12377TIP3    H258623   1.209   1.343   0.024 -0.1271 -0.5802 -0.4294
12378TIP3   OH258624   1.343   5.470  16.666  0.5573 -0.1784  0.2503
12378TIP3    H158625   1.294   5.539  16.709  1.1358  0.6937 -0.4463
12378TIP3    H258626   1.401   5.435  16.734  0.8738  0.6182  0.3968
12379TIP3   OH258627   2.271   1.746  15.206 -0.9807  0.0631 -0.1274
12379TIP3    H158628   2.244   1.834  15.180  0.3830  0.5802  0.0830
12379TIP3    H258629   2.249   1.741  15.299 -1.7210 -0.0917 -0.3088
12380TIP3   OH258630   3.434   1.553  12.511 -0.0850  0.0723  0.3915
12380TIP3    H158631   3.455   1.645  12.491  1.5726 -0.2268  0.6278
12380TIP3    H258632   3.491   1.531  12.584 -1.0434 -0.9403  0.8680
12381TIP3   OH258633   0.863   2.310  13.120 -0.7404 -0.3474  0.3859
12381TIP3    H158634   0.956   2.300  13.101 -0.7852 -0.4228  0.2061
12381TIP3    H258635   0.831   2.221  13.134 -0.9114 -0.3740 -0.1538
12382TIP3   OH258636   0.437   1.120  15.406 -0.1862  0.3085 -0.9594
12382TIP3    H158637   0.509   1.144  15.464 -1.2131 -0.2328  0.5878
12382TIP3    H258638   0.366   1.179  15.430  0.1678  1.9739 -3.5948
12383TIP3   OH258639   1.998   1.030   3.148  0.2902 -0.3943 -0.0301
12383TIP3    H158640   2.077   1.022   3.095 -0.1452 -0.8377 -0.6269
12383TIP3    H258641   1.974   1.123   3.141 -0.5813 -0.7039 -1.8513
12384TIP3   OH258642   5.438   6.697   4.801 -0.4358 -0.3839 -0.4547
12384TIP3    H158643   5.439   6.620   4.744 -0.3265  0.4026 -1.5386
12384TIP3    H258644   5.445   6.771   4.742 -1.5207  0.5180  0.5126
12385TIP3   OH258645   3.540   0.740   3.085 -0.1410  0.4043  0.3821
12385TIP3    H158646   3.599   0.670   3.113  1.1979  1.1797 -0.3722
12385TIP3    H258647   3.518   0.717   2.995 -1.3815 -0.1152  0.8052
12386TIP3   OH258648   2.728   5.084   3.521 -0.2829 -0.6033 -0.1143
12386TIP3    H158649   2.788   5.106   3.593 -0.2976  2.2320 -0.8563
12386TIP3    H258650   2.764   5.004   3.484  1.3696 -0.5737  1.2791
12387TIP3   OH258651   5.723   2.341  15.861 -0.3814  0.1240 -0.0203
12387TIP3    H158652   5.671   2.419  15.844  0.3006  0.5130 -0.3718
12387TIP3    H258653   5.814   2.370  15.849 -0.0741 -0.5049  0.6911
12388TIP3   OH258654   4.575   1.150   5.589 -0.4998  0.1905 -0.2877
12388TIP3    H158655   4.593   1.183   5.501  0.0194 -2.2762 -1.1938
12388TIP3    H258656   4.653   1.174   5.640 -0.3206  0.6890 -0.7914
12389TIP3   OH258657   2.895   1.783  12.190  0.0239 -0.5952 -0.3990
12389TIP3    H158658   2.823   1.784  12.253  0.9890 -1.1894  0.7467
12389TIP3    H258659   2.852   1.770  12.105 -1.4388  1.8725 -0.1166
12390TIP3   OH258660   0.057   4.052  15.269 -0.4341 -0.1783  0.4165
12390TIP3    H158661   0.098   4.132  15.303  0.6021 -0.2551 -0.5703
12390TIP3    H258662  -0.035   4.075  15.259 -0.5139  0.2684  1.9372
12391TIP3   OH258663   3.699   4.901  13.319  0.3870  0.1399 -0.2464
12391TIP3    H158664   3.723   4.925  13.229  0.8354 -1.8186 -0.6889
12391TIP3    H258665   3.605   4.884  13.314  0.7078 -1.7650 -0.8431
12392TIP3   OH258666   5.895   0.057  14.463  0.2134  0.2620 -0.2403
12392TIP3    H158667   5.841   0.111  14.521 -2.1518  0.4472 -2.4255
12392TIP3    H258668   5.837   0.035  14.390  2.1571 -2.3706 -1.1386
12393TIP3   OH258669   5.790   5.906  15.394  0.1010 -0.4943 -0.4651
12393TIP3    H158670   5.724   5.837  15.395 -0.4354  0.0265  0.3813
12393TIP3    H258671   5.742   5.986  15.374  0.2035  0.1207  1.5209
12394TIP3   OH258672   2.507   1.627  12.029  0.4591  0.4341 -0.2156
12394TIP3    H158673   2.508   1.550  12.085 -0.1301  0.3913 -0.2617
12394TIP3    H258674   2.511   1.593  11.940  0.2473  0.4540 -0.2341
12395TIP3   OH258675   2.142   2.456   0.173  0.6821  0.2672 -0.1873
12395TIP3    H158676   2.146   2.530   0.233  1.6286 -0.7228  1.0201
12395TIP3    H258677   2.052   2.424   0.180 -0.3609  2.4766 -2.2598
12396TIP3   OH258678   3.364   0.543   6.154  0.2132 -0.5860 -0.0709
12396TIP3    H158679   3.386   0.534   6.247 -2.0235 -0.8917  0.5104
12396TIP3    H258680   3.411   0.473   6.111  1.5929 -0.2042  0.7611
12397TIP3   OH258681   0.703   3.065  13.768 -0.0172 -0.0272 -0.0221
12397TIP3    H158682   0.794   3.092  13.774 -0.3878  0.9839  1.8890
12397TIP3    H258683   0.706   2.969  13.772  1.0330 -0.1126 -1.9520
12398TIP3   OH258684   0.583   0.434   2.860 -0.8487  0.3909  0.2811
12398TIP3    H158685   0.492   0.464   2.861 -1.5888 -1.6000 -1.1312
12398TIP3    H258686   0.630   0.502   2.811 -1.9812  0.4932 -0.7159
12399TIP3   OH258687   5.356   3.115   1.495 -0.0018 -0.2109 -0.1766
12399TIP3    H158688   5.340   3.209   1.496 -2.6040 -0.5834  0.7512
12399TIP3    H258689   5.377   3.096   1.404 -1.8411  0.9673 -0.9121
12400TIP3   OH258690   5.855   4.483  16.310 -0.0110 -0.6473  0.8537
12400TIP3    H158691   5.878   4.507  16.400  2.9551 -1.3568  0.3741
12400TIP3    H258692   5.909   4.539  16.255  0.8312 -2.5773 -0.4056
12401TIP3   OH258693   2.344   0.824   0.791 -0.2024  0.1675  0.3249
12401TIP3    H158694   2.341   0.767   0.715  0.4730  0.1679  0.2902
12401TIP3    H258695   2.437   0.825   0.817 -0.3096  0.7283  0.7142
12402TIP3   OH258696   0.463   3.048   3.082 -0.3829  0.6228  0.3426
12402TIP3    H158697   0.507   3.021   3.162  2.2251  1.1890 -0.7949
12402TIP3    H258698   0.514   3.008   3.012 -2.7558 -0.1062 -1.0949
12403TIP3   OH258699   2.199   5.319   1.352 -0.3609  0.9310  0.2528
12403TIP3    H158700   2.141   5.308   1.276 -0.4976 -0.7007  0.5425
12403TIP3    H258701   2.268   5.378   1.321 -0.1065 -0.1316 -1.3482
12404TIP3   OH258702   0.111   1.710  11.360 -0.5305 -0.3697  0.1730
12404TIP3    H158703   0.144   1.624  11.385  1.2541  0.3486  0.4659
12404TIP3    H258704   0.114   1.710  11.265  0.7218 -0.2241  0.1861
12405TIP3   OH258705   4.291   1.397  11.764 -0.2852  0.0943 -0.3329
12405TIP3    H158706   4.379   1.392  11.803 -0.0064 -0.4254 -1.0010
12405TIP3    H258707   4.231   1.380  11.837  0.2444 -1.5196 -0.2220
12406TIP3   OH258708   1.997   4.012   4.076  0.1283 -0.4920 -0.5283
12406TIP3    H158709   1.959   3.953   4.141  0.6869  0.5205  0.7568
12406TIP3    H258710   1.923   4.063   4.044 -0.2460 -1.3963 -1.1463
12407TIP3   OH258711   0.444   0.992   4.127  0.6945 -0.0192  0.4907
12407TIP3    H158712   0.378   1.030   4.185  2.3090  2.1505  1.0269
12407TIP3    H258713   0.469   1.064   4.069  2.6103 -0.7399  0.3436
12408TIP3   OH258714   3.130   6.122  15.173  0.5659 -0.5479  0.1365
12408TIP3    H158715   3.064   6.177  15.130  1.9670 -0.3943 -1.9976
12408TIP3    H258716   3.095   6.107  15.261 -1.4539  0.9571 -0.3187
12409TIP3   OH258717   4.890   5.978   5.910  0.2358 -0.0290 -0.6777
12409TIP3    H158718   4.956   5.940   5.852  3.1368  0.9884  1.6906
12409TIP3    H258719   4.884   5.915   5.983 -1.1151  0.1210 -0.6379
12410TIP3   OH258720   0.198   2.957  16.902 -0.8816 -0.3639  0.3015
12410TIP3    H158721   0.293   2.963  16.914 -0.9489 -0.4419  0.9072
12410TIP3    H258722   0.187   2.933  16.810 -0.3236 -0.1169  0.1659
12411TIP3   OH258723   5.487   6.583   0.641 -0.7378  0.1683 -0.0010
12411TIP3    H158724   5.481   6.615   0.551 -0.3230  1.5388  0.4276
12411TIP3    H258725   5.576   6.606   0.668 -0.9056 -0.0943  0.7972
12412TIP3   OH258726   5.183   5.406  11.942 -0.3493 -0.2791  0.0757
12412TIP3    H158727   5.180   5.350  12.019  1.3023  1.9272  1.8765
12412TIP3    H258728   5.117   5.474  11.959 -1.0463 -0.6166 -1.1959
12413TIP3   OH258729   4.684   3.320   3.107 -0.4097 -0.5158  0.1262
12413TIP3    H158730   4.614   3.385   3.120  0.5385  0.6431 -0.4356
12413TIP3    H258731   4.670   3.287   3.018 -0.2675 -0.3249  0.0340
12414TIP3   OH258732   2.604   1.191  10.631 -0.1333  0.2111 -0.2100
12414TIP3    H158733   2.513   1.195  10.659  0.0759  0.8526  0.4434
12414TIP3    H258734   2.602   1.148  10.546 -0.9011 -1.0189  0.3951
12415TIP3   OH258735   5.249   3.255   5.365  0.2872 -0.1585  0.5707
12415TIP3    H158736   5.256   3.326   5.301  0.4935 -1.3704 -0.8122
12415TIP3    H258737   5.296   3.288   5.441  1.5576  0.6857 -0.5136
12416TIP3   OH258738   1.980   5.555  11.354 -0.2687  0.1824 -0.1515
12416TIP3    H158739   1.924   5.624  11.389 -0.5030 -1.6537  3.6182
12416TIP3    H258740   2.019   5.514  11.432  3.5457 -0.9738 -2.4001
12417TIP3   OH258741   4.364   1.251  14.791 -0.5094 -0.7425 -0.2728
12417TIP3    H158742   4.372   1.157  14.808 -0.2898 -0.7174 -0.2294
12417TIP3    H258743   4.350   1.290  14.877 -0.5460 -0.7311 -0.2837
12418TIP3   OH258744   5.861   0.044  12.635 -0.5441  0.3414 -0.2733
12418TIP3    H158745   5.867  -0.015  12.560  0.9564 -0.6452  0.5700
12418TIP3    H258746   5.944   0.033  12.681 -1.1482  1.4361  1.1640
12419TIP3   OH258747   3.097   2.394   2.755  0.2845  0.4311  0.2039
12419TIP3    H158748   3.178   2.388   2.705  0.9052  1.1511  1.0815
12419TIP3    H258749   3.057   2.308   2.748  1.6868 -0.2783  0.6808
12420TIP3   OH258750   4.567   4.983  15.799 -0.1274  0.2900  0.4648
12420TIP3    H158751   4.522   4.899  15.791 -0.0483  0.1046  1.7491
12420TIP3    H258752   4.511   5.045  15.753  1.1655 -0.8690 -2.9885
12421TIP3   OH258753   6.190   1.325   3.445 -0.0586 -0.6491  0.3669
12421TIP3    H158754   6.117   1.304   3.503 -0.6687 -0.4413 -0.3136
12421TIP3    H258755   6.268   1.302   3.496 -0.6161 -2.4743  0.4833
12422TIP3   OH258756   3.094   1.248  13.987  0.2575 -0.3038  0.0076
12422TIP3    H158757   3.147   1.279  14.060  0.2909  0.2041 -0.2295
12422TIP3    H258758   3.014   1.214  14.028  0.3141 -0.1037  0.2881
12423TIP3   OH258759   1.610   3.548   0.058  0.0201  0.2865  0.4658
12423TIP3    H158760   1.692   3.531   0.012 -0.1862  1.6394 -0.4663
12423TIP3    H258761   1.627   3.628   0.108 -0.1642 -0.4567  1.7757
12424TIP3   OH258762   3.986   0.254  14.602 -0.2929  0.5980 -0.3696
12424TIP3    H158763   3.956   0.273  14.514  0.0017  1.7123 -0.2492
12424TIP3    H258764   4.056   0.318  14.618  0.6362 -0.5074  0.1488
12425TIP3   OH258765   5.476   6.183  16.294  0.1187  0.5541  0.3836
12425TIP3    H158766   5.385   6.214  16.295  0.7799  2.6908 -0.3646
12425TIP3    H258767   5.480   6.123  16.220 -0.3006  1.8533 -0.7336
12426TIP3   OH258768   6.811   1.037   2.331  0.1887 -0.3895  0.1765
12426TIP3    H158769   6.900   1.053   2.361  0.5338  1.8026 -1.7286
12426TIP3    H258770   6.819   1.021   2.237 -1.3968 -0.3298 -0.0074
12427TIP3   OH258771   0.309   6.344   0.462 -0.0832 -0.0620 -0.0270
12427TIP3    H158772   0.388   6.395   0.444 -0.9255  1.4403  0.2739
12427TIP3    H258773   0.338   6.271   0.516  1.1039  0.4098 -0.0068
12428TIP3   OH258774   0.581   5.474  12.365  0.3566 -0.0303  0.1188
12428TIP3    H158775   0.497   5.493  12.407 -0.2850 -1.7626 -0.2946
12428TIP3    H258776   0.616   5.560  12.342 -0.8542  0.7768  1.1254
12429TIP3   OH258777   4.599   1.876  14.359 -0.4714 -1.1492  0.1712
12429TIP3    H158778   4.621   1.922  14.278 -1.3507 -1.2693 -0.1523
12429TIP3    H258779   4.572   1.946  14.419  1.6501 -0.8918  0.9089
12430TIP3   OH258780   3.664   3.950   1.080  0.3366  0.5339 -0.2808
12430TIP3    H158781   3.692   3.991   1.162 -2.3681  1.7639  0.1157
12430TIP3    H258782   3.671   3.856   1.096 -1.4698  0.7104  1.8992
12431TIP3   OH258783   1.657   2.479  16.339 -0.2087 -0.4089  0.3585
12431TIP3    H158784   1.585   2.498  16.279  0.4822 -0.9878 -0.6792
12431TIP3    H258785   1.613   2.458  16.422 -1.2025 -0.0749 -0.0604
12432TIP3   OH258786   2.609   0.632   0.159  0.0403  0.1661 -0.0748
12432TIP3    H158787   2.578   0.589   0.239  1.3715  0.6537  0.7383
12432TIP3    H258788   2.610   0.562   0.093 -0.7925 -0.3083  0.3980
12433TIP3   OH258789   4.389   3.203  10.797 -0.4557 -0.1529  0.3536
12433TIP3    H158790   4.298   3.233  10.804 -0.2751  0.6408 -0.4597
12433TIP3    H258791   4.391   3.156  10.713  0.2411  1.2427 -0.4488
12434TIP3   OH258792   0.720   6.233   1.754  0.6567  0.0820  0.1004
12434TIP3    H158793   0.812   6.262   1.754  0.8348 -0.4628  0.3750
12434TIP3    H258794   0.703   6.209   1.845  0.2777  0.0627  0.0256
12435TIP3   OH258795   6.429   1.618  16.485  0.5101  0.9075  0.5182
12435TIP3    H158796   6.494   1.547  16.478 -0.4037 -0.1438  1.9343
12435TIP3    H258797   6.397   1.611  16.575 -2.0136  0.9855 -0.3081
12436TIP3   OH258798   1.422   1.630  12.760  0.1047  0.0082 -0.5834
12436TIP3    H158799   1.400   1.563  12.695 -2.2861 -0.7733  0.9390
12436TIP3    H258800   1.412   1.586  12.844  1.0755  1.5801  0.4015
12437TIP3   OH258801   5.821   1.999  14.363 -0.7248 -0.2109 -0.5638
12437TIP3    H158802   5.834   1.923  14.420  0.0728  0.1089 -0.3069
12437TIP3    H258803   5.764   2.058  14.413  0.3889  0.2981  0.1447
12438TIP3   OH258804   0.157   0.518   3.496  0.1142 -0.5005  0.4421
12438TIP3    H158805   0.240   0.473   3.508 -0.6647 -1.4590  2.7474
12438TIP3    H258806   0.098   0.479   3.561 -0.9152  3.0499  1.9036
12439TIP3   OH258807   2.516   1.003   1.967 -0.3458  0.1810  0.7697
12439TIP3    H158808   2.607   1.017   1.940 -0.1002 -0.1660  1.3957
12439TIP3    H258809   2.500   0.911   1.948 -0.2379 -0.0162  1.5852
12440TIP3   OH258810   3.665   4.758  12.797 -0.0201 -0.5089  0.2847
12440TIP3    H158811   3.621   4.726  12.718 -0.5029  0.5095  0.1212
12440TIP3    H258812   3.641   4.695  12.865 -1.2800 -0.2939  0.0666
12441TIP3   OH258813   4.325   1.063  16.817  0.1130 -0.0615  0.1721
12441TIP3    H158814   4.337   1.027  16.729 -1.5160  0.6635 -0.3985
12441TIP3    H258815   4.404   1.113  16.833  1.5500 -2.1791  0.1728
12442TIP3   OH258816   5.625   1.119  12.853  0.1222 -0.4270 -0.3170
12442TIP3    H158817   5.693   1.066  12.810  0.1947  0.9931 -2.0526
12442TIP3    H258818   5.589   1.172  12.783 -1.0301  0.7014  1.0864
12443TIP3   OH258819   0.325   1.429   4.064 -0.0841  0.3664 -0.2913
12443TIP3    H158820   0.246   1.378   4.045  0.0357 -0.4108  1.1826
12443TIP3    H258821   0.294   1.503   4.115  0.1260  0.0449  0.3131
12444TIP3   OH258822   5.706   4.050   3.427  0.5386  0.0129  0.1577
12444TIP3    H158823   5.759   4.112   3.378  0.0671  0.6381  0.4245
12444TIP3    H258824   5.616   4.071   3.403  0.3565 -0.3307  0.5228
12445TIP3   OH258825   4.655   3.565   5.530 -0.3741 -0.0861 -0.1902
12445TIP3    H158826   4.715   3.520   5.589  0.6354  1.5326  0.0843
12445TIP3    H258827   4.578   3.583   5.584  0.1799  0.5782  0.4079
12446TIP3   OH258828   0.674   0.152  16.017  0.2625 -0.0068  0.5367
12446TIP3    H158829   0.703   0.061  16.024  0.1853 -0.0524  0.2592
12446TIP3    H258830   0.585   0.152  16.054  0.1436 -0.1029  0.2495
12447TIP3   OH258831   3.380   0.497  12.577  0.7273  0.0942  0.1626
12447TIP3    H158832   3.377   0.416  12.628 -0.7196 -0.2884 -0.4610
12447TIP3    H258833   3.471   0.524  12.580  1.0135 -0.9040  1.4018
12448TIP3   OH258834   5.232   3.011   1.981 -0.6895 -0.2488  1.3983
12448TIP3    H158835   5.256   2.919   1.975 -2.2119 -0.6063 -0.2093
12448TIP3    H258836   5.312   3.059   1.959 -0.0856 -1.2043  1.4870
12449TIP3   OH258837   6.393   3.188  13.124 -0.2449 -0.3572 -0.2557
12449TIP3    H158838   6.448   3.246  13.072 -1.8306  0.8732 -0.6037
12449TIP3    H258839   6.383   3.109  13.070 -0.3635  0.1676 -1.0037
12450TIP3   OH258840   4.996   1.621   2.505  0.1603  0.0030  0.0975
12450TIP3    H158841   4.996   1.612   2.600 -0.1533  0.3902  0.1378
12450TIP3    H258842   5.089   1.623   2.481  0.2459  0.4620  0.4529
12451TIP3   OH258843   1.765   4.543  16.411 -0.0925  0.8374  0.4646
12451TIP3    H158844   1.729   4.544  16.500  0.1895 -0.7406  0.6094
12451TIP3    H258845   1.793   4.634  16.396 -3.2832  1.9903  0.6574
12452TIP3   OH258846   1.403   0.362   1.010 -0.1088  0.0779 -0.0269
12452TIP3    H158847   1.334   0.393   1.068 -0.8408 -1.1324 -0.2126
12452TIP3    H258848   1.359   0.341   0.928  0.4853 -0.6398 -0.1783
12453TIP3   OH258849   4.902   0.319   0.035  0.1449 -0.0517  0.6579
12453TIP3    H158850   4.902   0.223   0.031  0.3372 -0.0848  1.2613
12453TIP3    H258851   4.949   0.346  -0.044 -0.5879 -0.4239  0.0796
12454TIP3   OH258852   5.613   0.697   6.375 -0.2311  0.1279  0.2845
12454TIP3    H158853   5.524   0.686   6.343 -0.8677  0.4741  1.8424
12454TIP3    H258854   5.669   0.665   6.304 -1.6227 -1.3697 -0.1741
12455TIP3   OH258855   3.649   4.314  11.929  0.4352 -0.0630 -0.0071
12455TIP3    H158856   3.703   4.251  11.977  0.0441 -0.7416 -0.4431
12455TIP3    H258857   3.572   4.326  11.984  0.9674  0.8404  0.5741
12456TIP3   OH258858   2.862   2.046  16.320 -0.3573  0.2284 -0.1655
12456TIP3    H158859   2.884   2.132  16.284  1.1509 -0.2511 -0.4761
12456TIP3    H258860   2.944   1.997  16.315 -0.2592 -0.1648  3.0673
12457TIP3   OH258861   6.119   6.644  13.851  0.3110  0.2021  0.2492
12457TIP3    H158862   6.190   6.707  13.864  0.3236  0.2708 -0.1469
12457TIP3    H258863   6.157   6.560  13.878  0.2518  0.3748  0.9067
12458TIP3   OH258864   1.994   5.535  14.447 -0.4109 -0.2169 -0.4588
12458TIP3    H158865   1.938   5.465  14.412 -0.4219  0.0291 -0.9308
12458TIP3    H258866   2.007   5.511  14.539  1.2596 -1.9575 -1.0764
12459TIP3   OH258867   0.608   1.523  16.166  0.2327 -0.2358 -0.1765
12459TIP3    H158868   0.643   1.546  16.079 -1.1551  0.8638 -0.4884
12459TIP3    H258869   0.639   1.592  16.223 -0.6794  0.2688 -0.2755
12460TIP3   OH258870   3.922   4.644   1.788  0.3491  0.0040 -0.1035
12460TIP3    H158871   3.935   4.722   1.733  2.3226 -0.6229 -0.6260
12460TIP3    H258872   3.851   4.667   1.847 -0.5425  1.4175 -1.6578
12461TIP3   OH258873   5.511   1.092   2.259  0.0739  0.0719  0.4081
12461TIP3    H158874   5.452   1.156   2.298 -1.9418  0.7035 -3.2061
12461TIP3    H258875   5.580   1.145   2.218  0.3353 -0.3304  0.3155
12462TIP3   OH258876   5.496   3.487   1.878  0.2070  0.5125  0.7177
12462TIP3    H158877   5.416   3.438   1.892  0.1674  0.0076 -1.1067
12462TIP3    H258878   5.468   3.568   1.836  0.5123  1.0664  1.5469
12463TIP3   OH258879   5.310   1.323  13.947  0.0695 -0.2935 -0.4365
12463TIP3    H158880   5.287   1.359  13.861 -1.6660  0.1376  0.1615
12463TIP3    H258881   5.281   1.232  13.943  1.1289 -0.6364 -0.7016
12464TIP3   OH258882   2.081   6.019  15.587 -0.0614  0.2372  0.6043
12464TIP3    H158883   2.175   6.015  15.567  0.1910  1.7067  1.3843
12464TIP3    H258884   2.077   6.026  15.682 -1.0848 -2.2907  0.8282
12465TIP3   OH258885   4.437   5.152   1.624 -0.6539  0.4071  0.1144
12465TIP3    H158886   4.378   5.090   1.582 -2.3003  1.0372  1.3330
12465TIP3    H258887   4.488   5.100   1.685 -0.3117 -0.0825 -0.5844
12466TIP3   OH258888   4.575   1.597   4.025  0.2370 -0.1027  0.6542
12466TIP3    H158889   4.613   1.526   3.973 -0.8941 -0.1088 -0.1974
12466TIP3    H258890   4.625   1.674   4.000  0.1130 -0.2239  0.0248
12467TIP3   OH258891   1.874   5.537   0.019  0.3162  0.0770  0.4092
12467TIP3    H158892   1.805   5.474   0.041 -2.0309  1.8951 -1.2789
12467TIP3    H258893   1.883   5.590   0.098 -1.3386  0.7278  0.2061
12468TIP3   OH258894   0.443   3.752   2.324  0.2147  0.3168  0.3245
12468TIP3    H158895   0.423   3.818   2.390 -2.7826  0.1558 -0.2936
12468TIP3    H258896   0.366   3.695   2.322  1.6466 -1.7368 -0.9292
12469TIP3   OH258897   6.658   5.552   5.223  0.5545  0.0456 -0.1532
12469TIP3    H158898   6.568   5.580   5.208  0.4750 -1.0790 -2.1273
12469TIP3    H258899   6.652   5.484   5.290  0.0455  0.6239  0.3841
12470TIP3   OH258900   3.020   2.818   1.393  0.1637  0.0054 -0.1019
12470TIP3    H158901   3.084   2.748   1.383  0.4025  0.0040  1.2484
12470TIP3    H258902   2.936   2.777   1.372  0.4030 -0.4311 -0.2207
12471TIP3   OH258903   2.259   6.861  16.712  0.0307 -0.5325  0.4272
12471TIP3    H158904   2.186   6.908  16.752  0.5645  0.1504  0.6192
12471TIP3    H258905   2.226   6.772  16.700 -0.5234 -0.4725  1.3613
12472TIP3   OH258906   1.718   2.946   6.606 -0.3053  0.3000 -0.5246
12472TIP3    H158907   1.800   2.920   6.563  0.5388 -0.2057  1.2772
12472TIP3    H258908   1.723   3.042   6.610 -0.1956  0.3246 -1.1387
12473TIP3   OH258909   3.715   6.386  17.112  0.3034  0.1858 -0.0126
12473TIP3    H158910   3.738   6.473  17.079  1.1963 -0.3881 -0.9471
12473TIP3    H258911   3.629   6.368  17.072  0.0657  0.6611  0.2616
12474TIP3   OH258912   2.246   6.831   5.243 -0.8859  0.3743  0.1518
12474TIP3    H158913   2.187   6.884   5.297 -2.1385  0.6923 -1.4370
12474TIP3    H258914   2.299   6.783   5.306 -0.6056  2.4997  1.6807
12475TIP3   OH258915   0.029   4.936  16.321  0.3242 -0.1205 -0.1553
12475TIP3    H158916  -0.011   5.020  16.297 -0.0433 -0.4413 -0.6859
12475TIP3    H258917   0.103   4.960  16.376 -0.9604  0.4674  1.4174
12476TIP3   OH258918   0.868   4.416  15.774  0.0053  0.4259 -0.0355
12476TIP3    H158919   0.804   4.468  15.823 -0.0260 -0.7192  1.2135
12476TIP3    H258920   0.830   4.406  15.687 -1.7939 -0.6514  0.8154
12477TIP3   OH258921   0.436   3.561   0.472  0.0793 -0.4327  0.5750
12477TIP3    H158922   0.523   3.540   0.439 -1.2535 -1.5756 -2.5627
12477TIP3    H258923   0.404   3.480   0.511  0.0355 -0.2844  0.8539
12478TIP3   OH258924   5.381   2.851   3.639  0.4115  0.4647  0.4281
12478TIP3    H158925   5.306   2.792   3.638  1.3229 -0.7655  1.2050
12478TIP3    H258926   5.412   2.853   3.548 -1.2222  1.8979 -0.1256
12479TIP3   OH258927   3.020   5.759   2.858 -0.2518  0.3760  0.1968
12479TIP3    H158928   3.031   5.827   2.925 -1.7726  1.3561 -0.4782
12479TIP3    H258929   3.064   5.795   2.781 -0.4413  0.2661  0.0378
12480TIP3   OH258930   1.793   3.973   2.620 -0.2627 -0.1114  0.8309
12480TIP3    H158931   1.745   4.005   2.544  1.7260 -0.9606 -0.8883
12480TIP3    H258932   1.788   3.878   2.613  0.9804 -0.2146  0.9992
12481TIP3   OH258933   5.211   0.051  14.831 -0.3132 -0.1946  0.3787
12481TIP3    H158934   5.210  -0.025  14.774 -0.6798 -0.3988  0.6524
12481TIP3    H258935   5.259   0.023  14.908  0.4087  0.1617  0.0689
12482TIP3   OH258936   5.854   3.681   2.191 -0.2084 -0.1721  0.1570
12482TIP3    H158937   5.815   3.645   2.111  0.3367 -0.4593  0.0102
12482TIP3    H258938   5.878   3.771   2.167 -2.4253  0.6460  0.8124
12483TIP3   OH258939   3.386   4.164   2.263 -0.1971  0.3147 -0.2033
12483TIP3    H158940   3.415   4.224   2.332 -0.3157  2.4419 -1.8902
12483TIP3    H258941   3.466   4.138   2.219 -0.2889  0.9582 -0.7756
12484TIP3   OH258942   6.369   4.332  12.022  0.0438 -0.0704 -0.5247
12484TIP3    H158943   6.389   4.386  11.945  2.0993  0.6628  0.4630
12484TIP3    H258944   6.360   4.243  11.987  1.5926  0.1434 -1.5778
12485TIP3   OH258945   0.083   1.026  13.916 -0.3725  0.0820  0.0278
12485TIP3    H158946  -0.009   1.009  13.893  0.0127 -0.2887 -1.3071
12485TIP3    H258947   0.129   0.946  13.891  0.2486  0.0356  1.2307
12486TIP3   OH258948   1.395   6.476  15.556 -0.1675 -0.0896 -0.6085
12486TIP3    H158949   1.387   6.398  15.502  0.8111 -1.5642  1.2717
12486TIP3    H258950   1.487   6.476  15.584 -0.3830  1.2291  0.1858
12487TIP3   OH258951   4.883   0.676  14.829  0.0277  0.1040 -0.5368
12487TIP3    H158952   4.866   0.586  14.856  0.4369 -0.3359 -1.6566
12487TIP3    H258953   4.834   0.730  14.891 -0.2327 -0.8901  0.1416
12488TIP3   OH258954   3.340   5.111  14.764 -0.0325 -0.1516 -0.1759
12488TIP3    H158955   3.402   5.085  14.696  1.2480  0.5868  0.6709
12488TIP3    H258956   3.349   5.044  14.832 -1.7487 -1.2303 -0.9357
12489TIP3   OH258957   0.427   0.600  11.805  0.4098  0.7094 -0.6369
12489TIP3    H158958   0.389   0.687  11.795 -1.0497  0.0245 -1.2143
12489TIP3    H258959   0.489   0.593  11.733  0.2727  1.1299 -0.7982
12490TIP3   OH258960   0.320   4.419  14.011  0.4353 -0.5243  0.2852
12490TIP3    H158961   0.352   4.416  13.921 -1.2233  1.5990 -0.4640
12490TIP3    H258962   0.321   4.512  14.034 -0.3118 -0.8955  2.0172
12491TIP3   OH258963   2.241   5.586   1.779 -0.2758  0.3141  0.0841
12491TIP3    H158964   2.185   5.654   1.743  0.4450  0.7574 -0.2063
12491TIP3    H258965   2.183   5.537   1.838 -0.8456  1.0678  0.1720
12492TIP3   OH258966   5.279   6.269  14.704  0.4796 -0.1539  0.4650
12492TIP3    H158967   5.292   6.364  14.705 -0.1076 -0.0714  0.3464
12492TIP3    H258968   5.220   6.253  14.631 -2.0016 -0.2596  2.3540
12493TIP3   OH258969   4.704   5.807   1.713  0.1088  0.0927  0.4598
12493TIP3    H158970   4.747   5.795   1.798  0.1615  0.4936  0.4908
12493TIP3    H258971   4.611   5.811   1.734 -0.1023 -2.2520  0.2489
12494TIP3   OH258972   3.757   4.059  13.973  0.4450 -0.3012  0.6281
12494TIP3    H158973   3.664   4.083  13.979 -0.3822 -2.4726 -1.5403
12494TIP3    H258974   3.798   4.132  13.927 -0.8556 -0.5566 -1.0316
12495TIP3   OH258975   5.948   5.714   1.049  0.3475  0.0152 -0.1439
12495TIP3    H158976   6.027   5.767   1.063  0.0050  0.5456 -0.2003
12495TIP3    H258977   5.942   5.661   1.129  0.7250  0.0157 -0.1094
12496TIP3   OH258978   5.654   2.707  13.671  0.0213 -0.4461 -0.3187
12496TIP3    H158979   5.642   2.796  13.703 -0.5394 -0.6041 -0.0732
12496TIP3    H258980   5.571   2.686  13.628  0.9935  0.0400 -2.5746
12497TIP3   OH258981   0.015   1.487   3.866 -0.5716  0.2169 -0.0416
12497TIP3    H158982  -0.062   1.466   3.918 -0.9873  0.6761 -0.4665
12497TIP3    H258983  -0.013   1.559   3.809 -0.4414 -0.9058 -1.5961
12498TIP3   OH258984   0.350   3.162  10.678  0.0059 -0.1940  0.5657
12498TIP3    H158985   0.365   3.253  10.651  0.7797 -0.3657  0.3805
12498TIP3    H258986   0.308   3.121  10.603 -0.0158 -0.0781  0.5136
12499TIP3   OH258987   6.554   5.048  16.506 -0.0601 -0.4119  0.4756
12499TIP3    H158988   6.491   4.990  16.463 -0.6165  0.5851 -0.1032
12499TIP3    H258989   6.631   4.993  16.520 -0.0215 -0.9179 -1.3905
12500TIP3   OH258990   0.354   2.542   1.176  0.5154 -0.5896 -0.4726
12500TIP3    H158991   0.353   2.528   1.081  1.5787 -0.1317 -0.5589
12500TIP3    H258992   0.446   2.556   1.197  0.2324 -0.2377  0.5686
12501TIP3   OH258993   0.148   5.164   2.748  0.5450  0.3012 -0.2887
12501TIP3    H158994   0.123   5.094   2.808 -0.0464 -0.1246 -1.0068
12501TIP3    H258995   0.197   5.226   2.802 -0.9650  0.5226  0.9099
12502TIP3   OH258996   2.340   2.819  14.688  0.4837  0.3047 -0.7233
12502TIP3    H158997   2.378   2.898  14.648  1.0487  0.7362  0.6206
12502TIP3    H258998   2.292   2.778  14.616 -0.2122  2.0994 -1.3594
12503TIP3   OH258999   2.087   2.358  15.920 -0.0297  0.6588  0.0542
12503TIP3    H159000   2.034   2.423  15.967 -0.1715 -0.6519  1.8337
12503TIP3    H259001   2.070   2.375  15.828 -1.2073  2.2001  0.5150
12504TIP3   OH259002   2.206   5.318  12.840  0.5397 -0.2801 -0.3551
12504TIP3    H159003   2.176   5.238  12.797  0.5952 -0.5125  0.0283
12504TIP3    H259004   2.269   5.356  12.779 -1.6065  1.0206 -1.8809
12505TIP3   OH259005   4.726   6.649  10.855  0.0237  0.1328  0.2798
12505TIP3    H159006   4.653   6.595  10.826 -0.5878  1.0124  0.1427
12505TIP3    H259007   4.685   6.720  10.905  1.0187 -1.6280  3.9279
12506TIP3   OH259008   4.307   6.510  11.665  0.0894 -0.6248  0.5355
12506TIP3    H159009   4.309   6.488  11.572 -0.5445 -1.7200  0.7607
12506TIP3    H259010   4.214   6.525  11.683  0.1617 -0.8160  1.0683
12507TIP3   OH259011   3.255   2.822   5.913  0.2034  0.4250  0.2069
12507TIP3    H159012   3.198   2.745   5.915 -1.1717  1.3919 -0.5302
12507TIP3    H259013   3.230   2.869   5.834  2.4917  0.5892 -0.4969
12508TIP3   OH259014   0.052   2.291  16.788 -0.0962  0.0181 -0.5446
12508TIP3    H159015   0.015   2.323  16.705 -0.6994 -1.1788 -0.7611
12508TIP3    H259016   0.129   2.240  16.762 -0.8964 -1.2747 -0.4992
12509TIP3   OH259017   6.128   3.712   4.184  0.8789  0.0904 -0.1540
12509TIP3    H159018   6.121   3.712   4.089 -0.1617  0.4852 -0.0934
12509TIP3    H259019   6.213   3.673   4.202  1.4710  0.8130 -1.2758
12510TIP3   OH259020   3.222   4.614   4.536  0.5936  0.0071 -0.3389
12510TIP3    H159021   3.305   4.574   4.510  1.5474  2.1397 -0.7598
12510TIP3    H259022   3.193   4.661   4.458 -1.3696 -1.1658 -0.3915
12511TIP3   OH259023   0.330   2.598  14.851 -0.2600 -0.4360 -0.2493
12511TIP3    H159024   0.311   2.611  14.758 -1.0286 -2.5274 -0.4369
12511TIP3    H259025   0.323   2.685  14.890  2.7211  1.0420 -2.5454
12512TIP3   OH259026   2.401   4.628   3.044  0.5102 -0.0221 -0.2255
12512TIP3    H159027   2.339   4.560   3.016 -0.3474  0.3386  0.7184
12512TIP3    H259028   2.365   4.709   3.010 -0.3363  0.3705  1.5195
12513TIP3   OH259029   2.953   0.668  15.762 -0.5983 -0.0271  0.4143
12513TIP3    H159030   2.897   0.672  15.684  1.5053 -1.5611 -1.2984
12513TIP3    H259031   2.905   0.717  15.828 -2.1762  2.0474 -2.0537
12514TIP3   OH259032   2.570   0.567   3.046  0.0430 -0.7291  0.0052
12514TIP3    H159033   2.549   0.478   3.073  1.9380 -0.8090  1.4314
12514TIP3    H259034   2.627   0.555   2.969  0.5415 -0.7795  0.3763
12515TIP3   OH259035   2.540   1.357  15.661  0.4702  0.3791 -0.2097
12515TIP3    H159036   2.593   1.403  15.726  0.5945  0.7122 -0.5445
12515TIP3    H259037   2.603   1.306  15.610  0.4701  0.7608 -0.5965
12516TIP3   OH259038   6.272   1.402   0.787  0.0527 -0.4055  0.4166
12516TIP3    H159039   6.311   1.389   0.873  0.9107 -0.2209  0.0595
12516TIP3    H259040   6.224   1.321   0.769 -0.1650 -0.4238  1.0851
12517TIP3   OH259041   6.147   5.144   2.662  0.5812  0.3949  0.3478
12517TIP3    H159042   6.090   5.129   2.738  0.6466  0.2235  0.3614
12517TIP3    H259043   6.116   5.083   2.596 -0.3650  1.4724 -0.2418
12518TIP3   OH259044   4.876   6.375   2.126  0.3396 -0.1324 -0.0701
12518TIP3    H159045   4.870   6.351   2.034 -0.5879 -0.6997  0.1338
12518TIP3    H259046   4.817   6.451   2.135 -0.7165 -0.9799  0.3459
12519TIP3   OH259047   1.119   6.570   5.108 -0.2093 -0.2565  0.6618
12519TIP3    H159048   1.180   6.622   5.160  1.0162  0.0204 -0.9813
12519TIP3    H259049   1.064   6.635   5.065  2.4160 -0.0134 -2.7550
12520TIP3   OH259050   2.758   6.241  15.026  0.1207 -0.2319 -0.0932
12520TIP3    H159051   2.843   6.264  15.063 -0.0453  0.2097  0.0267
12520TIP3    H259052   2.740   6.311  14.963  0.9659 -1.6093 -1.9634
12521TIP3   OH259053   2.777   2.746  14.594 -0.2427 -0.4394 -0.1170
12521TIP3    H159054   2.739   2.677  14.540 -0.1800 -1.1285  0.7058
12521TIP3    H259055   2.702   2.789  14.635 -0.2326 -0.6338  0.1069
12522TIP3   OH259056   6.171   3.309   3.656 -0.0027 -0.1768 -0.1065
12522TIP3    H159057   6.112   3.384   3.648 -0.3001 -0.3216  0.6674
12522TIP3    H259058   6.216   3.305   3.572 -1.4825 -0.3916 -0.9337
12523TIP3   OH259059   1.998   4.571  14.422  0.0663  0.3637 -0.4928
12523TIP3    H159060   2.031   4.608  14.340  0.7436  2.6135  0.7061
12523TIP3    H259061   2.014   4.640  14.487  0.9641 -1.8794  1.8464
12524TIP3   OH259062   5.133   2.136  16.674  0.1664  0.3699  0.0870
12524TIP3    H159063   5.119   2.097  16.761 -1.7935 -3.5248 -1.7377
12524TIP3    H259064   5.221   2.108  16.649  0.6812  1.3840  0.6882
12525TIP3   OH259065   4.844   4.552   6.310  0.3417  0.2988  0.4324
12525TIP3    H159066   4.924   4.595   6.279  0.2841 -0.4473 -0.8301
12525TIP3    H259067   4.775   4.586   6.253  0.0987 -0.4948  0.2349
12526TIP3   OH259068   3.478   1.740   4.036  0.4361 -0.3389 -0.5270
12526TIP3    H159069   3.462   1.818   4.088 -1.6565 -1.2941  0.3745
12526TIP3    H259070   3.569   1.718   4.052  0.5941  0.9734  0.5117
12527TIP3   OH259071   3.715   1.761   2.226 -0.1303 -0.5108  0.3794
12527TIP3    H159072   3.759   1.842   2.254  1.7728 -0.3123 -2.7502
12527TIP3    H259073   3.642   1.790   2.172  1.8647 -0.6718 -2.6558
12528TIP3   OH259074   2.180   6.268   4.603  0.2732 -0.0099  0.1935
12528TIP3    H159075   2.221   6.233   4.523 -0.0485  0.9446 -0.4060
12528TIP3    H259076   2.165   6.360   4.583 -1.2103 -0.0997  0.7991
12529TIP3   OH259077   5.925   3.478   0.959  0.0803  0.2658  0.1369
12529TIP3    H159078   5.985   3.409   0.989 -0.1513  0.3774  0.8865
12529TIP3    H259079   5.839   3.436   0.960 -0.1019  0.6416  0.8807
12530TIP3   OH259080   1.571   0.458  14.022 -0.3523  0.1214  0.9896
12530TIP3    H159081   1.623   0.488  14.096 -2.3633  1.1197  2.0955
12530TIP3    H259082   1.536   0.373  14.049 -0.9388  0.4016  1.1296
12531TIP3   OH259083   6.119   0.021  12.734 -0.2902 -0.6567 -0.3619
12531TIP3    H159084   6.189  -0.028  12.775  2.1461  0.2930 -3.0434
12531TIP3    H259085   6.099   0.092  12.796  2.5611  0.2020 -0.3081
12532TIP3   OH259086   0.233   0.354  16.409 -0.7550 -0.5831  0.0376
12532TIP3    H159087   0.318   0.345  16.452 -0.2575 -2.5776 -1.1930
12532TIP3    H259088   0.175   0.296  16.459 -1.1157 -0.0968  0.1914
12533TIP3   OH259089   1.765   0.113   2.741  0.1812 -0.0230  0.0595
12533TIP3    H159090   1.856   0.134   2.721 -0.7314  3.8252 -0.8398
12533TIP3    H259091   1.724   0.100   2.655 -0.4247 -0.1678  0.3676
12534TIP3   OH259092   5.424   4.197  13.553  0.1611  0.3084 -0.0486
12534TIP3    H159093   5.396   4.232  13.637  1.4530  1.5633 -0.0919
12534TIP3    H259094   5.519   4.210  13.552  0.2828 -0.4414 -1.3574
12535TIP3   OH259095   0.220   3.218   6.366  0.0432 -0.3355 -0.4476
12535TIP3    H159096   0.263   3.135   6.346 -0.8887 -0.6370 -1.2650
12535TIP3    H259097   0.258   3.280   6.304  0.1142 -0.3466 -0.4150
12536TIP3   OH259098   4.520   5.380  10.686 -0.2208  0.4526 -0.1180
12536TIP3    H159099   4.480   5.446  10.744  1.0577  0.9543  0.2276
12536TIP3    H259100   4.483   5.297  10.715  0.4730  0.6841  1.5081
12537TIP3   OH259101   3.048   0.139   0.309  0.1659  0.1042  0.5746
12537TIP3    H159102   3.009   0.225   0.291 -0.9309 -0.6659 -1.0318
12537TIP3    H259103   3.040   0.128   0.403 -1.2599  1.0493  0.5909
12538TIP3   OH259104   3.544   1.144   1.881  0.2966 -0.3848 -0.4772
12538TIP3    H159105   3.564   1.226   1.836  2.6216 -0.4571  0.2959
12538TIP3    H259106   3.564   1.075   1.818 -1.3169 -0.4169 -1.0037
12539TIP3   OH259107   6.269   0.530  15.571  0.5035 -0.1166  0.2751
12539TIP3    H159108   6.290   0.584  15.495 -1.3891 -1.0232 -0.9747
12539TIP3    H259109   6.225   0.590  15.631 -0.5544  0.0203 -0.6054
12540TIP3   OH259110   3.830   1.242   6.103 -0.4485 -0.2683 -0.0868
12540TIP3    H159111   3.885   1.318   6.085 -2.5014  1.3146  0.0252
12540TIP3    H259112   3.782   1.264   6.183 -1.8942 -1.2023 -0.6513
12541TIP3   OH259113   0.065   3.571  12.228  0.5903 -0.2940 -0.1000
12541TIP3    H159114  -0.030   3.573  12.237  0.6055 -0.1202  0.0168
12541TIP3    H259115   0.097   3.623  12.302  0.6890  2.1015 -1.7227
12542TIP3   OH259116   4.427   6.429  12.885 -0.1235 -0.5192 -0.2288
12542TIP3    H159117   4.379   6.367  12.940 -1.0838 -0.7443 -1.2887
12542TIP3    H259118   4.378   6.511  12.893  1.4649  0.3313  1.6269
12543TIP3   OH259119   1.653   2.294   5.091  0.0904 -0.0811  0.3327
12543TIP3    H159120   1.597   2.221   5.119  0.4364 -0.4521  0.0834
12543TIP3    H259121   1.606   2.334   5.019  0.2538 -0.5521 -0.0449
12544TIP3   OH259122   1.562   0.122  16.523 -0.3864  0.3217  0.5156
12544TIP3    H159123   1.499   0.194  16.531 -0.3030  0.3791  0.6736
12544TIP3    H259124   1.513   0.052  16.480  0.5073  1.6624 -2.9823
12545TIP3   OH259125   0.197   6.270  14.604 -0.0021  0.1750  0.3742
12545TIP3    H159126   0.208   6.364  14.614 -0.3381  0.0733  1.8918
12545TIP3    H259127   0.170   6.259  14.512  0.2951  1.5179  0.1065
12546TIP3   OH259128   4.164   5.981  14.241  0.0278 -0.0139 -0.5657
12546TIP3    H159129   4.124   6.038  14.306 -0.2463  2.2321 -2.5848
12546TIP3    H259130   4.103   5.981  14.168  0.5614 -2.0738 -1.0832
12547TIP3   OH259131   1.275   5.487  14.314 -0.3457 -0.0880  0.7563
12547TIP3    H159132   1.204   5.427  14.290 -1.3597  0.4143  2.3699
12547TIP3    H259133   1.291   5.537  14.234 -1.2556 -0.7504  0.1337
12548TIP3   OH259134   4.376   2.096   2.868  0.3654  0.1461  0.0950
12548TIP3    H159135   4.410   2.105   2.957  1.0169  0.9561 -0.2226
12548TIP3    H259136   4.344   2.006   2.863 -2.0626  0.7758  1.9714
12549TIP3   OH259137   4.608   1.835  11.537 -1.0916 -0.2312 -0.4666
12549TIP3    H159138   4.535   1.837  11.476 -2.8780 -2.2152  1.4416
12549TIP3    H259139   4.586   1.901  11.603 -1.5988 -1.3334  0.5032
12550TIP3   OH259140   5.014   5.631  10.611 -0.1257  0.1889 -0.2619
12550TIP3    H159141   5.071   5.690  10.561  1.2756  0.1532  1.2350
12550TIP3    H259142   4.965   5.583  10.544  0.0524  1.7140 -1.5498
12551TIP3   OH259143   0.203   6.413  15.391 -0.4450 -0.6814 -0.6115
12551TIP3    H159144   0.164   6.366  15.465  1.1299 -0.3559  0.4791
12551TIP3    H259145   0.215   6.347  15.323 -2.2271 -0.9194 -0.7414
12552TIP3   OH259146   3.289   2.586   0.772 -0.0501 -0.6141  0.4090
12552TIP3    H159147   3.358   2.538   0.726  0.8609  0.0270  1.0643
12552TIP3    H259148   3.219   2.595   0.707  1.5090  0.9984 -1.1982
12553TIP3   OH259149   1.629   6.358  16.126 -0.3057  0.0214  0.4751
12553TIP3    H159150   1.695   6.424  16.105 -0.9111 -0.4740 -3.8773
12553TIP3    H259151   1.676   6.275  16.126 -0.6722 -0.2313 -1.6723
12554TIP3   OH259152   2.649   2.715  12.112  0.1954 -0.1607  0.0298
12554TIP3    H159153   2.671   2.772  12.039 -0.9074 -1.8871 -1.7421
12554TIP3    H259154   2.734   2.679  12.141  0.4822 -1.3763 -2.1086
12555TIP3   OH259155   3.168   1.807   2.991 -0.2738 -0.0439 -0.7711
12555TIP3    H159156   3.257   1.805   3.028 -0.4558  1.2405 -0.2263
12555TIP3    H259157   3.182   1.805   2.897  0.2861 -0.9004 -0.6898
12556TIP3   OH259158   0.697   5.724  12.702  0.1006  0.0906 -0.1244
12556TIP3    H159159   0.635   5.756  12.637  1.4492 -0.2960 -1.6850
12556TIP3    H259160   0.730   5.642  12.665  0.4803 -0.4465  1.3411
12557TIP3   OH259161   2.426   3.751   5.449 -0.1575 -0.2968  0.3955
12557TIP3    H159162   2.495   3.745   5.515 -0.1912  0.6206  0.5276
12557TIP3    H259163   2.432   3.841   5.417  0.9978 -1.1641 -2.1025
12558TIP3   OH259164   5.590   3.777  14.360  0.0649 -0.1176 -0.3128
12558TIP3    H159165   5.616   3.833  14.286  1.7620  0.8149  0.9445
12558TIP3    H259166   5.592   3.835  14.436 -0.2536 -1.3968  0.7060
12559TIP3   OH259167   4.779   4.836  14.782 -0.1568 -0.1557 -0.5482
12559TIP3    H159168   4.830   4.900  14.833 -0.2726 -0.0355 -0.5804
12559TIP3    H259169   4.730   4.787  14.848 -2.3312  1.7244 -0.6190
12560TIP3   OH259170   0.268   3.245   5.481 -0.5167 -0.4504  0.1817
12560TIP3    H159171   0.207   3.319   5.468  1.0868  0.6842 -1.3816
12560TIP3    H259172   0.314   3.266   5.562  0.2845  0.5716 -0.5154
12561TIP3   OH259173   4.276   6.667  14.903  0.0163 -0.0234  0.1103
12561TIP3    H159174   4.224   6.742  14.933  0.2871  0.2436 -0.0811
12561TIP3    H259175   4.355   6.670  14.956 -0.1874 -0.4669  0.4434
12562TIP3   OH259176   1.489   6.158  15.060 -0.0857 -0.2619 -0.3218
12562TIP3    H159177   1.438   6.174  14.981 -0.6761  1.0677  0.2985
12562TIP3    H259178   1.572   6.202  15.046  0.0938 -0.6420 -0.4791
12563TIP3   OH259179   4.003   0.051  13.891  0.1088 -0.4738  0.2016
12563TIP3    H159180   4.097   0.042  13.902  0.1151 -0.2394  0.3489
12563TIP3    H259181   3.985   0.011  13.806  0.3828 -0.2624  0.0416
12564TIP3   OH259182   4.438   6.760   5.503  0.1436  0.5567 -0.5578
12564TIP3    H159183   4.433   6.690   5.438  0.5533 -0.1384  0.1314
12564TIP3    H259184   4.471   6.716   5.582 -1.5807  1.0929  0.5134
12565TIP3   OH259185   2.773   3.423  14.750  0.1742  0.0107 -0.4528
12565TIP3    H159186   2.784   3.434  14.656  1.0436 -0.2707 -0.3871
12565TIP3    H259187   2.827   3.347  14.773  2.2374  1.7151  0.6971
12566TIP3   OH259188   0.575   0.084   2.075 -0.0330 -0.4814 -0.4808
12566TIP3    H159189   0.529   0.052   1.997  1.0432  0.6062 -1.6044
12566TIP3    H259190   0.599   0.174   2.054  1.1735 -0.4968  0.7091
12567TIP3   OH259191   6.280   6.377   2.796  0.3160 -0.0832  0.0033
12567TIP3    H159192   6.218   6.418   2.857 -0.5891  2.3468 -2.3149
12567TIP3    H259193   6.294   6.444   2.729  3.2151 -1.6645 -1.1439
12568TIP3   OH259194   2.468   3.685   1.056  0.0003 -0.0987  0.0794
12568TIP3    H159195   2.495   3.731   1.136 -2.0546 -1.3696  1.5903
12568TIP3    H259196   2.394   3.632   1.083 -0.5472 -0.8474 -2.6450
12569TIP3   OH259197   3.340   6.353   2.787 -0.1048  0.3384  0.5547
12569TIP3    H159198   3.312   6.262   2.783  1.6023 -0.2007 -0.1343
12569TIP3    H259199   3.381   6.361   2.874  0.0932  0.3416  0.4606
12570TIP3   OH259200   4.514   1.043   4.696  0.3517  0.0186  0.0577
12570TIP3    H159201   4.545   1.106   4.761  0.0919 -0.8106  1.0141
12570TIP3    H259202   4.428   1.016   4.727  2.2739 -4.4551  2.5479
12571TIP3   OH259203   6.159   5.983   6.139 -0.5625  0.1672 -0.0970
12571TIP3    H159204   6.080   5.976   6.193 -0.8625  0.3201 -0.5055
12571TIP3    H259205   6.211   5.907   6.162  0.0101  1.0062  1.5084
12572TIP3   OH259206   0.513   0.251  14.002 -0.3834  0.2755 -0.1763
12572TIP3    H159207   0.608   0.237  14.006 -0.6803 -1.6314  2.3294
12572TIP3    H259208   0.499   0.336  14.044  0.1274 -0.1335  0.8487
12573TIP3   OH259209   1.299   5.037  16.629  0.2762 -0.2348 -0.7727
12573TIP3    H159210   1.263   5.055  16.542  1.0943 -1.0978 -1.3090
12573TIP3    H259211   1.392   5.058  16.621  0.2382  0.3051  0.0907
12574TIP3   OH259212   1.621   4.735   3.630  0.3364 -0.5998 -0.0504
12574TIP3    H159213   1.581   4.737   3.717  2.3296 -1.1515  0.9314
12574TIP3    H259214   1.556   4.776   3.573 -2.6968 -3.5908  0.9319
12575TIP3   OH259215   3.273   6.523   4.969 -0.4887  0.5427  0.3230
12575TIP3    H159216   3.203   6.480   5.018 -0.0210 -1.2120 -0.4613
12575TIP3    H259217   3.350   6.468   4.984  0.0761  0.9436 -0.9560
12576TIP3   OH259218   0.359   3.367  16.317 -0.0840  0.4782 -0.0074
12576TIP3    H159219   0.383   3.388  16.226  2.8495 -0.3774  0.4841
12576TIP3    H259220   0.275   3.412  16.329 -2.0868 -1.6299 -3.9802
12577TIP3   OH259221   4.420   1.680   5.259  0.3254 -0.1655  0.5429
12577TIP3    H159222   4.494   1.689   5.319  0.1829 -0.3840  0.7503
12577TIP3    H259223   4.402   1.587   5.256 -0.1592 -0.0812  0.7568
12578TIP3   OH259224   4.390   5.817   4.187 -0.3345 -0.2746 -0.1377
12578TIP3    H159225   4.478   5.799   4.219 -0.6467 -0.9504  0.3694
12578TIP3    H259226   4.377   5.754   4.117 -0.1395  0.3357 -0.7350
12579TIP3   OH259227   5.475   5.181   1.643 -0.6703 -0.1220 -0.4766
12579TIP3    H159228   5.398   5.187   1.700  0.2843 -1.1483  0.9691
12579TIP3    H259229   5.462   5.251   1.579 -0.9554  2.2194  1.9795
12580TIP3   OH259230   6.489   0.278  16.681 -0.5485 -0.1575  0.4125
12580TIP3    H159231   6.508   0.298  16.590  1.4971 -0.9502  0.6082
12580TIP3    H259232   6.556   0.215  16.707 -2.5010 -1.8107  1.8138
12581TIP3   OH259233   1.387   4.090   4.995 -0.1278 -0.6660 -0.6355
12581TIP3    H159234   1.446   4.016   5.010  0.1765 -0.0478  1.5369
12581TIP3    H259235   1.300   4.051   4.991 -0.0827 -1.0859  1.5456
12582TIP3   OH259236   0.801   6.262   6.358  0.5485 -0.1029 -0.2327
12582TIP3    H159237   0.890   6.263   6.394  0.6692  1.0306 -0.5131
12582TIP3    H259238   0.804   6.197   6.287  1.0644 -0.3013 -0.0334
12583TIP3   OH259239   3.132   1.101   4.072  0.0429 -0.3771  0.4875
12583TIP3    H159240   3.156   1.009   4.057 -0.8371 -0.4447 -0.6503
12583TIP3    H259241   3.149   1.115   4.165 -2.8968 -2.6684  1.5332
12584TIP3   OH259242   4.477   1.743  14.773 -0.3283 -0.1001  0.1786
12584TIP3    H159243   4.400   1.688  14.757 -0.4844  0.6734 -2.0682
12584TIP3    H259244   4.444   1.832  14.773  0.5286  0.2310 -0.5735
12585TIP3   OH259245   4.899   4.445   4.735  0.1384 -0.0198 -0.3429
12585TIP3    H159246   4.972   4.455   4.796  1.8544 -1.1438 -2.0728
12585TIP3    H259247   4.827   4.410   4.788  2.0375 -2.4497  0.8165
12586TIP3   OH259248   4.872   6.510  12.472 -0.1572  0.4657 -0.0252
12586TIP3    H159249   4.914   6.522  12.557  0.3454 -2.0109  0.1326
12586TIP3    H259250   4.779   6.530  12.489 -0.4204 -1.7439  1.6316
12587TIP3   OH259251   3.678   4.847   4.273  0.0523  0.1306  0.1332
12587TIP3    H159252   3.655   4.890   4.191  0.4926  0.0834 -0.0173
12587TIP3    H259253   3.746   4.902   4.311 -0.7539  0.6298  0.8961
12588TIP3   OH259254   2.582   5.921  16.688 -0.1504  0.8158 -0.5645
12588TIP3    H159255   2.518   5.886  16.626 -1.5115  1.4430  0.4332
12588TIP3    H259256   2.633   5.844  16.714 -1.3080  0.0464 -0.4593
12589TIP3   OH259257   6.682   1.945   1.662  0.5823  0.8587  0.2115
12589TIP3    H159258   6.663   2.038   1.673 -1.2479  0.4734  0.7126
12589TIP3    H259259   6.603   1.909   1.622  0.8690 -0.6437  0.9189
12590TIP3   OH259260   0.283   6.389  16.923  0.4857  0.3194  0.0206
12590TIP3    H159261   0.366   6.374  16.878  1.3624  0.5754  1.4952
12590TIP3    H259262   0.303   6.376  17.015 -0.9746  1.0118  0.4630
12591TIP3   OH259263   0.834   3.044   4.594 -0.2286  0.4605 -0.0534
12591TIP3    H159264   0.817   2.980   4.525  0.3200 -0.6014  0.7517
12591TIP3    H259265   0.772   3.022   4.664  0.5465  0.2202  0.5843
12592TIP3   OH259266   4.383   0.600   0.485  0.6790  0.0227 -0.3023
12592TIP3    H159267   4.383   0.555   0.569  0.6132  0.3915 -0.1041
12592TIP3    H259268   4.338   0.540   0.426  0.8090 -0.2784 -0.0993
12593TIP3   OH259269   2.870   2.797   5.122  0.6971 -0.5330 -0.0284
12593TIP3    H159270   2.844   2.705   5.113  1.4109 -0.6010 -1.6751
12593TIP3    H259271   2.926   2.799   5.199 -0.0782 -1.3029  0.5673
12594TIP3   OH259272   4.487   4.143   1.174 -0.0427  0.9637  0.7373
12594TIP3    H159273   4.480   4.157   1.080 -1.4375 -0.9937  0.4972
12594TIP3    H259274   4.576   4.169   1.196  1.1187 -0.7743 -1.5583
12595TIP3   OH259275   5.857   3.671  13.376  0.0248  0.1510  0.1307
12595TIP3    H159276   5.832   3.736  13.442 -1.5146 -0.8281  0.5545
12595TIP3    H259277   5.843   3.587  13.419  1.0406 -0.4908 -0.7487
12596TIP3   OH259278   2.129   3.688   4.498  0.0616 -0.3491 -0.4300
12596TIP3    H159279   2.133   3.690   4.402 -0.7791 -0.3129 -0.4758
12596TIP3    H259280   2.208   3.642   4.525  0.6968  0.3351 -1.1097
12597TIP3   OH259281   6.336   3.392  16.631  0.0125 -0.4284 -0.4216
12597TIP3    H159282   6.355   3.484  16.649 -0.1212 -0.2593 -1.1196
12597TIP3    H259283   6.367   3.345  16.709 -1.4776  0.3746  0.7042
12598TIP3   OH259284   3.652   5.977  16.098  0.2917  0.3434  0.0392
12598TIP3    H159285   3.613   5.983  16.011  0.7113  0.6595 -0.1281
12598TIP3    H259286   3.589   6.019  16.156 -0.7769 -1.3293  0.1479
12599TIP3   OH259287   6.146   1.964   3.309 -0.1119 -0.6293  0.1711
12599TIP3    H159288   6.072   1.975   3.250 -0.1542 -0.9812  0.1529
12599TIP3    H259289   6.201   2.041   3.294 -0.5508 -0.2838  0.3038
12600TIP3   OH259290   3.235   1.682   0.781 -0.4118  0.1689  0.3557
12600TIP3    H159291   3.269   1.763   0.820  1.2477 -1.1513  1.8156
12600TIP3    H259292   3.259   1.613   0.843 -0.3432 -1.6702 -1.5873
12601TIP3   OH259293   4.681   5.376  15.937 -0.0317  0.8582 -0.5640
12601TIP3    H159294   4.600   5.330  15.915  0.4702  0.8180 -2.4896
12601TIP3    H259295   4.732   5.312  15.986 -0.8021  0.6008 -0.0825
12602TIP3   OH259296   6.297   6.114   5.904  0.5109 -0.6434 -0.6526
12602TIP3    H159297   6.375   6.102   5.850 -1.1045 -0.7563 -3.1560
12602TIP3    H259298   6.237   6.046   5.873 -0.3774 -0.9980  1.6657
12603TIP3   OH259299   4.120   0.117   4.867  0.2135 -0.6521 -0.0903
12603TIP3    H159300   4.197   0.105   4.813  0.3053 -2.4902  0.3514
12603TIP3    H259301   4.063   0.175   4.817  1.4952  0.0173 -0.8137
12604TIP3   OH259302   6.399   5.413  13.830 -0.1904  0.1362  0.3716
12604TIP3    H159303   6.381   5.416  13.924 -1.8879  1.0812  0.0460
12604TIP3    H259304   6.493   5.396  13.825 -0.4284 -2.3926  2.2177
12605TIP3   OH259305   0.646   3.403   0.626 -0.1346 -0.1035  0.5766
12605TIP3    H159306   0.728   3.403   0.577 -0.0023 -0.9791  0.7846
12605TIP3    H259307   0.592   3.336   0.584 -1.1348  1.1428 -0.1854
12606TIP3   OH259308   1.715   3.230   6.561  0.1703  0.5602  0.0620
12606TIP3    H159309   1.623   3.237   6.586 -0.4774 -2.6145 -0.9937
12606TIP3    H259310   1.725   3.292   6.489 -1.5631 -0.0090 -0.7289
12607TIP3   OH259311   1.670   6.232  15.646  0.0206 -0.2214  0.0067
12607TIP3    H159312   1.765   6.242  15.654 -0.1928  0.4170  2.6858
12607TIP3    H259313   1.637   6.321  15.648 -0.7119 -0.4985  0.2267
12608TIP3   OH259314   1.549   2.449   2.197 -0.1613 -0.6309 -0.2782
12608TIP3    H159315   1.570   2.356   2.184 -0.1175 -0.3121 -2.9384
12608TIP3    H259316   1.579   2.492   2.117  0.7048  1.8835  1.2765
12609TIP3   OH259317   1.736   5.746  13.219 -0.0322  0.4592 -0.1235
12609TIP3    H159318   1.678   5.723  13.146 -0.6419  1.5070  0.0054
12609TIP3    H259319   1.801   5.676  13.221 -0.6458 -0.1608 -0.9783
12610TIP3   OH259320   3.308   4.853  10.749 -0.3797  0.1282 -0.1889
12610TIP3    H159321   3.263   4.936  10.767 -0.9870 -0.2050 -0.1228
12610TIP3    H259322   3.238   4.794  10.720  0.0963 -0.2690 -0.5504
12611TIP3   OH259323   5.354   2.898   0.297  0.3293 -0.0386  0.3654
12611TIP3    H159324   5.291   2.921   0.366 -1.3537 -1.9099 -0.4507
12611TIP3    H259325   5.382   2.810   0.319  0.8032 -0.1490 -0.6353
12612TIP3   OH259326   0.014   0.845  16.882  0.4209 -0.3033 -0.2721
12612TIP3    H159327   0.105   0.863  16.908  0.0791  0.7173  0.2913
12612TIP3    H259328   0.021   0.802  16.797  1.4338 -0.1912 -0.2610
12613TIP3   OH259329   2.043   4.400   0.963 -0.2807 -0.1964 -0.1142
12613TIP3    H159330   2.099   4.460   1.011 -0.8873  0.1266  0.2025
12613TIP3    H259331   2.025   4.444   0.880 -1.8429  0.7042  0.6642
12614TIP3   OH259332   2.251   4.504   1.957  0.3539  0.3274 -0.6230
12614TIP3    H159333   2.280   4.479   1.869  1.3067 -0.7795 -0.0194
12614TIP3    H259334   2.214   4.424   1.993 -0.6885  0.9592 -0.2504
12615TIP3   OH259335   6.008   5.028   4.379  0.0853 -0.3328  0.6590
12615TIP3    H159336   6.083   5.088   4.388 -0.3123  0.1676  0.6942
12615TIP3    H259337   5.962   5.035   4.463  0.2730 -1.0233  0.8259
12616TIP3   OH259338   2.625   5.765   0.429  0.1818  0.3689  0.4057
12616TIP3    H159339   2.657   5.785   0.517  1.5045 -0.9142  0.2709
12616TIP3    H259340   2.695   5.712   0.390 -0.9222 -0.1443 -0.9739
12617TIP3   OH259341   2.548   5.726  14.315 -0.1455 -0.2252  0.3386
12617TIP3    H159342   2.562   5.679  14.233 -1.7706 -2.2803  1.1408
12617TIP3    H259343   2.573   5.663  14.384  2.1134  1.7663  1.4954
12618TIP3   OH259344   1.472   1.506   2.924 -0.3582 -0.0078  0.2456
12618TIP3    H159345   1.438   1.459   3.000 -3.2638 -1.6289 -1.8012
12618TIP3    H259346   1.525   1.441   2.877  2.5534  1.3668  1.4075
12619TIP3   OH259347   3.046   5.141   3.959  0.2499 -0.1734  0.6437
12619TIP3    H159348   2.997   5.069   3.920  0.0006  0.5167 -0.3435
12619TIP3    H259349   2.982   5.212   3.967  1.1590  0.8834 -1.0703
12620TIP3   OH259350   1.248   3.189  14.027  0.0693  0.1482 -0.8427
12620TIP3    H159351   1.340   3.209  14.010  0.4034 -1.5586 -1.2723
12620TIP3    H259352   1.219   3.257  14.088  2.1701 -0.3232  0.8138
12621TIP3   OH259353   5.539   6.145  14.025 -1.4797  0.1912  0.0049
12621TIP3    H159354   5.617   6.189  14.057 -1.5896  1.1611 -1.0054
12621TIP3    H259355   5.543   6.057  14.064  0.2261  0.1385 -0.2160
12622TIP3   OH259356   3.809   2.736  15.464  0.2449 -0.9703 -0.5842
12622TIP3    H159357   3.892   2.772  15.496 -0.1435 -0.1369 -0.4882
12622TIP3    H259358   3.767   2.809  15.418 -0.9160 -1.0634  0.2826
12623TIP3   OH259359   6.089   2.766  11.087  0.0954  1.1478  0.0330
12623TIP3    H159360   6.055   2.695  11.033 -0.1504 -0.1543  1.8213
12623TIP3    H259361   6.060   2.846  11.043  1.7093  0.2698 -2.9244
12624TIP3   OH259362   5.684   6.078  15.892 -0.6702 -0.0901  0.3316
12624TIP3    H159363   5.731   6.157  15.920  2.5354 -1.4893 -0.5962
12624TIP3    H259364   5.662   6.095  15.801 -1.0854  0.1953  0.4837
12625TIP3   OH259365   0.491   4.743  16.575 -0.7379  0.0184  0.0855
12625TIP3    H159366   0.569   4.752  16.520  0.1110  1.0991  1.4028
12625TIP3    H259367   0.484   4.649  16.592 -0.2401 -0.1773 -0.7629
12626TIP3   OH259368   4.210   2.155   4.604 -0.5404  0.0799 -0.1642
12626TIP3    H159369   4.193   2.081   4.662  0.2109 -1.1444 -1.4369
12626TIP3    H259370   4.243   2.224   4.661  0.5396 -1.2043  0.8301
12627TIP3   OH259371   1.220   4.530   3.815 -0.5693 -0.0274 -0.5790
12627TIP3    H159372   1.170   4.558   3.892 -1.6480  1.1291 -1.6474
12627TIP3    H259373   1.204   4.436   3.808 -2.6404  0.3045 -0.8766
12628TIP3   OH259374   3.856   3.289   4.337 -0.1223  0.2275 -0.7626
12628TIP3    H159375   3.892   3.375   4.360 -0.1782  0.9678 -3.1783
12628TIP3    H259376   3.764   3.305   4.320 -0.4459 -0.6166  0.0737
12629TIP3   OH259377   1.918   1.730  12.145  0.0845  0.2980 -0.7483
12629TIP3    H159378   1.850   1.724  12.212 -0.5913  1.7205 -1.2667
12629TIP3    H259379   1.938   1.824  12.140  0.5188  0.1528 -2.1279
12630TIP3   OH259380   0.784   3.186   2.161 -0.6513  0.0606 -0.4321
12630TIP3    H159381   0.871   3.223   2.147 -0.6080 -0.3575 -1.3575
12630TIP3    H259382   0.800   3.093   2.178 -0.6650  0.5669  3.0488
12631TIP3   OH259383   1.193   3.152  16.412  0.6059 -0.0879  0.2936
12631TIP3    H159384   1.264   3.163  16.475 -0.8451  0.5692  1.8907
12631TIP3    H259385   1.157   3.240  16.401  0.0080 -0.4172 -0.4516
12632TIP3   OH259386   4.107   0.210  13.284 -0.2971 -0.3429  0.7624
12632TIP3    H159387   4.154   0.260  13.216 -0.1633 -0.4043  0.8099
12632TIP3    H259388   4.107   0.269  13.360 -0.2184 -0.3784  0.7902
12633TIP3   OH259389   2.084   4.704   3.822 -0.0265  0.6904  0.2990
12633TIP3    H159390   2.064   4.711   3.916 -0.6396  1.2419  0.1318
12633TIP3    H259391   2.142   4.778   3.805 -0.7182  1.1713  0.0334
12634TIP3   OH259392   2.527   6.131  16.097 -0.2595 -0.1690  0.1647
12634TIP3    H159393   2.548   6.218  16.130  2.8684 -1.2787  1.5577
12634TIP3    H259394   2.569   6.127  16.011  0.9379 -0.7224  0.7452
12635TIP3   OH259395   2.715   4.839   0.140 -0.6379  0.1354  0.2901
12635TIP3    H159396   2.640   4.832   0.081  0.2647  0.4564 -0.9234
12635TIP3    H259397   2.739   4.749   0.159 -0.8996  0.0290  0.1203
12636TIP3   OH259398   3.589   0.163  15.490 -0.5493  0.2074 -0.2175
12636TIP3    H159399   3.512   0.215  15.510  1.2949  3.2637 -0.3824
12636TIP3    H259400   3.652   0.186  15.558  1.6096  1.1937 -2.3934
12637TIP3   OH259401   1.462   3.384   5.918 -0.1624  0.3386 -0.0788
12637TIP3    H159402   1.372   3.404   5.945 -0.2232  0.2752 -0.2341
12637TIP3    H259403   1.516   3.435   5.978 -0.3210  0.9605 -0.4526
12638TIP3   OH259404   2.190   6.075   0.437  0.1281 -0.0307  0.2289
12638TIP3    H159405   2.273   6.116   0.415 -0.1146  0.3298 -0.0375
12638TIP3    H259406   2.194   5.989   0.395  0.5748 -0.2186  0.6568
12639TIP3   OH259407   2.660   1.796  15.665 -0.1220 -0.1478  0.3518
12639TIP3    H159408   2.748   1.808  15.630 -0.9989  2.8372 -1.1845
12639TIP3    H259409   2.627   1.718  15.621  1.0948 -0.1812 -0.5366
12640TIP3   OH259410   0.756   5.295  16.914  0.3431  0.2097  0.2504
12640TIP3    H159411   0.721   5.269  16.829 -0.7233 -0.0296  0.7512
12640TIP3    H259412   0.740   5.220  16.971  0.1621  0.7343  0.9016
12641TIP3   OH259413   0.721   5.992   5.281 -0.2974 -0.5124  0.0931
12641TIP3    H159414   0.670   6.059   5.327  1.1296 -0.1769  1.2495
12641TIP3    H259415   0.755   6.037   5.204 -0.9734 -0.4908 -0.2041
12642TIP3   OH259416   2.924   3.924  15.126 -0.3467  0.5385 -0.1788
12642TIP3    H159417   2.987   3.882  15.185  0.0452  0.3596 -0.7244
12642TIP3    H259418   2.964   4.008  15.104 -0.9912  1.0920  0.6674
12643TIP3   OH259419   5.916   0.660   3.715  0.1893 -0.4024  0.2191
12643TIP3    H159420   6.004   0.693   3.698 -0.2439  0.4914 -0.3646
12643TIP3    H259421   5.916   0.637   3.808  1.5163 -1.9457 -0.1261
12644TIP3   OH259422   1.552   0.042  16.828 -0.2455  0.1189 -0.0514
12644TIP3    H159423   1.516  -0.031  16.779 -0.1710  0.0027  0.0669
12644TIP3    H259424   1.544   0.117  16.770  0.2007 -0.0918 -0.3906
12645TIP3   OH259425   1.395   4.826   4.189  0.0308  0.9524  0.1956
12645TIP3    H159426   1.468   4.824   4.250 -1.2018  0.3385  1.7113
12645TIP3    H259427   1.373   4.734   4.173 -1.0389  1.1298  0.5613
12646TIP3   OH259428   4.512   3.583   1.408 -0.2408  0.0654 -0.1074
12646TIP3    H159429   4.481   3.572   1.318  0.2359  1.7771 -0.5185
12646TIP3    H259430   4.432   3.597   1.459 -0.3600  2.9590 -0.9256
12647TIP3   OH259431   1.692   3.659   5.757 -0.3426 -0.4473 -0.3736
12647TIP3    H159432   1.787   3.665   5.743  0.7060 -5.6066  2.0163
12647TIP3    H259433   1.657   3.630   5.673  0.7642 -1.2993 -0.5679
12648TIP3   OH259434   4.726   2.755  12.453 -0.1583 -0.0358  0.8161
12648TIP3    H159435   4.769   2.704  12.522  0.6937  0.0378  0.3554
12648TIP3    H259436   4.633   2.732  12.460  0.4139 -3.7060 -1.0016
12649TIP3   OH259437   0.449   6.255   5.072  0.1940 -0.1844  0.2612
12649TIP3    H159438   0.451   6.195   5.147  0.1578  0.6299  0.9331
12649TIP3    H259439   0.378   6.317   5.093  1.5848  1.3543  0.6060
12650TIP3   OH259440   1.544   4.323   2.063 -0.2657  0.3888 -0.7001
12650TIP3    H159441   1.469   4.377   2.035 -0.7530  0.6118  0.9302
12650TIP3    H259442   1.620   4.378   2.047 -0.7512  1.6163  0.8850
12651TIP3   OH259443   3.852   6.223  11.540 -0.5645  0.0458 -0.0314
12651TIP3    H159444   3.918   6.271  11.489 -0.7372 -0.8811 -1.1674
12651TIP3    H259445   3.796   6.291  11.576 -0.3371  0.7434 -0.9547
12652TIP3   OH259446   0.441   2.698  13.332  0.0859 -0.4227 -0.0896
12652TIP3    H159447   0.369   2.697  13.395  0.5770 -1.4720  0.4740
12652TIP3    H259448   0.517   2.726  13.382  0.4596 -1.1696 -0.2186
12653TIP3   OH259449   3.517   0.755  15.246  0.8688  0.1291 -0.2738
12653TIP3    H159450   3.611   0.765  15.262  1.1003 -0.7981 -0.9756
12653TIP3    H259451   3.475   0.789  15.326  1.9000 -2.2760  1.4221
12654TIP3   OH259452   3.506   4.267  14.238  0.2957  0.2060  0.3084
12654TIP3    H159453   3.556   4.198  14.281 -0.6913 -2.9839 -3.1487
12654TIP3    H259454   3.572   4.326  14.202  1.3302 -0.8035  0.5060
12655TIP3   OH259455   3.817   1.209   0.414  0.2064  0.3486 -0.2135
12655TIP3    H159456   3.745   1.214   0.477  0.8806 -1.7345  0.8303
12655TIP3    H259457   3.844   1.300   0.401 -2.4892  1.1999 -0.5738
12656TIP3   OH259458   6.678   5.327   5.711  0.4212 -0.1636  0.1532
12656TIP3    H159459   6.769   5.303   5.728  0.0426 -1.1054  0.9219
12656TIP3    H259460   6.651   5.373   5.791 -0.7981 -2.9542  1.4910
12657TIP3   OH259461   0.776   2.478  13.644  0.2555 -0.3315  0.2677
12657TIP3    H159462   0.702   2.471  13.705 -1.1947 -1.7268 -1.5158
12657TIP3    H259463   0.853   2.457  13.696 -0.2148  3.0955  2.6945
12658TIP3   OH259464   5.922   3.946   2.374 -0.1707  0.0371  0.1035
12658TIP3    H159465   5.993   3.996   2.414 -1.5194  1.7061  0.5172
12658TIP3    H259466   5.962   3.903   2.299  1.1521  1.3641  0.0203
12659TIP3   OH259467   2.825   6.122  14.705 -0.0267  0.5474 -0.4283
12659TIP3    H159468   2.891   6.189  14.693  1.2308 -0.0989  2.0526
12659TIP3    H259469   2.744   6.170  14.725  0.3869  1.3143 -0.5818
12660TIP3   OH259470   3.139   5.413   2.723  0.4942 -0.1450 -0.2565
12660TIP3    H159471   3.208   5.453   2.670  1.0571 -0.3094  0.3394
12660TIP3    H259472   3.153   5.449   2.811  1.3963 -2.0881  0.4433
12661TIP3   OH259473   1.418   5.976  11.334  0.4070  0.1507 -0.2006
12661TIP3    H159474   1.389   5.975  11.243 -0.9023 -2.7019  0.1451
12661TIP3    H259475   1.366   6.045  11.376 -0.1460  0.4087 -1.2913
12662TIP3   OH259476   4.505   5.089   0.061 -0.0956 -0.0458  0.2781
12662TIP3    H159477   4.502   5.003   0.020  0.5176  0.7793 -1.6243
12662TIP3    H259478   4.549   5.144  -0.004 -0.2285  1.6360  1.5637
12663TIP3   OH259479   2.948   2.870  15.929  0.1953  0.2497  0.1609
12663TIP3    H159480   2.940   2.965  15.919 -0.1144  0.2725  0.6103
12663TIP3    H259481   2.913   2.852  16.016  2.3117  0.0030  1.0401
12664TIP3   OH259482   3.881   2.000   2.301  0.0250 -0.0889  0.1241
12664TIP3    H159483   3.937   2.014   2.226  1.7763 -1.5257  1.0957
12664TIP3    H259484   3.933   1.948   2.362 -1.9578 -0.5222  1.5828
12665TIP3   OH259485   5.178   1.543  15.515 -0.5686 -0.4264 -0.5403
12665TIP3    H159486   5.259   1.519  15.561 -0.8485  0.0142  0.2086
12665TIP3    H259487   5.193   1.632  15.484 -0.7174 -0.3932 -0.5173
12666TIP3   OH259488   3.841   2.581   1.346  0.3627 -0.1416  0.1198
12666TIP3    H159489   3.863   2.666   1.384  1.6211 -0.8969  1.1519
12666TIP3    H259490   3.920   2.556   1.298  1.1278 -2.0072  2.2177
12667TIP3   OH259491   2.704   3.221  15.587  1.1236 -0.1113  0.1707
12667TIP3    H159492   2.714   3.302  15.537 -0.9381  1.3710  1.9698
12667TIP3    H259493   2.700   3.250  15.678 -1.4151 -2.0141  0.7546
12668TIP3   OH259494   3.083   6.271  12.570  0.7741 -0.2308  0.2309
12668TIP3    H159495   3.022   6.223  12.515  1.1486 -0.2669 -0.1587
12668TIP3    H259496   3.052   6.255  12.660  0.1359 -0.1291  0.0335
12669TIP3   OH259497   0.421   6.097  16.742  0.2089 -0.5185  0.1358
12669TIP3    H159498   0.346   6.073  16.687  0.1103  1.0348 -0.4672
12669TIP3    H259499   0.413   6.041  16.819 -1.3508 -0.6667 -0.0995
12670TIP3   OH259500   5.792   2.505   2.104 -0.0677 -0.0971  0.5255
12670TIP3    H159501   5.729   2.454   2.052  0.1454  1.2046 -1.0917
12670TIP3    H259502   5.737   2.560   2.159 -0.3036 -1.1713  1.3989
12671TIP3   OH259503   5.242   1.452   2.574  0.4160  0.3683  0.8938
12671TIP3    H159504   5.309   1.396   2.537 -0.7968  0.1281 -1.0689
12671TIP3    H259505   5.290   1.515   2.628  2.0220 -0.8818  0.9699
12672TIP3   OH259506   2.068   4.820  12.546  0.2866 -0.1372  0.1902
12672TIP3    H159507   2.050   4.798  12.637  3.4217 -0.5775  0.8234
12672TIP3    H259508   1.983   4.814  12.502 -1.0905 -1.2098  2.7911
12673TIP3   OH259509   4.680   3.108   4.536 -0.4147 -0.1982 -0.3828
12673TIP3    H159510   4.586   3.122   4.544 -0.3690  0.4331 -0.8116
12673TIP3    H259511   4.707   3.071   4.620 -1.2424 -1.5917 -0.6947
12674TIP3   OH259512   4.487   4.294  14.037  0.8459 -0.1718  0.4896
12674TIP3    H159513   4.451   4.335  14.116  0.7441 -0.9011  0.8323
12674TIP3    H259514   4.450   4.344  13.965  1.0783  0.6195  0.9068
12675TIP3   OH259515   5.842   6.412   3.706  0.0640  0.2692  0.0906
12675TIP3    H159516   5.933   6.435   3.687  0.0568 -0.1344 -0.4496
12675TIP3    H259517   5.838   6.318   3.692 -0.4845  0.3139 -0.0620
12676TIP3   OH259518   1.000   0.337  14.881  0.0446 -0.1344 -0.0618
12676TIP3    H159519   1.018   0.244  14.893  1.7144  0.0420 -0.9666
12676TIP3    H259520   1.078   0.371  14.837 -0.1387  1.8765  1.0693
12677TIP3   OH259521   4.834   4.020  15.524 -0.1085  0.2723  0.4140
12677TIP3    H159522   4.888   4.023  15.445 -1.9226 -1.1928 -0.9887
12677TIP3    H259523   4.838   3.928  15.552 -0.4903  0.5134  1.3073
12678TIP3   OH259524   5.349   2.496   2.582 -0.1588  0.0135 -0.0587
12678TIP3    H159525   5.439   2.498   2.614 -0.8747 -1.1946  2.3174
12678TIP3    H259526   5.311   2.579   2.613 -0.1724 -0.0243  0.0276
12679TIP3   OH259527   4.062   2.363   4.487  0.5250  0.2224 -0.2901
12679TIP3    H159528   4.111   2.282   4.504  1.1181 -0.1987 -3.3482
12679TIP3    H259529   4.128   2.423   4.452 -0.3256  1.2753 -0.1295
12680TIP3   OH259530   5.687   3.546  14.820  0.2493  0.0380 -0.1731
12680TIP3    H159531   5.661   3.454  14.816 -1.5330  0.5017 -0.1639
12680TIP3    H259532   5.736   3.561  14.739 -0.1037 -0.7384 -0.5377
12681TIP3   OH259533   0.797   4.926  15.204 -0.0175 -0.2217  0.2184
12681TIP3    H159534   0.729   4.992  15.194 -0.2230 -0.5475 -0.6284
12681TIP3    H259535   0.766   4.868  15.274  1.3203  1.9693  2.8430
12682TIP3   OH259536   3.361   6.266  12.450  0.2717  0.1366  0.2216
12682TIP3    H159537   3.275   6.272  12.492  0.3751  1.0020  0.3342
12682TIP3    H259538   3.399   6.354  12.461  1.5204 -0.4655  0.9383
12683TIP3   OH259539   0.804   4.950   3.964 -0.0884 -0.0726 -0.2301
12683TIP3    H159540   0.867   4.899   3.913 -0.2371 -2.9050  2.1356
12683TIP3    H259541   0.720   4.934   3.920 -0.1472 -2.0790  0.5137
12684TIP3   OH259542   6.649   1.548  15.178 -0.3673 -0.0099  0.1474
12684TIP3    H159543   6.671   1.612  15.110 -4.2009  1.8752  0.4451
12684TIP3    H259544   6.658   1.463  15.135  0.8094  0.9196 -1.5636
12685TIP3   OH259545   5.986   3.111   2.883 -0.0383 -0.4905  0.2338
12685TIP3    H159546   6.037   3.168   2.940  1.6511 -1.6255 -0.0744
12685TIP3    H259547   6.028   3.025   2.890 -1.4851 -1.3128 -0.6010
12686TIP3   OH259548   6.506   0.643   1.755 -0.4131  0.0845 -0.5698
12686TIP3    H159549   6.501   0.738   1.744  2.5441  0.2975 -1.1097
12686TIP3    H259550   6.544   0.631   1.842 -2.0677 -0.7127  0.0842
12687TIP3   OH259551   4.914   5.319  14.809 -0.0472  0.2912 -1.0044
12687TIP3    H159552   4.952   5.233  14.824  1.6477  0.8195 -2.0232
12687TIP3    H259553   4.826   5.313  14.847  0.8258 -1.1466  0.9776
12688TIP3   OH259554   4.491   2.104  14.557  0.6366 -0.2999 -0.3453
12688TIP3    H159555   4.579   2.140  14.549 -0.1958  1.7704 -0.8421
12688TIP3    H259556   4.467   2.118  14.649  0.5257 -0.0924 -0.4051
12689TIP3   OH259557   2.897   3.817   0.965  0.3511 -0.2667  0.6651
12689TIP3    H159558   2.931   3.800   1.053  2.2704  0.6335  0.1471
12689TIP3    H259559   2.960   3.775   0.906  0.2486  0.9162 -0.3326
12690TIP3   OH259560   1.538   1.705   4.649  0.1505 -0.3377  0.3461
12690TIP3    H159561   1.615   1.666   4.691 -0.7839 -1.3169  1.2063
12690TIP3    H259562   1.491   1.630   4.611 -0.5160  0.2088  0.0667
12691TIP3   OH259563   6.029   0.677  16.073 -0.6610  0.8527  0.3340
12691TIP3    H159564   6.099   0.668  16.009 -0.9226 -0.7986  0.2434
12691TIP3    H259565   6.062   0.740  16.137  1.0693 -0.2110  0.5273
12692TIP3   OH259566   1.242   3.555   5.317 -0.1722  0.4249  0.3912
12692TIP3    H159567   1.322   3.510   5.289 -0.4031 -0.0680  0.5074
12692TIP3    H259568   1.247   3.556   5.412 -0.7102 -0.3728  0.4332
12693TIP3   OH259569   5.916   5.025  11.746 -0.0476  0.0723  0.1751
12693TIP3    H159570   5.899   5.083  11.821  0.0098  1.0138 -0.5146
12693TIP3    H259571   6.011   5.021  11.739  0.0328  2.4443 -1.6072
12694TIP3   OH259572   1.041   1.772  14.837  0.0999 -0.0096  0.2129
12694TIP3    H159573   0.979   1.702  14.819  0.6221 -0.2291 -0.8485
12694TIP3    H259574   1.084   1.788  14.752  0.2827  1.3042  0.5328
12695TIP3   OH259575   2.239   0.168  11.683 -0.2743 -0.2953 -0.1807
12695TIP3    H159576   2.224   0.244  11.739 -0.1969  0.6243 -1.3806
12695TIP3    H259577   2.333   0.150  11.692  0.4617  1.8682 -2.4204
12696TIP3   OH259578   4.947   1.036   6.239  0.2576  0.0566  0.0348
12696TIP3    H159579   4.877   0.978   6.269  1.0211 -0.7082  0.3848
12696TIP3    H259580   4.904   1.120   6.223 -0.4458  0.0807  1.8509
12697TIP3   OH259581   5.242   1.747  15.089  0.2291  0.3795  0.2366
12697TIP3    H159582   5.300   1.676  15.117  0.4696  0.7728  0.7668
12697TIP3    H259583   5.159   1.729  15.133 -0.5282 -0.9477 -1.5970
12698TIP3   OH259584   2.572   3.939  16.955 -0.2503  0.6114  0.0171
12698TIP3    H159585   2.479   3.919  16.938 -0.0033 -1.2009  0.4852
12698TIP3    H259586   2.612   3.853  16.969  1.1292  1.4676  1.6811
12699TIP3   OH259587   2.242   2.463  12.173  0.5390 -0.6278  0.4369
12699TIP3    H159588   2.319   2.453  12.118  0.1493  0.6770 -0.3892
12699TIP3    H259589   2.245   2.553  12.203 -1.4352 -0.0456 -0.8692
12700TIP3   OH259590   4.843   6.427   1.625  0.4697  0.0047  0.1638
12700TIP3    H159591   4.771   6.483   1.654  0.0116 -0.0275 -0.8475
12700TIP3    H259592   4.827   6.343   1.668  0.4544  0.2820  0.7051
12701TIP3   OH259593   5.163   0.518  13.920 -0.0184 -0.2620  0.2356
12701TIP3    H159594   5.257   0.530  13.910 -0.0446 -1.2239 -1.6945
12701TIP3    H259595   5.128   0.607  13.929  0.9475  0.2364 -0.7028
12702TIP3   OH259596   0.523   2.240  12.010  0.3895  0.9244 -0.3487
12702TIP3    H159597   0.516   2.218  11.917  1.4280  1.0482 -0.4671
12702TIP3    H259598   0.434   2.266  12.035  0.5098  2.9880 -1.8416
12703TIP3   OH259599   6.207   0.943   5.959 -0.3702 -0.0824  1.2839
12703TIP3    H159600   6.299   0.960   5.937  0.3829 -1.9659  2.7665
12703TIP3    H259601   6.158   1.002   5.901  1.7530  1.1463  0.6199
12704TIP3   OH259602   2.440   2.880   5.017 -0.8665  0.6175 -0.4043
12704TIP3    H159603   2.485   2.843   5.093  1.6269  2.7263 -0.7099
12704TIP3    H259604   2.352   2.901   5.050 -0.1986  0.5005  1.6135
12705TIP3   OH259605   4.421   5.313  16.115  0.3276  0.1758  0.1899
12705TIP3    H159606   4.346   5.368  16.092 -0.4274  0.5908  3.2301
12705TIP3    H259607   4.416   5.240  16.054 -0.5102  1.8516 -1.8967
12706TIP3   OH259608   2.789   5.134  13.860 -0.3134 -0.3612 -0.0105
12706TIP3    H159609   2.764   5.151  13.951 -2.4906  2.3302 -0.9866
12706TIP3    H259610   2.876   5.173  13.852 -1.1135  1.6096  0.3838
12707TIP3   OH259611   2.477   3.209  17.077  0.1291 -0.5981  0.5449
12707TIP3    H159612   2.390   3.239  17.052  1.3009  0.9349 -1.9649
12707TIP3    H259613   2.528   3.289  17.091  2.1751 -1.2988 -2.0558
12708TIP3   OH259614   3.126   1.309  13.064 -0.6526  0.3026 -0.4848
12708TIP3    H159615   3.111   1.402  13.082 -2.7312 -0.0924  0.0935
12708TIP3    H259616   3.163   1.275  13.145  1.0097  0.7780 -1.0133
12709TIP3   OH259617   5.190   6.794  16.167 -0.0062  0.2254  0.0661
12709TIP3    H159618   5.242   6.724  16.208  1.2480  0.4769 -1.0287
12709TIP3    H259619   5.144   6.751  16.095  0.0239  0.3385 -0.0215
12710TIP3   OH259620   1.943   2.552   0.592  0.2863 -0.3331 -0.2616
12710TIP3    H159621   2.032   2.543   0.625  0.1557  0.2586  0.2604
12710TIP3    H259622   1.892   2.583   0.667 -0.3579 -0.6362 -0.5594
12711TIP3   OH259623   2.595   2.835   3.906 -0.3440  1.1134  0.4080
12711TIP3    H159624   2.651   2.872   3.838 -0.6506  1.5405  0.3856
12711TIP3    H259625   2.654   2.815   3.978 -0.0944  1.1334  0.2090
12712TIP3   OH259626   6.542   3.700  10.614 -0.0284  0.2311  0.1441
12712TIP3    H159627   6.493   3.671  10.537  0.3288  0.1299 -0.0464
12712TIP3    H259628   6.489   3.770  10.651 -0.9520 -0.7136  0.6635
12713TIP3   OH259629   6.583   1.564   4.451  0.5331 -0.1926  0.2639
12713TIP3    H159630   6.547   1.636   4.398  1.8367 -0.0448 -0.4582
12713TIP3    H259631   6.550   1.581   4.539  1.2263  1.6107  0.2170
12714TIP3   OH259632   6.839   0.030   5.796  0.2575  0.0070 -0.5628
12714TIP3    H159633   6.762   0.014   5.851 -1.3850  0.7547 -2.5345
12714TIP3    H259634   6.867  -0.057   5.768 -0.6312 -0.2237 -0.7731
12715TIP3   OH259635   1.946   5.268  13.455 -0.8655  0.0339  0.0469
12715TIP3    H159636   2.010   5.273  13.526 -0.5410  2.8075 -0.3162
12715TIP3    H259637   1.862   5.265  13.499 -0.6056 -0.0878  0.5437
12716TIP3   OH259638   6.187   1.292   2.771 -0.1148  0.1179 -0.2236
12716TIP3    H159639   6.096   1.272   2.793 -0.6109  0.8047 -1.5894
12716TIP3    H259640   6.186   1.383   2.743  1.0058  0.1372 -0.2396
12717TIP3   OH259641   6.298   4.092  11.908  0.1193  0.0410 -0.1544
12717TIP3    H159642   6.386   4.056  11.918 -0.0033 -0.9331 -2.0082
12717TIP3    H259643   6.256   4.034  11.844 -2.3804 -0.3921  1.7250
12718TIP3   OH259644   1.829   2.363   2.444  0.0035 -0.0774  0.4442
12718TIP3    H159645   1.791   2.451   2.437  0.3329 -0.0463 -1.5402
12718TIP3    H259646   1.785   2.324   2.519 -1.2365  1.2651  0.4622
12719TIP3   OH259647   0.986   4.937   3.497  0.2836 -0.0171 -0.0849
12719TIP3    H159648   1.051   4.998   3.532  1.3547 -2.1376  1.8665
12719TIP3    H259649   1.011   4.852   3.533 -2.5551 -1.2408 -0.7356
12720TIP3   OH259650   5.271   0.156  13.548 -0.2667  0.0194  0.3733
12720TIP3    H159651   5.310   0.219  13.488  0.3940 -1.2606 -0.5950
12720TIP3    H259652   5.233   0.210  13.618 -2.9547  1.7177 -2.1742
12721TIP3   OH259653   6.676   3.375   2.690 -0.1774  0.3596 -0.0954
12721TIP3    H159654   6.750   3.418   2.734  0.7014  1.4698 -2.4880
12721TIP3    H259655   6.711   3.292   2.658 -0.4358  0.1402  0.1923
12722TIP3   OH259656   3.626   5.726   5.938  0.0024 -0.0474  0.0251
12722TIP3    H159657   3.628   5.814   5.901 -0.0257  0.7861  1.8778
12722TIP3    H259658   3.566   5.677   5.881  1.8701  0.3899 -2.4623
12723TIP3   OH259659   4.790   2.778  12.894  0.2048 -0.3808 -0.4862
12723TIP3    H159660   4.813   2.748  12.807  1.0160 -1.2866  0.0169
12723TIP3    H259661   4.700   2.748  12.908 -0.3850  0.8653 -1.4681
12724TIP3   OH259662   2.981   3.785  15.482  0.4885 -0.3658  0.0734
12724TIP3    H159663   2.983   3.841  15.560 -1.5210  0.0812 -0.1408
12724TIP3    H259664   2.957   3.698  15.515 -3.1508  0.3655 -0.1799
12725TIP3   OH259665   2.029   1.386   2.862  0.2190  1.0632 -0.5160
12725TIP3    H159666   2.119   1.372   2.892  0.6688  1.2281 -1.7277
12725TIP3    H259667   1.982   1.416   2.940  0.8752 -0.3456  0.4582
12726TIP3   OH259668   2.190   2.914   5.092  0.3856  0.3068  0.1305
12726TIP3    H159669   2.119   2.860   5.059  0.1409  2.4451 -3.3122
12726TIP3    H259670   2.147   2.976   5.151 -0.4532  0.8183 -0.9880
12727TIP3   OH259671   5.397   4.121   2.080 -0.1816  0.8429 -0.4741
12727TIP3    H159672   5.311   4.084   2.058 -0.5021 -0.3814  2.4363
12727TIP3    H259673   5.377   4.198   2.133  0.5228  0.8649 -0.2383
12728TIP3   OH259674   4.807   5.155  13.778  0.4495  0.0411  0.7607
12728TIP3    H159675   4.775   5.242  13.804  0.0277  0.4450 -0.9895
12728TIP3    H259676   4.730   5.112  13.740  1.3506  0.0959 -1.2223
12729TIP3   OH259677   2.156   6.369   5.581 -0.3695  0.0007  0.0710
12729TIP3    H159678   2.074   6.383   5.533 -0.7910 -2.2588  0.0510
12729TIP3    H259679   2.147   6.282   5.620  1.6588  0.0817  0.8432
12730TIP3   OH259680   4.241   4.612   5.700  0.3383 -0.3038  0.5170
12730TIP3    H159681   4.153   4.625   5.733  0.0989  0.4144 -0.3621
12730TIP3    H259682   4.257   4.519   5.709  0.1240 -0.2083  2.2152
12731TIP3   OH259683   5.412   2.815  13.800 -0.2436 -0.0933 -0.0466
12731TIP3    H159684   5.473   2.841  13.868  1.9416 -0.9535 -1.5671
12731TIP3    H259685   5.373   2.734  13.832 -1.3204  0.9226  1.3269
12732TIP3   OH259686   2.200   5.046   2.235  0.4202  0.0740  0.0666
12732TIP3    H159687   2.176   5.070   2.145 -0.0025  1.9829  0.6448
12732TIP3    H259688   2.235   5.127   2.273  0.3176 -0.6193  1.7202
12733TIP3   OH259689   0.453   0.336  14.782  0.4632  0.4482 -0.0355
12733TIP3    H159690   0.543   0.328  14.750  0.0047 -0.6829 -1.1419
12733TIP3    H259691   0.419   0.246  14.780 -0.6004  0.8166  0.6501
12734TIP3   OH259692   0.876   2.009   2.084  0.7508 -0.2925  0.0816
12734TIP3    H159693   0.942   1.971   2.026  2.6524  1.3872  1.0390
12734TIP3    H259694   0.876   1.953   2.161 -0.0135 -1.1057 -0.4850
12735TIP3   OH259695   1.605   6.850  10.506 -0.0592  0.3210  0.0790
12735TIP3    H159696   1.626   6.904  10.581  1.3451  0.5785 -0.4688
12735TIP3    H259697   1.679   6.789  10.498 -0.8788 -0.6736 -0.2258
12736TIP3   OH259698   3.648   6.390   3.388 -0.2174  0.1293  0.0669
12736TIP3    H159699   3.669   6.306   3.429  0.3377 -0.4212 -1.2557
12736TIP3    H259700   3.729   6.440   3.393 -0.7063  0.8204  1.3458
12737TIP3   OH259701   5.250   1.905  12.312  0.1449 -0.3207 -0.1319
12737TIP3    H159702   5.197   1.900  12.392  2.8413 -4.1590  1.7556
12737TIP3    H259703   5.330   1.949  12.340  0.7206 -0.8208 -0.9476
12738TIP3   OH259704   5.739   6.346  14.703 -0.0870  0.0762 -0.2452
12738TIP3    H159705   5.751   6.405  14.777 -1.2936 -0.0603  0.0931
12738TIP3    H259706   5.820   6.353  14.653  1.1032 -0.4273  1.4960
12739TIP3   OH259707   3.360   1.106   1.099 -0.3497  0.5852 -0.3700
12739TIP3    H159708   3.291   1.048   1.132  0.0395  0.4372  0.1994
12739TIP3    H259709   3.441   1.059   1.117 -0.0223  1.3643  0.2280
12740TIP3   OH259710   2.482   6.073   4.037  0.4229  0.3723  1.2646
12740TIP3    H159711   2.537   6.127   3.981 -1.1328  0.3533 -0.3571
12740TIP3    H259712   2.395   6.111   4.030 -0.1840 -0.7750  2.1935
12741TIP3   OH259713   3.130   3.024   0.766 -0.3685 -0.4319  0.1208
12741TIP3    H159714   3.098   3.014   0.856 -0.5076  0.3109  0.1621
12741TIP3    H259715   3.084   3.101   0.733 -0.5959 -0.9171 -0.7189
12742TIP3   OH259716   5.127   6.730  11.141  0.4754 -0.0941 -0.2472
12742TIP3    H159717   5.094   6.808  11.186  1.7485  0.5205 -0.3436
12742TIP3    H259718   5.166   6.763  11.060 -0.8242 -1.0716 -1.3390
12743TIP3   OH259719   6.775   6.740  13.158  0.0832  1.1292 -0.6100
12743TIP3    H159720   6.791   6.668  13.219 -2.5964 -1.1485 -2.3429
12743TIP3    H259721   6.770   6.818  13.214 -0.1127 -0.4983  1.8117
12744TIP3   OH259722   4.841   4.971  16.907 -0.2151 -0.0963  0.1348
12744TIP3    H159723   4.932   4.968  16.879  0.3513 -0.7380  1.9169
12744TIP3    H259724   4.845   4.981  17.002 -2.0325  1.4920  0.1114
12745TIP3   OH259725   4.705   2.575   1.846 -0.6589  0.6984  0.5027
12745TIP3    H159726   4.725   2.570   1.753 -0.3886  1.0526  0.5380
12745TIP3    H259727   4.610   2.570   1.851 -0.6430  0.0925  0.2507
12746TIP3   OH259728   4.790   0.449   4.513 -0.1833  0.2362  0.0533
12746TIP3    H159729   4.863   0.392   4.535 -0.5661 -0.7724 -1.1745
12746TIP3    H259730   4.719   0.422   4.571 -0.0635  0.1427  0.1551
12747TIP3   OH259731   5.911   0.175  13.115  0.2255  0.1430  0.3416
12747TIP3    H159732   5.876   0.264  13.110  0.1526  0.0609 -2.3637
12747TIP3    H259733   5.835   0.118  13.103  0.6469 -0.1468 -1.1809
12748TIP3   OH259734   5.581   0.632  13.732  0.7709 -0.4143  0.4092
12748TIP3    H159735   5.651   0.656  13.671 -0.0033  1.1090  0.0597
12748TIP3    H259736   5.594   0.689  13.808  0.5853 -0.9428  0.8435
12749TIP3   OH259737   1.710   6.324  15.018  0.0135 -0.3850 -0.3821
12749TIP3    H159738   1.781   6.301  15.079 -2.6685 -0.6144  2.9637
12749TIP3    H259739   1.709   6.420  15.017  0.0448 -0.3804 -0.0134
12750TIP3   OH259740   4.342   2.608   2.576 -0.3349  0.4342 -0.1701
12750TIP3    H159741   4.270   2.568   2.624 -0.5858  0.0223 -0.8710
12750TIP3    H259742   4.366   2.685   2.628  0.4685 -0.8470  1.4658
12751TIP3   OH259743   1.891   4.786  16.417  0.5614 -0.5298  0.3621
12751TIP3    H159744   1.898   4.844  16.493  1.4503 -1.4353  1.0039
12751TIP3    H259745   1.851   4.839  16.349  0.0753  0.4097  1.3635
12752TIP3   OH259746   4.917   4.156  10.744 -0.6871 -0.0411 -0.4479
12752TIP3    H159747   4.825   4.181  10.735 -0.4636  0.4341 -1.6796
12752TIP3    H259748   4.946   4.138  10.655  0.2951 -0.6465 -0.0278
12753TIP3   OH259749   3.257   6.202  10.969 -0.7452 -0.1932  0.1221
12753TIP3    H159750   3.292   6.165  11.050 -1.1023 -1.5835 -0.3349
12753TIP3    H259751   3.320   6.178  10.902  0.4740  2.4756  0.2038
12754TIP3   OH259752   2.011   3.976  10.998  0.0720  0.3019  0.6287
12754TIP3    H159753   2.083   4.037  10.980  0.9096 -0.0474  2.5566
12754TIP3    H259754   1.981   3.948  10.911  2.3623  0.3457 -0.2470
12755TIP3   OH259755   1.605   2.243  14.752  0.0662  0.1398  0.4673
12755TIP3    H159756   1.542   2.272  14.686  0.7579  0.0878 -0.2186
12755TIP3    H259757   1.550   2.210  14.824 -0.7284  1.6622  0.6162
12756TIP3   OH259758   2.595   2.049  12.729 -0.0424  0.1571 -0.0072
12756TIP3    H159759   2.506   2.068  12.757 -0.0692 -0.4988  0.3591
12756TIP3    H259760   2.593   2.060  12.634  0.0485  2.3784  0.1760
12757TIP3   OH259761   4.341   3.674  15.961  0.6682 -0.3174  0.4504
12757TIP3    H159762   4.247   3.662  15.950  0.6854  0.5474 -0.9449
12757TIP3    H259763   4.351   3.764  15.991  1.0007 -0.8536  2.0644
12758TIP3   OH259764   1.150   4.559  13.324 -0.0024  0.0625 -0.3489
12758TIP3    H159765   1.215   4.583  13.390  0.2855  2.6935 -1.4632
12758TIP3    H259766   1.080   4.624  13.333 -0.8761 -0.6757 -1.3920
12759TIP3   OH259767   6.285   0.469  16.423 -0.0742  0.2553  0.6641
12759TIP3    H159768   6.352   0.458  16.355  0.0267  1.0487  0.6285
12759TIP3    H259769   6.222   0.400  16.404 -0.0085  0.4115 -0.2049
12760TIP3   OH259770   0.786   3.895   0.328 -0.3877  0.6035 -0.3753
12760TIP3    H159771   0.795   3.810   0.372  1.4353  1.0327  0.1705
12760TIP3    H259772   0.714   3.938   0.374 -1.7790 -0.8642 -1.0885
12761TIP3   OH259773   1.683   0.561  17.011  0.6358  0.1477  0.3493
12761TIP3    H159774   1.634   0.524  17.085  2.0244  0.6241  1.5635
12761TIP3    H259775   1.617   0.602  16.956 -0.2724  1.9745  2.6335
12762TIP3   OH259776   0.768   6.603   4.326 -0.1905  0.2548  0.0331
12762TIP3    H159777   0.859   6.577   4.337 -0.3017 -0.1533 -0.0114
12762TIP3    H259778   0.742   6.635   4.413 -0.3471 -0.7150  0.3601
12763TIP3   OH259779   0.386   3.289   0.517 -0.5225 -0.0044  0.3730
12763TIP3    H159780   0.391   3.294   0.421 -1.2955 -1.3237  0.2485
12763TIP3    H259781   0.293   3.284   0.536 -0.3834  0.4530  1.2239
12764TIP3   OH259782   3.021   1.022   1.460  0.1046  0.2297  0.1743
12764TIP3    H159783   2.985   1.102   1.420  0.3576  0.0163 -0.4881
12764TIP3    H259784   3.108   1.048   1.490  0.4268  0.0507 -0.5833
12765TIP3   OH259785   0.685   6.039  11.703 -0.1117  0.0336 -0.1713
12765TIP3    H159786   0.753   6.078  11.649 -0.5611 -0.5292 -1.1763
12765TIP3    H259787   0.693   5.945  11.688 -1.3077 -0.0247 -0.5752
12766TIP3   OH259788   6.699   0.601  11.767  0.2192 -0.4629 -0.0719
12766TIP3    H159789   6.622   0.549  11.746 -0.8647  0.6046  1.1137
12766TIP3    H259790   6.749   0.546  11.828  0.1877 -0.9656 -0.4879
12767TIP3   OH259791   1.479   5.004  15.860 -0.1627 -0.0174  0.1116
12767TIP3    H159792   1.573   4.986  15.863  0.2195  1.8061  2.3745
12767TIP3    H259793   1.442   4.951  15.930 -0.7037 -0.1528 -0.2705
12768TIP3   OH259794   4.364   5.769  13.596 -0.1292 -0.2721 -0.6416
12768TIP3    H159795   4.293   5.705  13.598 -1.0015  0.6572  1.3245
12768TIP3    H259796   4.432   5.732  13.652 -0.7671  0.6156  0.7593
12769TIP3   OH259797   2.044   1.487  12.420 -0.0426 -0.2605  0.3815
12769TIP3    H159798   2.015   1.460  12.332 -0.2350 -2.2835  1.0157
12769TIP3    H259799   2.126   1.439  12.434  0.3220  0.5473  1.0571
12770TIP3   OH259800   3.656   6.081   6.372 -0.0489  0.1673  0.0137
12770TIP3    H159801   3.665   6.176   6.365  2.5186  0.2414  2.5865
12770TIP3    H259802   3.704   6.047   6.297 -0.2263  0.8590 -0.4282
12771TIP3   OH259803   5.649   6.501  13.179  0.0783  0.2655 -0.4421
12771TIP3    H159804   5.696   6.456  13.250  0.6328  0.2139 -0.8370
12771TIP3    H259805   5.564   6.525  13.218 -0.7057 -2.1070 -0.5526
12772TIP3   OH259806   2.912   3.014  14.597 -0.4896  0.1870  0.0147
12772TIP3    H159807   2.959   3.006  14.514  1.3206 -2.5251  1.1500
12772TIP3    H259808   2.849   2.942  14.596  0.6915 -0.9350  1.5894
12773TIP3   OH259809   2.138   2.165  14.602 -0.3625 -0.3611 -0.2210
12773TIP3    H159810   2.212   2.145  14.659  0.2979  0.2518 -0.8349
12773TIP3    H259811   2.105   2.080  14.574  0.9685 -0.6533 -1.0076
12774TIP3   OH259812   2.035   2.044   1.568  0.2404  0.6589  0.3566
12774TIP3    H159813   2.025   1.977   1.500 -0.9190  0.3608  0.7971
12774TIP3    H259814   2.130   2.052   1.579  0.5857  1.9954 -2.5372
12775TIP3   OH259815   2.226   2.819  12.931  0.3700 -0.0539  0.3511
12775TIP3    H159816   2.263   2.907  12.937 -0.7818  0.3813  1.4521
12775TIP3    H259817   2.240   2.794  12.840  0.2983  1.4621 -0.1085
12776TIP3   OH259818   6.715   2.015   5.204  0.2438  0.0749  0.3908
12776TIP3    H159819   6.801   2.040   5.238 -0.1320  0.8205  0.8274
12776TIP3    H259820   6.660   2.092   5.218 -0.2808 -0.0854 -0.6786
12777TIP3   OH259821   1.976   1.494   4.670 -0.0105  0.3671 -0.0797
12777TIP3    H159822   1.991   1.464   4.580 -3.4199 -0.8813 -0.3667
12777TIP3    H259823   2.004   1.586   4.670 -1.4617  0.9047 -2.9249
12778TIP3   OH259824   3.946   5.526  12.700  0.0741 -0.0036  0.4526
12778TIP3    H159825   3.953   5.598  12.762 -0.9678 -0.5416  1.2185
12778TIP3    H259826   4.021   5.469  12.722  0.8364  0.7638 -0.0872
12779TIP3   OH259827   0.405   5.885  13.996 -0.8432 -0.5145 -0.1536
12779TIP3    H159828   0.361   5.948  14.053  1.2310  0.8762 -0.0039
12779TIP3    H259829   0.364   5.801  14.018 -0.6152  0.0459  2.9807
12780TIP3   OH259830   2.732   5.357   4.299  0.5141 -0.0062  0.3131
12780TIP3    H159831   2.797   5.310   4.352 -1.1792 -0.7630  1.8358
12780TIP3    H259832   2.658   5.371   4.359  0.5223  3.8377 -0.2966
12781TIP3   OH259833   3.627   6.763   1.712  0.3583 -0.1248  0.5193
12781TIP3    H159834   3.679   6.810   1.777 -1.9606 -1.0835  3.2449
12781TIP3    H259835   3.537   6.768   1.744 -1.1367  0.2181 -3.2197
12782TIP3   OH259836   3.202   4.961   3.405  0.6382  0.4256  0.6096
12782TIP3    H159837   3.210   5.022   3.331 -0.0273 -1.9124 -1.5503
12782TIP3    H259838   3.231   4.877   3.369 -2.8275 -1.5596  1.9751
12783TIP3   OH259839   2.165   4.814   5.322  0.0500  0.2595  0.6455
12783TIP3    H159840   2.213   4.733   5.304 -0.7528 -0.6028  2.1444
12783TIP3    H259841   2.205   4.848   5.402 -0.9737  0.1958  1.2071
12784TIP3   OH259842   2.102   3.957  15.519 -0.0185 -0.1021  0.2693
12784TIP3    H159843   2.082   4.019  15.449 -0.1591  1.8969  1.9636
12784TIP3    H259844   2.197   3.958  15.526 -0.0594  0.8032  0.9740
12785TIP3   OH259845   0.461   0.722  13.275  0.3197  0.3362 -0.0074
12785TIP3    H159846   0.409   0.695  13.200  0.0156  0.1507  0.2669
12785TIP3    H259847   0.504   0.803  13.247 -0.9805  1.1038  0.1268
12786TIP3   OH259848   0.163   6.718  11.697 -0.1011  0.4520  0.3954
12786TIP3    H159849   0.210   6.666  11.763 -0.5540  0.2612  0.5715
12786TIP3    H259850   0.077   6.734  11.736  0.0488  1.3754  0.3615
12787TIP3   OH259851   2.737   1.271   0.401  0.1846 -0.1566 -0.5123
12787TIP3    H159852   2.818   1.228   0.426 -0.4121 -1.3652 -0.5778
12787TIP3    H259853   2.763   1.336   0.335  0.8778 -1.7501 -1.8588
12788TIP3   OH259854   3.598   3.575  12.940  0.8348 -0.6015 -0.2308
12788TIP3    H159855   3.521   3.542  12.894  0.8263 -0.0646 -0.6156
12788TIP3    H259856   3.578   3.562  13.033 -0.4357  1.0253 -0.2388
12789TIP3   OH259857   1.299   3.639  14.749  0.3603  0.3791  0.3411
12789TIP3    H159858   1.284   3.592  14.667  0.1806  2.2307 -0.7546
12789TIP3    H259859   1.338   3.722  14.722 -0.6762  1.4834  2.0424
12790TIP3   OH259860   6.856   5.248   0.480 -0.2877 -0.5222  0.6592
12790TIP3    H159861   6.902   5.243   0.396 -0.7212  0.0617  0.3852
12790TIP3    H259862   6.822   5.159   0.493  0.7189 -0.9019  0.7587
12791TIP3   OH259863   3.283   5.976   5.361 -0.2424  0.0664  0.2676
12791TIP3    H159864   3.320   6.061   5.336 -1.2006  0.1172 -1.0754
12791TIP3    H259865   3.226   5.952   5.288 -1.5983 -0.7630  1.5274
12792TIP3   OH259866   6.101   6.270   5.619 -0.6850 -0.1544 -0.0802
12792TIP3    H159867   6.059   6.309   5.542  1.4925 -0.0479 -1.3016
12792TIP3    H259868   6.094   6.338   5.686 -2.1141 -0.0183 -0.3398
12793TIP3   OH259869   6.355   2.125  11.851  0.1507  0.2222  0.0127
12793TIP3    H159870   6.327   2.115  11.760  1.2018  0.7942 -0.3866
12793TIP3    H259871   6.426   2.062  11.862  0.0596  0.1876  0.4247
12794TIP3   OH259872   5.207   1.591   4.755  0.3319 -1.2087  0.5364
12794TIP3    H159873   5.286   1.619   4.802  0.1406  1.4232 -0.5241
12794TIP3    H259874   5.239   1.533   4.687  1.0625 -1.9311  1.4618
12795TIP3   OH259875   2.734   5.847   0.671 -0.0013 -0.5337 -0.1160
12795TIP3    H159876   2.733   5.942   0.685  1.7550 -0.6192  0.8635
12795TIP3    H259877   2.826   5.826   0.657 -0.1667 -2.3164  1.2211
12796TIP3   OH259878   2.479   2.592  15.261  0.2548  0.4914  0.0660
12796TIP3    H159879   2.559   2.638  15.238  0.7129 -1.0992 -1.7088
12796TIP3    H259880   2.507   2.519  15.317 -0.1327  0.6689  0.5110
12797TIP3   OH259881   1.064   6.210  16.756  0.2239  0.1565  0.6958
12797TIP3    H159882   0.982   6.172  16.786  0.9202 -1.2649  0.8515
12797TIP3    H259883   1.040   6.261  16.679 -0.4139 -2.7253 -1.1594
12798TIP3   OH259884   6.158   4.222   3.603  0.7221  0.1759  0.8115
12798TIP3    H159885   6.124   4.289   3.544  2.2428 -0.7092 -1.1680
12798TIP3    H259886   6.084   4.162   3.617 -0.2603  1.5256  1.5460
12799TIP3   OH259887   6.395   1.409  10.652 -0.2117  0.0422  0.2417
12799TIP3    H159888   6.392   1.483  10.592 -1.6787 -0.2566 -0.0978
12799TIP3    H259889   6.353   1.337  10.605  2.5687 -1.5266 -0.0498
12800TIP3   OH259890   6.172   2.555  16.172 -0.3021 -0.6142  0.3814
12800TIP3    H159891   6.104   2.508  16.222 -0.8336  0.1933  0.4302
12800TIP3    H259892   6.182   2.638  16.218  0.8164 -0.7723  0.4346
12801TIP3   OH259893   5.441   6.482  15.285 -0.4051  0.5449  0.0736
12801TIP3    H159894   5.473   6.392  15.281 -1.4511  0.1044  1.1204
12801TIP3    H259895   5.520   6.536  15.293  0.2924 -0.1777 -1.4478
12802TIP3   OH259896   1.714   0.733  13.499 -0.2592 -0.3410 -0.1511
12802TIP3    H159897   1.801   0.740  13.460 -0.1900  1.1812  0.2342
12802TIP3    H259898   1.730   0.705  13.589 -0.1861 -0.3225 -0.1581
12803TIP3   OH259899   1.665   1.353   4.398 -0.1633 -0.3816  0.2061
12803TIP3    H159900   1.720   1.301   4.456 -0.1685  0.1228  0.6710
12803TIP3    H259901   1.695   1.331   4.310  0.2985 -0.6466  0.4260
12804TIP3   OH259902   3.317   5.375  16.720 -0.1513  0.6502  0.1894
12804TIP3    H159903   3.239   5.372  16.663  0.3509 -0.3722 -0.4885
12804TIP3    H259904   3.377   5.435  16.675 -0.3168  0.9754  0.4018
12805TIP3   OH259905   0.794   1.942   6.195 -0.0799  0.3855  0.5164
12805TIP3    H159906   0.714   1.951   6.247 -0.9252  0.1118 -0.6993
12805TIP3    H259907   0.842   1.871   6.236 -0.2790  0.7880  1.4755
12806TIP3   OH259908   3.917   1.176   2.044  0.2646 -0.0820  0.0756
12806TIP3    H159909   3.849   1.181   1.977  0.0793 -0.7786  0.2008
12806TIP3    H259910   3.871   1.199   2.125  0.4706  0.6847 -0.0221
12807TIP3   OH259911   6.802   0.157   2.528 -0.0989  0.1611 -0.4666
12807TIP3    H159912   6.716   0.119   2.544 -0.2588 -0.1706 -1.9551
12807TIP3    H259913   6.860   0.116   2.592 -0.7247 -0.8677 -0.5511
12808TIP3   OH259914   4.259   6.115  15.117  0.3414 -0.3996  0.1209
12808TIP3    H159915   4.230   6.205  15.106 -1.1030 -0.6760  1.2609
12808TIP3    H259916   4.229   6.070  15.038  1.6142  0.2204 -0.7375
12809TIP3   OH259917   3.045   5.930  16.292 -0.2042 -0.1305 -0.6252
12809TIP3    H159918   3.002   5.955  16.374  1.5178 -1.0270  0.6194
12809TIP3    H259919   3.084   6.012  16.260  1.4622 -0.2345  0.9715
12810TIP3   OH259920   0.624   5.798  11.330  0.0871 -0.4874  0.2439
12810TIP3    H159921   0.709   5.773  11.366 -0.5261 -1.6675  0.9615
12810TIP3    H259922   0.585   5.715  11.302 -1.3528 -0.1283  1.1130
12811TIP3   OH259923   6.659   3.693   0.576  0.7929 -0.1784  0.0480
12811TIP3    H159924   6.746   3.702   0.615  1.3230 -1.1390 -0.8616
12811TIP3    H259925   6.661   3.607   0.533 -0.7375 -0.3781  0.3347
12812TIP3   OH259926   1.346   5.487   3.285 -0.2769  0.2316 -0.4643
12812TIP3    H159927   1.313   5.563   3.237 -0.0768 -0.0348 -1.0441
12812TIP3    H259928   1.405   5.444   3.223 -2.4938 -1.9669 -1.2336
12813TIP3   OH259929   3.557   4.743   5.340 -0.1483 -0.3295  0.3377
12813TIP3    H159930   3.626   4.739   5.273 -0.0233 -0.5102  0.4790
12813TIP3    H259931   3.561   4.658   5.384  0.2624  0.0544  1.0681
12814TIP3   OH259932   3.622   2.463   4.443 -0.2732  0.3640 -0.0238
12814TIP3    H159933   3.703   2.424   4.411  0.4215  2.2656 -0.6908
12814TIP3    H259934   3.569   2.388   4.470  1.5342 -0.9501  0.0771
12815TIP3   OH259935   2.328   0.395  13.735 -0.3821  0.7327 -0.9544
12815TIP3    H159936   2.278   0.365  13.659 -1.6370 -0.4337  0.2511
12815TIP3    H259937   2.279   0.470  13.768 -0.0432  1.0063 -1.0601
12816TIP3   OH259938   3.932   2.059   4.927  0.6213  0.4404 -0.0668
12816TIP3    H159939   3.902   2.114   4.999  0.0390  0.1797 -0.1065
12816TIP3    H259940   3.867   2.071   4.858  1.1668  0.6830 -0.5513
12817TIP3   OH259941   2.187   3.826   1.281  0.2511  0.1330  0.6215
12817TIP3    H159942   2.113   3.824   1.220 -0.5151 -0.3862  1.5414
12817TIP3    H259943   2.192   3.917   1.310 -0.3964  0.0491  0.9981
12818TIP3   OH259944   0.649   5.735  12.306 -0.1970 -0.2797  0.0795
12818TIP3    H159945   0.717   5.777  12.254  3.0862 -2.1564  2.4212
12818TIP3    H259946   0.606   5.806  12.353  1.6685  0.8872  0.1113
12819TIP3   OH259947   2.610   6.249   1.061 -0.6059 -0.1392 -0.2356
12819TIP3    H159948   2.572   6.311   0.998  0.4793  0.0401 -0.7339
12819TIP3    H259949   2.636   6.174   1.009 -0.3166 -0.2764  0.0987
12820TIP3   OH259950   2.191   3.643  13.340  0.0122 -0.1764 -0.5535
12820TIP3    H159951   2.150   3.606  13.418 -0.3627 -1.1214 -1.1801
12820TIP3    H259952   2.252   3.708  13.374  0.6553 -1.3267  0.5922
12821TIP3   OH259953   5.780   6.835   5.629  0.2655  0.2299 -0.1573
12821TIP3    H159954   5.757   6.855   5.538 -1.1649  1.6854  0.4696
12821TIP3    H259955   5.805   6.743   5.628 -1.1984 -0.2084 -1.7871
12822TIP3   OH259956   3.586   5.645   1.486  0.6028  0.4843  0.5451
12822TIP3    H159957   3.549   5.558   1.473  0.5989  0.6644 -0.7270
12822TIP3    H259958   3.628   5.640   1.572 -0.4522 -0.3927  1.0435
12823TIP3   OH259959   0.366   4.581   6.328  0.3601  0.3487  0.7764
12823TIP3    H159960   0.361   4.505   6.385 -0.3417 -1.0991 -1.1160
12823TIP3    H259961   0.429   4.639   6.371 -0.3126 -0.5289  3.1021
12824TIP3   OH259962   4.509   2.157  11.258 -0.2594  0.5163  0.0176
12824TIP3    H159963   4.429   2.210  11.258  0.0032  0.9324 -1.0627
12824TIP3    H259964   4.515   2.122  11.169  1.5432  1.7104 -0.3850
12825TIP3   OH259965   4.819   6.120   5.031  0.1862 -0.5180  0.1625
12825TIP3    H159966   4.877   6.193   5.010  0.0455  0.1108  1.8286
12825TIP3    H259967   4.849   6.048   4.975 -1.0533  1.3413 -3.1958
12826TIP3   OH259968   3.947   6.775  12.286 -0.2970 -0.5011  0.4817
12826TIP3    H159969   4.008   6.745  12.220 -0.6677 -0.8495  0.2927
12826TIP3    H259970   3.975   6.733  12.367 -0.6741 -1.1835  0.2652
12827TIP3   OH259971   2.455   5.996  13.365  0.8666 -0.0851  0.1215
12827TIP3    H159972   2.395   6.032  13.430 -0.0006 -1.2746  0.0176
12827TIP3    H259973   2.442   5.902  13.370  0.1042 -0.1837 -2.3767
12828TIP3   OH259974   6.418   1.073   5.611  0.7547 -0.0924 -0.5468
12828TIP3    H159975   6.512   1.062   5.622  0.8329  1.0373 -0.0361
12828TIP3    H259976   6.405   1.078   5.516  1.5798  2.5860 -0.5953
12829TIP3   OH259977   6.731   6.056   5.207  0.2885 -0.1299  0.3730
12829TIP3    H159978   6.731   5.963   5.183  1.1376  0.2878 -1.4770
12829TIP3    H259979   6.639   6.081   5.208  0.1224 -0.6288 -0.7597
12830TIP3   OH259980   0.469   0.934  16.478 -0.0365  0.4396  0.4683
12830TIP3    H159981   0.543   0.939  16.417  0.6603  1.6641  1.3547
12830TIP3    H259982   0.473   1.016  16.527 -2.2654  0.7400  0.2609
12831TIP3   OH259983   6.128   4.797   2.015 -0.1010 -0.3010  0.0269
12831TIP3    H159984   6.174   4.715   1.997  0.3957  0.3394 -1.8241
12831TIP3    H259985   6.156   4.856   1.945 -0.0481  1.6230  1.5812
12832TIP3   OH259986   0.084   3.503   3.038 -0.5405 -0.0019 -0.2644
12832TIP3    H159987   0.059   3.545   2.955  0.1426 -0.0077 -0.4783
12832TIP3    H259988   0.127   3.573   3.087  0.3310 -0.3661 -0.4979
12833TIP3   OH259989   0.740   3.696  13.688  0.2240  0.9456 -0.2572
12833TIP3    H159990   0.830   3.674  13.662  0.7147  2.1364  0.3145
12833TIP3    H259991   0.752   3.751  13.766 -1.0208  1.0043 -0.0962
12834TIP3   OH259992   4.477   6.581   4.110  0.1661  0.6013  0.3314
12834TIP3    H159993   4.570   6.594   4.130  0.3269  2.3117 -1.2621
12834TIP3    H259994   4.466   6.486   4.108  1.8580  0.3652  0.6238
12835TIP3   OH259995   6.003   2.576   5.050 -0.1033  0.0315 -0.6935
12835TIP3    H159996   6.097   2.562   5.040  0.1348 -0.7413  1.8368
12835TIP3    H259997   5.963   2.501   5.006  0.4287  0.4273 -1.8951
12836TIP3   OH259998   3.368   4.588  17.075  0.3014  0.9722 -0.9951
12836TIP3    H159999   3.409   4.509  17.040 -0.8118  0.8509 -2.0878
12836TIP3    H260000   3.330   4.632  16.999 -1.6974  1.0108 -0.0511
12837TIP3   OH260001   2.233   3.724  15.696 -0.6769 -0.2388 -0.2523
12837TIP3    H160002   2.289   3.801  15.685 -1.2876  0.2123 -0.2262
12837TIP3    H260003   2.280   3.654  15.650  0.2395 -0.0339  0.3402
12838TIP3   OH260004   3.220   3.969   3.284  0.2332 -0.4210  0.1160
12838TIP3    H160005   3.307   3.994   3.313 -0.4598  2.4740  0.0154
12838TIP3    H260006   3.161   4.028   3.331 -1.7013 -2.3092  0.2037
12839TIP3   OH260007   3.572   3.507   3.966  0.1706 -0.7052 -0.0598
12839TIP3    H160008   3.505   3.487   3.901 -1.9426  0.5824  1.5917
12839TIP3    H260009   3.583   3.602   3.960  1.4168 -0.8215  0.1478
12840TIP3   OH260010   2.839   4.003   5.670  0.4301 -0.4324 -0.0238
12840TIP3    H160011   2.891   4.081   5.648 -2.7626  2.4837  1.8254
12840TIP3    H260012   2.855   3.943   5.597  3.1448  1.8630 -1.5414
12841TIP3   OH260013   1.308   4.327  13.977  0.2879 -0.2243  0.2955
12841TIP3    H160014   1.267   4.251  13.936  0.1942 -0.1145  0.1855
12841TIP3    H260015   1.370   4.359  13.911  0.6378 -0.4619  0.5056
12842TIP3   OH260016   6.844   1.588   5.372  0.1467 -0.8604  0.3127
12842TIP3    H160017   6.853   1.683   5.379 -0.3719 -0.7881  0.0067
12842TIP3    H260018   6.900   1.554   5.442  0.8285 -0.3485  0.0276
12843TIP3   OH260019   3.850   1.745   2.001 -0.3268  0.0561  0.2121
12843TIP3    H160020   3.944   1.731   2.010 -0.3804 -0.4155  0.0614
12843TIP3    H260021   3.820   1.761   2.090 -0.0227  0.7528  0.1974
12844TIP3   OH260022   3.641   4.776  13.683 -0.7861  0.3175  0.0456
12844TIP3    H160023   3.549   4.798  13.665 -0.3490  1.7965 -0.5306
12844TIP3    H260024   3.687   4.796  13.602 -0.1117 -1.6862 -0.1178
12845TIP3   OH260025   3.600   6.069  11.596  0.0891 -0.7598  0.0625
12845TIP3    H160026   3.594   6.036  11.686  0.3371 -1.7788 -0.2843
12845TIP3    H260027   3.668   6.136  11.600 -0.6598 -0.0271  0.8480
12846TIP3   OH260028   2.684   4.032  13.814  0.2961 -0.3887 -0.6337
12846TIP3    H160029   2.687   4.049  13.720 -0.4347 -0.3548 -0.6560
12846TIP3    H260030   2.610   3.973  13.826 -0.1254  0.2527  0.0165
12847TIP3   OH260031   2.543   4.668  13.850  0.2999  0.4798 -0.4912
12847TIP3    H160032   2.628   4.703  13.824  0.2160 -0.1083 -1.6441
12847TIP3    H260033   2.490   4.745  13.870  0.9494  0.8741 -0.2536
12848TIP3   OH260034   0.314   0.366  12.156  0.2217  0.0764  0.0456
12848TIP3    H160035   0.406   0.378  12.179 -0.2799  2.4519  1.0867
12848TIP3    H260036   0.312   0.282  12.110  2.6337 -0.8254  1.3878
12849TIP3   OH260037   1.793   6.448   4.998 -0.0645  0.1970  0.8931
12849TIP3    H160038   1.761   6.382   4.936  0.5543 -0.4527  1.2482
12849TIP3    H260039   1.866   6.405   5.043  0.7291  1.3293  0.7292
12850TIP3   OH260040   0.757   0.008  15.143  0.3756  0.4070  0.3419
12850TIP3    H160041   0.788  -0.067  15.194 -1.6426 -0.7618 -0.0315
12850TIP3    H260042   0.790  -0.008  15.054  0.3280  0.1840  0.3629
12851TIP3   OH260043   4.633   5.533  14.261 -0.0833  0.3064  0.0890
12851TIP3    H160044   4.693   5.486  14.319 -0.1784  1.0994  0.8398
12851TIP3    H260045   4.613   5.470  14.191  1.3865 -0.0604 -0.0223
12852TIP3   OH260046   2.585   6.362  11.428 -0.4692  0.5681 -0.3771
12852TIP3    H160047   2.529   6.426  11.383 -1.5378 -0.7705 -1.0063
12852TIP3    H260048   2.540   6.344  11.510  0.8857  2.1217  0.7688
12853TIP3   OH260049   5.011   4.509  12.580  0.1669 -0.0299  0.1212
12853TIP3    H160050   5.008   4.604  12.565 -0.0828 -0.1192 -0.4026
12853TIP3    H260051   4.993   4.499  12.674  0.9252  0.4855  0.3353
12854TIP3   OH260052   6.218   0.355   3.628  0.9034 -1.0033  0.2351
12854TIP3    H160053   6.309   0.381   3.620  0.5723 -0.0683 -0.9064
12854TIP3    H260054   6.171   0.414   3.569 -0.1681 -2.9225 -0.9549
12855TIP3   OH260055   5.689   0.305   5.491  0.2475 -0.4143 -0.5027
12855TIP3    H160056   5.623   0.256   5.443 -1.0342  1.8885 -1.2400
12855TIP3    H260057   5.647   0.328   5.574 -0.3730  1.9674 -1.4037
12856TIP3   OH260058   2.937   4.209  13.272 -0.1528 -0.0876 -0.2564
12856TIP3    H160059   2.956   4.204  13.179  1.0296  0.9990 -0.0962
12856TIP3    H260060   2.849   4.245  13.277 -1.3092 -2.5609 -0.9626
12857TIP3   OH260061   5.282   5.627   1.559 -0.1572  0.2745 -0.1772
12857TIP3    H160062   5.234   5.709   1.573  0.4762  0.7001 -0.4369
12857TIP3    H260063   5.230   5.579   1.494 -0.4467  0.5416 -0.1440
12858TIP3   OH260064   5.244   5.498   2.613  0.1936 -0.1653 -0.3454
12858TIP3    H160065   5.215   5.454   2.692  0.0223  1.0170  0.2724
12858TIP3    H260066   5.181   5.471   2.546  0.0987 -0.8464  0.0156
12859TIP3   OH260067   2.749   2.884  11.445  0.6265 -0.2331  0.1654
12859TIP3    H160068   2.679   2.881  11.379 -0.2957  0.0286  1.0936
12859TIP3    H260069   2.801   2.961  11.421 -0.5112  0.6791  0.5083
12860TIP3   OH260070   1.664   0.230  11.288  0.1029 -0.4913  0.0177
12860TIP3    H160071   1.701   0.174  11.219  0.8081  1.3098 -1.1545
12860TIP3    H260072   1.697   0.318  11.267 -1.4574  0.4808  1.4122
12861TIP3   OH260073   2.833   6.564  13.722  0.3989  0.4774  0.4111
12861TIP3    H160074   2.835   6.491  13.662  0.8946  0.6617  0.1935
12861TIP3    H260075   2.887   6.536  13.796 -0.7235  0.0030  1.0757
12862TIP3   OH260076   5.560   5.091  16.385  0.2078 -0.5396 -0.5521
12862TIP3    H160077   5.483   5.035  16.394  0.6049 -1.3108 -1.6139
12862TIP3    H260078   5.526   5.179  16.374 -0.5436 -0.8966 -1.1747
12863TIP3   OH260079   6.665   2.474   1.372 -0.0751  0.2278 -0.3768
12863TIP3    H160080   6.573   2.447   1.377  0.7345 -2.7466  1.1390
12863TIP3    H260081   6.662   2.569   1.360 -3.3167  0.0968 -1.6617
12864TIP3   OH260082   4.751   4.768   4.085 -0.0631 -0.2790  0.1870
12864TIP3    H160083   4.762   4.860   4.062  0.9871 -0.1076  1.3014
12864TIP3    H260084   4.713   4.769   4.173 -1.4688 -0.9294 -0.3679
12865TIP3   OH260085   3.998   2.463   5.678 -0.3585  0.4709 -0.2806
12865TIP3    H160086   4.029   2.545   5.640  1.6803  0.1537  0.5842
12865TIP3    H260087   4.052   2.396   5.639  1.2613  0.0482  2.4338
12866TIP3   OH260088   2.308   5.523   3.142 -0.4094 -0.0743  0.0518
12866TIP3    H160089   2.353   5.556   3.220 -1.7232 -0.1912  0.9062
12866TIP3    H260090   2.332   5.584   3.072  2.3178 -1.0208  0.0416
12867TIP3   OH260091   4.704   2.453   5.213  0.4460 -0.0020 -0.3270
12867TIP3    H160092   4.671   2.423   5.298 -0.2285 -0.1617 -0.6400
12867TIP3    H260093   4.772   2.390   5.191 -1.3019 -1.6655 -1.2130
12868TIP3   OH260094   6.562   6.656   2.835  0.0571  0.3528 -0.1444
12868TIP3    H160095   6.477   6.691   2.807  0.4225  0.0624 -1.7238
12868TIP3    H260096   6.615   6.734   2.852  0.0532  0.5797 -1.0807
12869TIP3   OH260097   4.889   1.397   3.919 -0.4709 -1.0356  0.0233
12869TIP3    H160098   4.831   1.361   3.852  0.8120 -1.4942 -0.8998
12869TIP3    H260099   4.933   1.321   3.957 -1.4922 -0.8210  1.7368
12870TIP3   OH260100   1.996   0.913   5.556 -0.6021 -0.4727  0.0615
12870TIP3    H160101   1.947   0.917   5.474 -0.1211 -0.8745 -0.2531
12870TIP3    H260102   1.950   0.973   5.615  1.1483  2.8407 -1.6251
12871TIP3   OH260103   6.479   3.419  13.671  0.0291 -1.1180  0.0218
12871TIP3    H160104   6.435   3.341  13.637 -0.4188  0.0200 -2.1680
12871TIP3    H260105   6.521   3.458  13.595 -2.3104  2.4422  0.3096
12872TIP3   OH260106   2.007   3.397  12.975  0.2433 -0.2301 -0.0321
12872TIP3    H160107   1.945   3.382  12.904 -2.5427 -0.3622  2.2250
12872TIP3    H260108   1.978   3.478  13.016  1.5499 -0.3089  1.1239
12873TIP3   OH260109   4.287   5.410   4.433  0.2266 -0.2091  0.2159
12873TIP3    H160110   4.295   5.505   4.439  1.4224 -0.2617 -0.2680
12873TIP3    H260111   4.197   5.395   4.404  0.3810  0.8253 -0.8834
12874TIP3   OH260112   1.792   0.269   4.932  0.0675  0.7199  0.2614
12874TIP3    H160113   1.837   0.188   4.907 -2.2015 -1.1519  1.8436
12874TIP3    H260114   1.807   0.277   5.026 -0.1467  1.9227  0.2089
12875TIP3   OH260115   2.161   5.735   4.630  0.4226  0.1766  0.1138
12875TIP3    H160116   2.123   5.696   4.708  1.6910 -3.3692 -0.8643
12875TIP3    H260117   2.132   5.680   4.558  2.4618  0.9278 -1.3958
12876TIP3   OH260118   5.624   0.042   1.136  0.7754 -0.4359  0.5087
12876TIP3    H160119   5.684   0.080   1.072  0.8446  1.8327  1.8192
12876TIP3    H260120   5.681   0.001   1.201  0.7337 -1.6815 -0.1991
12877TIP3   OH260121   2.531   4.220   4.985  0.5142 -0.2541  0.0595
12877TIP3    H160122   2.616   4.250   5.016  0.7169  1.4766 -1.9079
12877TIP3    H260123   2.538   4.225   4.889 -1.4216 -1.1766 -0.1758
12878TIP3   OH260124   5.872   6.564   5.631  0.2090  0.0603  0.1777
12878TIP3    H160125   5.935   6.535   5.696 -0.9001  0.5817  1.5274
12878TIP3    H260126   5.837   6.484   5.593  0.6383 -0.2584  0.4507
12879TIP3   OH260127   3.646   2.004  11.522 -0.6193  0.5879  0.2385
12879TIP3    H160128   3.736   1.975  11.540 -0.5891 -0.6498 -1.6352
12879TIP3    H260129   3.650   2.038  11.433 -2.2810 -0.8457 -0.4360
12880TIP3   OH260130   5.597   2.680  15.821 -0.0128 -0.1907  0.2731
12880TIP3    H160131   5.594   2.734  15.900 -0.4432 -0.5854  0.5302
12880TIP3    H260132   5.505   2.663  15.800  0.0998 -2.6855  1.4797
12881TIP3   OH260133   6.550   1.246   4.695  0.2119 -0.4900  0.3624
12881TIP3    H160134   6.485   1.177   4.711  1.1892 -2.3656 -2.7979
12881TIP3    H260135   6.594   1.257   4.779 -3.6459  0.4905  2.5187
12882TIP3   OH260136   2.438   0.072  16.333  0.1012  0.3996 -0.1732
12882TIP3    H160137   2.367   0.134  16.316  0.8748  2.1755  2.5549
12882TIP3    H260138   2.395  -0.001  16.378 -0.4958 -0.2432 -1.6984
12883TIP3   OH260139   6.557   5.619   4.667  0.6818 -0.2534 -0.2818
12883TIP3    H160140   6.580   5.709   4.644 -1.1069  0.0846 -0.9034
12883TIP3    H260141   6.519   5.626   4.755  0.6190 -0.4092 -0.2970
12884TIP3   OH260142   0.609   4.861   0.108 -0.2161 -0.3826 -0.1789
12884TIP3    H160143   0.544   4.796   0.079  0.0818 -1.4674  1.4382
12884TIP3    H260144   0.582   4.942   0.065 -3.8787 -0.2911  1.8852
12885TIP3   OH260145   1.982   4.443  14.048  0.5787  0.3683  0.5679
12885TIP3    H160146   1.906   4.426  14.103  1.1446 -1.1587  0.9306
12885TIP3    H260147   1.946   4.474  13.965 -0.2873  3.1499  1.8444
12886TIP3   OH260148   4.415   5.205  16.748  0.1600 -0.1421  0.4048
12886TIP3    H160149   4.430   5.207  16.842  1.3782 -3.1978  0.3672
12886TIP3    H260150   4.499   5.230  16.710 -0.0525  0.1294  0.0995
12887TIP3   OH260151   1.541   1.784  12.112 -0.0549  0.5444  0.5414
12887TIP3    H160152   1.553   1.878  12.103 -0.7390  1.0739  3.9365
12887TIP3    H260153   1.446   1.772  12.114  0.0300 -0.0963  1.0189
12888TIP3   OH260154   3.103   5.813  15.051 -0.2799 -0.1703  0.1198
12888TIP3    H160155   3.077   5.897  15.013  0.6134 -0.2483 -0.7120
12888TIP3    H260156   3.031   5.754  15.031  0.4087 -0.3680 -2.0509
12889TIP3   OH260157   4.254   1.392   4.681  0.1088 -0.6620  0.6605
12889TIP3    H160158   4.217   1.324   4.738 -0.0575 -1.8913 -0.8755
12889TIP3    H260159   4.202   1.387   4.601  0.0820  1.3132  0.5061
12890TIP3   OH260160   6.438   5.794  14.665  0.0669 -0.2237  0.0434
12890TIP3    H160161   6.500   5.787  14.591  1.1367 -1.9337  1.0290
12890TIP3    H260162   6.490   5.830  14.736 -0.7331  0.6008  0.2184
12891TIP3   OH260163   1.032   5.739  14.868  0.8106 -0.6510  0.0429
12891TIP3    H160164   1.069   5.827  14.864  0.3331 -0.4508 -0.0919
12891TIP3    H260165   0.985   5.736  14.951  0.5027 -0.6491 -0.1312
12892TIP3   OH260166   2.893   2.721  14.353 -0.4003  0.4723  0.1854
12892TIP3    H160167   2.891   2.732  14.448 -1.0472  1.7708  0.0470
12892TIP3    H260168   2.943   2.796  14.321 -0.3231  0.1365 -0.5109
12893TIP3   OH260169   0.126   3.692  10.898  0.1455 -0.8931 -0.0096
12893TIP3    H160170   0.184   3.686  10.822 -0.0268 -1.4177 -0.1062
12893TIP3    H260171   0.042   3.659  10.866 -0.2060 -0.1306  0.1306
12894TIP3   OH260172   6.332   6.109  12.880  0.2866  0.1251  0.2308
12894TIP3    H160173   6.307   6.199  12.903 -0.8538  0.7053 -2.8547
12894TIP3    H260174   6.267   6.055  12.924 -0.1748  0.9420  0.5893
12895TIP3   OH260175   5.009   2.074   6.335 -0.0315 -0.7349 -0.1320
12895TIP3    H160176   4.964   2.127   6.270  0.0646  1.2275  1.3371
12895TIP3    H260177   5.100   2.070   6.304 -0.2057 -0.6900 -0.6504
12896TIP3   OH260178   1.589   2.201  11.317 -0.5244 -0.2053 -0.4113
12896TIP3    H160179   1.558   2.116  11.286 -0.4390  0.3638 -2.1736
12896TIP3    H260180   1.578   2.259  11.242  0.5138  1.0789  0.3844
12897TIP3   OH260181   5.219   0.680  14.349  0.0397 -0.4851  0.2481
12897TIP3    H160182   5.287   0.737  14.313  1.5159 -2.6393 -0.6131
12897TIP3    H260183   5.264   0.631  14.419 -0.4430 -2.2181 -0.5919
12898TIP3   OH260184   3.524   1.642   4.619 -0.2348 -0.4687  0.2648
12898TIP3    H160185   3.539   1.671   4.529 -1.8763  0.1339  0.1431
12898TIP3    H260186   3.584   1.694   4.672 -1.9602  2.0868 -0.1107
12899TIP3   OH260187   5.067   0.820   5.458  0.1297 -0.0657  0.1363
12899TIP3    H160188   5.104   0.864   5.382  0.6026 -0.5877  0.0612
12899TIP3    H260189   5.077   0.727   5.440 -1.9223 -0.2683 -0.2461
12900TIP3   OH260190   6.000   4.221  16.429 -0.1420 -0.3446 -0.4520
12900TIP3    H160191   5.935   4.184  16.490  0.7069  1.0098  1.3618
12900TIP3    H260192   5.972   4.190  16.343 -3.7574  0.9019  0.1041
12901TIP3   OH260193   0.794   2.820   0.456 -0.3893 -0.3129 -0.0995
12901TIP3    H160194   0.756   2.733   0.442 -0.4445 -0.2983 -0.0433
12901TIP3    H260195   0.761   2.872   0.382  1.3845 -0.8870 -1.3677
12902TIP3   OH260196   0.415   6.401  11.930  0.0320  0.3001 -0.1271
12902TIP3    H160197   0.348   6.336  11.908 -0.0039  0.9111 -2.0141
12902TIP3    H260198   0.365   6.479  11.956  0.0716 -0.1712  1.4638
12903TIP3   OH260199   2.010   3.792   4.707 -0.1085 -0.3074  0.4263
12903TIP3    H160200   2.037   3.757   4.621 -1.3500  1.6513 -0.8447
12903TIP3    H260201   2.085   3.844   4.735 -0.4083  0.6297 -0.4425
12904TIP3   OH260202   1.931   5.352  11.036  0.0825  0.1771  0.2066
12904TIP3    H160203   1.863   5.373  11.101  0.1408 -0.0778  0.3510
12904TIP3    H260204   1.919   5.417  10.967 -2.2823 -1.6618 -1.2641
12905TIP3   OH260205   5.963   1.613   4.059 -0.0669  0.4363 -0.1769
12905TIP3    H160206   6.020   1.591   4.133  1.8090 -0.6656 -1.8629
12905TIP3    H260207   5.987   1.704   4.038  0.5173  0.2431 -0.3756
12906TIP3   OH260208   3.679   2.817   3.029  0.2202  0.5134 -0.1670
12906TIP3    H160209   3.651   2.749   2.967 -0.8509 -0.2111  1.0449
12906TIP3    H260210   3.773   2.801   3.040  0.0938 -0.4508 -0.3178
12907TIP3   OH260211   4.992   6.599  12.967 -0.0503  0.3237  0.4337
12907TIP3    H160212   5.027   6.580  12.880  1.3187  2.2333  0.4919
12907TIP3    H260213   4.917   6.656  12.951 -0.5202 -0.2698  0.4813
12908TIP3   OH260214   4.017   5.241   1.867  0.4859 -0.3144 -0.0897
12908TIP3    H160215   4.056   5.225   1.781 -0.6805 -2.3839 -0.3118
12908TIP3    H260216   3.990   5.333   1.864  0.7070 -0.2661 -1.8472
12909TIP3   OH260217   3.365   1.388   2.001  0.2385  0.2744  0.1528
12909TIP3    H160218   3.386   1.444   1.927  0.5487  0.7847  0.6212
12909TIP3    H260219   3.347   1.449   2.073 -2.0773 -0.1434 -0.0085
12910TIP3   OH260220   6.106   0.806  13.334 -0.5640  0.3026 -0.2471
12910TIP3    H160221   6.128   0.713  13.328  0.5221  0.4562  0.9256
12910TIP3    H260222   6.043   0.811  13.405 -0.9378  0.4135 -0.5865
12911TIP3   OH260223   6.157   0.916   3.818  0.0256  0.0265  0.1793
12911TIP3    H160224   6.122   0.997   3.781  1.4695  0.8500  0.5322
12911TIP3    H260225   6.147   0.852   3.748  0.6908  1.0119 -0.8609
12912TIP3   OH260226   0.510   3.800   3.962 -0.0272  0.7623 -0.0874
12912TIP3    H160227   0.520   3.881   3.912 -1.0352  1.1479  0.2992
12912TIP3    H260228   0.459   3.743   3.906  0.1923  0.6079 -0.1304
12913TIP3   OH260229   0.604   3.328  13.245 -0.1642  0.0849 -0.1203
12913TIP3    H160230   0.552   3.399  13.210  0.4964  1.5021  1.6110
12913TIP3    H260231   0.540   3.265  13.278 -0.8453  1.6033  1.5968
12914TIP3   OH260232   6.051   2.689  14.643 -0.1773  0.8446  0.0795
12914TIP3    H160233   6.078   2.692  14.551 -0.0737 -0.9695  0.0150
12914TIP3    H260234   6.128   2.657  14.689 -1.0151 -0.8036  0.4021
12915TIP3   OH260235   2.546   4.615   1.802  0.5862 -0.6889 -0.3007
12915TIP3    H160236   2.602   4.544   1.771 -0.2043 -2.2393  1.6292
12915TIP3    H260237   2.581   4.636   1.889  1.2511  1.8508 -1.0853
12916TIP3   OH260238   5.800   0.719  16.558  0.3113 -0.5211  0.4477
12916TIP3    H160239   5.750   0.797  16.535 -0.1754 -1.1593 -0.7533
12916TIP3    H260240   5.817   0.728  16.652 -1.1623  0.2134  0.6637
12917TIP3   OH260241   4.674   6.745  13.823  0.3445  0.1621  0.4947
12917TIP3    H160242   4.706   6.834  13.808 -0.5386  0.4196  0.0550
12917TIP3    H260243   4.696   6.726  13.914 -1.9001  1.9082  1.4997
12918TIP3   OH260244   2.954   6.101  13.820  0.4737 -0.2498  0.7977
12918TIP3    H160245   2.930   6.034  13.757 -0.0227  1.9314 -1.4850
12918TIP3    H260246   2.907   6.076  13.900 -0.9823 -1.7253 -0.4503
12919TIP3   OH260247   3.394   2.133  10.985  0.5775  0.0936  0.7381
12919TIP3    H160248   3.304   2.133  10.953  0.4647  0.2750  1.0558
12919TIP3    H260249   3.444   2.089  10.916  0.5250  1.5109 -0.2684
12920TIP3   OH260250   3.742   5.437   4.073  0.2515 -0.4432  0.4825
12920TIP3    H160251   3.759   5.459   4.164 -0.9732  1.9747  0.2135
12920TIP3    H260252   3.693   5.355   4.076  1.7027 -1.3137  1.8473
12921TIP3   OH260253   6.011   6.243   5.353  0.5310 -0.3776 -0.1884
12921TIP3    H160254   6.079   6.308   5.334  1.4446 -1.4748 -0.7517
12921TIP3    H260255   6.010   6.185   5.278  0.1880 -1.4128  0.5856
12922TIP3   OH260256   0.079   5.542   0.007  0.1726  0.4836  0.2514
12922TIP3    H160257   0.153   5.486   0.033  0.6912  1.5067  1.0346
12922TIP3    H260258   0.116   5.602  -0.057 -0.1248  0.6047  0.1954
12923TIP3   OH260259   1.702   1.271   0.715  0.3071 -0.5128 -0.7361
12923TIP3    H160260   1.626   1.212   0.716  1.3457 -2.0443  2.6176
12923TIP3    H260261   1.664   1.359   0.723 -1.1695 -1.1950  0.2093
12924TIP3   OH260262   6.081   6.127  15.332 -0.1021 -0.0961 -0.1850
12924TIP3    H160263   6.060   6.220  15.341  0.8837  0.9064 -5.0672
12924TIP3    H260264   5.995   6.083  15.329 -0.7038  1.0555 -0.2833
12925TIP3   OH260265   0.844   0.709   4.334 -0.1902  0.0098 -0.4594
12925TIP3    H160266   0.933   0.720   4.302  0.5547  0.2334  1.5895
12925TIP3    H260267   0.796   0.783   4.295  0.7993  0.6089 -0.5850
12926TIP3   OH260268   3.488   5.211  13.954  0.5851  0.6983  0.5455
12926TIP3    H160269   3.576   5.185  13.982  0.3688 -1.6913 -0.7092
12926TIP3    H260270   3.472   5.161  13.875 -1.4706  2.0013  0.0426
12927TIP3   OH260271   2.546   6.454  13.578  0.7290  0.2615  0.1450
12927TIP3    H160272   2.639   6.475  13.570  0.1209  2.6708 -1.8575
12927TIP3    H260273   2.515   6.449  13.488 -1.0495 -0.8327  0.7757
12928TIP3   OH260274   1.656   2.345  12.177  0.4913 -0.0407  0.6850
12928TIP3    H160275   1.652   2.272  12.238  2.0227 -0.0261  0.8340
12928TIP3    H260276   1.748   2.371  12.176  0.0959  1.4732  0.1493
12929TIP3   OH260277   2.419   0.849   5.222  0.3522 -0.0779 -0.4846
12929TIP3    H160278   2.352   0.866   5.288 -1.1171  2.3583 -2.4054
12929TIP3    H260279   2.493   0.903   5.247 -0.0404  0.5149 -0.5847
12930TIP3   OH260280   0.507   5.497   5.866  0.0125 -0.2111  0.1590
12930TIP3    H160281   0.506   5.509   5.771  0.0836  0.8257  0.2728
12930TIP3    H260282   0.437   5.553   5.898  0.2127 -0.2848  0.7454
12931TIP3   OH260283   2.343   3.832  12.500 -0.4277  0.5365 -0.3461
12931TIP3    H160284   2.342   3.910  12.444  0.0554  0.4214 -0.5211
12931TIP3    H260285   2.343   3.759  12.438 -1.2613  0.3852 -0.1800
12932TIP3   OH260286   5.089   5.099  14.693  0.5817  0.2733 -0.8503
12932TIP3    H160287   5.083   5.068  14.783 -0.4009 -1.7957 -1.5619
12932TIP3    H260288   5.144   5.034  14.648  0.3972  0.8258 -1.9111
12933TIP3   OH260289   5.213   0.213   3.743  0.5496 -0.2760 -0.1487
12933TIP3    H160290   5.280   0.161   3.699 -0.5246  0.2318 -2.5512
12933TIP3    H260291   5.241   0.304   3.729  0.5092 -0.1049  0.8164
12934TIP3   OH260292   6.530   1.436   2.947  0.2489  0.1169  0.1216
12934TIP3    H160293   6.530   1.373   3.020  0.2782  0.2224  0.2135
12934TIP3    H260294   6.535   1.521   2.990  0.5616  0.1668 -0.0148
12935TIP3   OH260295   0.748   5.028  11.336 -0.5989  0.2868  0.8107
12935TIP3    H160296   0.808   4.955  11.326 -1.1956 -0.3417  1.6099
12935TIP3    H260297   0.672   4.990  11.382 -0.5559  1.5786  2.0118
12936TIP3   OH260298   0.743   5.209   1.492 -0.0319  0.1974  0.2741
12936TIP3    H160299   0.754   5.117   1.468 -0.9824 -0.0482  0.7192
12936TIP3    H260300   0.683   5.207   1.567 -0.8114  1.2318 -0.2988
12937TIP3   OH260301   2.811   1.573   0.937 -0.2115  0.4987 -0.0283
12937TIP3    H160302   2.842   1.661   0.915 -0.5313  1.1770  2.0258
12937TIP3    H260303   2.722   1.569   0.903  0.5078  0.1581 -1.9978
12938TIP3   OH260304   2.825   0.389   6.358 -0.1238  0.4291  0.8476
12938TIP3    H160305   2.809   0.480   6.334  0.7173  0.6984  1.2702
12938TIP3    H260306   2.920   0.382   6.365 -0.1581 -0.5694  0.4985
12939TIP3   OH260307   5.306   5.855  10.869 -0.0271  0.4699  0.0266
12939TIP3    H160308   5.332   5.907  10.793 -0.0331  0.1213 -0.2171
12939TIP3    H260309   5.232   5.903  10.906 -1.1349 -0.2251 -1.1858
12940TIP3   OH260310   1.276   5.446  13.449 -0.3823 -0.0459 -0.0555
12940TIP3    H160311   1.343   5.475  13.387 -0.5188 -0.0746 -0.2162
12940TIP3    H260312   1.315   5.370  13.492  0.8732  1.6004  1.9209
12941TIP3   OH260313   5.453   6.184   2.392  0.1402  0.0848 -0.0795
12941TIP3    H160314   5.379   6.128   2.417  1.7717 -1.7755  0.8845
12941TIP3    H260315   5.522   6.123   2.367  0.8919  1.7856 -2.5946
12942TIP3   OH260316   1.693   5.383  14.581 -0.5493  0.6393 -0.3912
12942TIP3    H160317   1.767   5.348  14.531 -0.6669  2.3168 -1.8018
12942TIP3    H260318   1.623   5.394  14.517 -1.2109  1.4198  0.4345
12943TIP3   OH260319   0.364   5.697   0.124 -0.6893  0.2002 -0.8535
12943TIP3    H160320   0.311   5.775   0.139  0.0111  0.5090  0.1868
12943TIP3    H260321   0.344   5.639   0.198 -0.9891 -0.4900 -1.4619
12944TIP3   OH260322   4.512   3.851   1.060 -0.0925 -0.0445  0.0088
12944TIP3    H160323   4.512   3.920   1.127 -1.4926  0.7656 -0.7970
12944TIP3    H260324   4.421   3.822   1.054  0.7399 -3.9799  2.2626
12945TIP3   OH260325   2.069   1.889  13.761 -0.3034  0.1461 -0.1387
12945TIP3    H160326   2.067   1.831  13.686 -4.3879  0.8074 -0.7476
12945TIP3    H260327   2.038   1.836  13.834  1.2463  0.1983  0.6162
12946TIP3   OH260328   2.136   5.867  14.661 -0.0836 -0.0298 -0.2615
12946TIP3    H160329   2.145   5.919  14.741 -1.6181  0.4625 -0.3758
12946TIP3    H260330   2.043   5.872  14.640  0.4713  1.0840 -2.8916
12947TIP3   OH260331   5.168   2.992   3.387 -0.0043  0.2217 -0.2760
12947TIP3    H160332   5.162   3.008   3.292  0.0651  0.0950 -0.3011
12947TIP3    H260333   5.262   2.986   3.404 -0.0371 -0.3775 -0.3007
12948TIP3   OH260334   4.525   6.035  14.490  0.2026  0.0855 -0.0716
12948TIP3    H160335   4.508   6.021  14.396  1.3237 -1.8280 -0.0421
12948TIP3    H260336   4.579   6.114  14.492  1.9560 -1.0019 -1.2914
12949TIP3   OH260337   3.940   5.533  13.234 -0.4775  0.2834  0.2698
12949TIP3    H160338   3.929   5.486  13.152 -1.0178  2.0201 -0.7036
12949TIP3    H260339   3.850   5.549  13.265 -0.3430  1.3474  0.1550
12950TIP3   OH260340   6.730   1.336  11.170 -0.0798  0.4902  0.1904
12950TIP3    H160341   6.728   1.423  11.210  1.9176  0.3718  0.6486
12950TIP3    H260342   6.711   1.352  11.077 -0.7803  1.2654  0.4484
12951TIP3   OH260343   5.158   3.166   0.955 -0.2234  0.2026 -0.8565
12951TIP3    H160344   5.101   3.107   0.906  0.6709 -0.0457 -1.6211
12951TIP3    H260345   5.246   3.150   0.920  0.2929  0.7480  0.1283
12952TIP3   OH260346   2.425   5.287   1.121  0.1786  0.0585  0.1453
12952TIP3    H160347   2.516   5.295   1.148  0.5092  1.0361 -1.1995
12952TIP3    H260348   2.428   5.263   1.029 -0.9255  0.7483 -0.0942
12953TIP3   OH260349   5.997   0.417   1.296 -0.2082 -0.0355 -0.3497
12953TIP3    H160350   5.935   0.361   1.249  0.7646 -0.8790 -0.6716
12953TIP3    H260351   6.039   0.359   1.359  0.8875  0.2934 -0.7507
12954TIP3   OH260352   6.653   4.397  13.312 -0.3698 -0.2552  0.1066
12954TIP3    H160353   6.736   4.438  13.335 -0.2524 -1.1385  1.3572
12954TIP3    H260354   6.593   4.470  13.296  0.3409  0.3886  0.3560
12955TIP3   OH260355   6.552   0.597  12.071  0.1619  0.5014 -0.4440
12955TIP3    H160356   6.516   0.680  12.101 -0.1135  0.2795 -0.1567
12955TIP3    H260357   6.480   0.554  12.026  0.2784  0.3743 -0.5102
12956TIP3   OH260358   5.539   4.506  15.297 -0.3373  0.3638  0.1487
12956TIP3    H160359   5.520   4.422  15.339 -1.5844  0.2303 -0.6224
12956TIP3    H260360   5.583   4.558  15.364  0.1571 -0.7830  0.7386
12957TIP3   OH260361   3.475   3.908  16.429 -0.2411  0.6347 -0.3248
12957TIP3    H160362   3.570   3.910  16.424 -0.2203  0.8312  0.1100
12957TIP3    H260363   3.456   3.902  16.523 -0.6699  1.7763 -0.3182
12958TIP3   OH260364   6.814   3.440   1.286  0.0079  0.9565  0.2930
12958TIP3    H160365   6.812   3.472   1.376 -0.0343  0.2643  0.5410
12958TIP3    H260366   6.900   3.399   1.277 -0.2246  0.4783  0.2125
12959TIP3   OH260367   2.141   1.974   0.593 -0.0593  0.9484  0.4172
12959TIP3    H160368   2.095   1.986   0.676 -0.6857  0.3167  0.1758
12959TIP3    H260369   2.127   2.056   0.545 -0.6552  0.8882  0.4861
12960TIP3   OH260370   1.917   6.148  14.013 -0.4524 -0.1310 -0.5365
12960TIP3    H160371   1.860   6.198  14.072 -0.4071  0.0110 -0.6142
12960TIP3    H260372   2.003   6.189  14.022  0.0335 -1.3293  0.7923
12961TIP3   OH260373   6.028   1.896  10.188 -0.6946 -0.3523  0.5029
12961TIP3    H160374   6.067   1.888  10.101 -1.4077 -0.6889  0.2016
12961TIP3    H260375   6.078   1.836  10.243  2.0524  2.3211  1.1990
12962TIP3   OH260376   1.034   3.602  11.722  0.0303  0.5472 -0.0519
12962TIP3    H160377   1.097   3.532  11.708 -0.3074  0.6910 -2.7880
12962TIP3    H260378   0.977   3.599  11.645 -1.7802  1.9926  1.1487
12963TIP3   OH260379   0.300   6.715   4.408 -0.3642 -0.2202 -0.1257
12963TIP3    H160380   0.334   6.669   4.484 -1.5129 -0.6146  0.1769
12963TIP3    H260381   0.265   6.797   4.443 -2.1754 -1.0060  0.0559
12964TIP3   OH260382   4.851   1.587  15.365 -0.2453 -0.6041 -0.2948
12964TIP3    H160383   4.813   1.570  15.451  1.2341 -0.3935  0.4367
12964TIP3    H260384   4.937   1.544  15.368 -0.3596 -0.9925 -1.8415
12965TIP3   OH260385   5.054   3.693   2.826  0.0425 -0.2785 -0.7293
12965TIP3    H160386   5.118   3.681   2.755  1.3890  1.1441  0.1661
12965TIP3    H260387   5.099   3.751   2.888 -1.9797  0.4018  0.1623
12966TIP3   OH260388   5.603   1.633  13.615 -0.1926 -0.3164  0.0980
12966TIP3    H160389   5.692   1.666  13.604 -0.9243  1.2264 -1.8328
12966TIP3    H260390   5.614   1.549  13.660  2.3088 -0.5575 -0.7924
12967TIP3   OH260391   0.014   4.607   1.875  0.3331 -0.2413 -0.3613
12967TIP3    H160392   0.028   4.700   1.891 -0.2985 -0.3003  0.5912
12967TIP3    H260393   0.079   4.563   1.929 -0.9208 -0.4018  1.0762
12968TIP3   OH260394   0.084   2.282  16.060  0.1621  0.2136 -0.3146
12968TIP3    H160395   0.135   2.356  16.093  0.1605  0.7268 -1.4225
12968TIP3    H260396   0.052   2.238  16.139  0.3519  1.2598  0.3673
12969TIP3   OH260397   5.345   1.086  13.210 -0.9663 -0.4718  0.2989
12969TIP3    H160398   5.349   1.007  13.155 -1.4767 -0.4267  0.1922
12969TIP3    H260399   5.376   1.156  13.152  0.3810 -0.7255  0.6728
12970TIP3   OH260400   3.829   2.334   4.340 -0.6918  0.0320 -0.5922
12970TIP3    H160401   3.906   2.389   4.327 -1.1531  1.0811  0.9012
12970TIP3    H260402   3.854   2.273   4.409 -1.5401  1.1929  0.8167
12971TIP3   OH260403   3.512   5.889  14.026  0.2897  0.1391 -0.1375
12971TIP3    H160404   3.479   5.972  14.059  1.3762  0.6561 -0.3069
12971TIP3    H260405   3.533   5.906  13.934  0.5071 -0.3282 -0.1774
12972TIP3   OH260406   6.384   0.564  14.026  0.0490  0.2959  0.0261
12972TIP3    H160407   6.350   0.493  13.972 -1.0732 -0.9598  2.2643
12972TIP3    H260408   6.306   0.610  14.057  0.7057  1.5514 -0.1243
12973TIP3   OH260409   5.239   4.325  12.713  0.3801  0.8943  0.5161
12973TIP3    H160410   5.269   4.237  12.734  0.3499  0.9120  0.6313
12973TIP3    H260411   5.233   4.326  12.617 -1.5137  0.1513  0.5814
12974TIP3   OH260412   5.647   4.447  15.777  0.1229 -0.5997 -0.6280
12974TIP3    H160413   5.684   4.423  15.862  0.6566  0.0973 -0.6553
12974TIP3    H260414   5.696   4.394  15.714 -1.7614 -2.8037 -0.3815
12975TIP3   OH260415   1.424   4.683   0.766  0.3405  0.3273  0.1487
12975TIP3    H160416   1.368   4.614   0.729  1.5147 -1.1644  1.0477
12975TIP3    H260417   1.436   4.744   0.693 -0.9335 -0.2720 -0.6120
12976TIP3   OH260418   5.234   3.702   5.007 -0.7801  0.4976  0.0413
12976TIP3    H160419   5.199   3.786   4.977 -1.7348 -0.1682 -0.7569
12976TIP3    H260420   5.258   3.656   4.926 -0.2646 -0.0096  0.4745
12977TIP3   OH260421   2.522   3.292   5.673  0.4790 -0.1694  0.1120
12977TIP3    H160422   2.488   3.350   5.605  0.7767 -0.2048 -0.0681
12977TIP3    H260423   2.617   3.300   5.667  0.5234 -0.6472  0.1073
12978TIP3   OH260424   3.548   0.769   2.406 -0.2252  0.8236  0.5622
12978TIP3    H160425   3.572   0.700   2.467  2.8989  0.7359 -0.5896
12978TIP3    H260426   3.502   0.724   2.335 -0.7398  0.4169  1.1381
12979TIP3   OH260427   2.058   3.719  16.835 -0.3487 -0.5914 -0.3876
12979TIP3    H160428   2.006   3.718  16.915  1.9924 -1.5011  1.2328
12979TIP3    H260429   1.997   3.746  16.767 -2.9164 -1.6584  1.3518
12980TIP3   OH260430   6.610   2.986  15.989 -0.3473 -1.0091 -0.2517
12980TIP3    H160431   6.664   3.030  15.923 -1.1240 -2.1224 -1.6914
12980TIP3    H260432   6.525   2.976  15.947 -0.5935 -2.6011  0.5442
12981TIP3   OH260433   3.450   6.490  12.543 -0.1566  0.1633 -0.1836
12981TIP3    H160434   3.391   6.489  12.618 -0.4110 -0.7842 -0.3783
12981TIP3    H260435   3.433   6.573  12.499 -2.3403 -0.6399 -0.9961
12982TIP3   OH260436   2.905   1.440  13.372  0.1133 -0.1437  0.0015
12982TIP3    H160437   2.834   1.476  13.426 -0.0646 -0.7098  0.1494
12982TIP3    H260438   2.891   1.479  13.286 -0.9488 -0.9765 -0.2244
12983TIP3   OH260439   0.854   4.980   4.965 -0.2190  0.1232 -0.2764
12983TIP3    H160440   0.922   5.012   5.025 -0.7607 -0.6232  0.7692
12983TIP3    H260441   0.876   4.888   4.952 -2.1327 -0.7078  1.7487
12984TIP3   OH260442   2.771   2.995   3.759 -0.0846 -0.3648  0.4976
12984TIP3    H160443   2.723   3.053   3.700 -1.1542 -0.3675  1.3398
12984TIP3    H260444   2.839   3.050   3.797 -0.2394 -0.0212  0.2866
12985TIP3   OH260445   2.448   1.593  10.865  0.9090  0.4552  0.4478
12985TIP3    H160446   2.408   1.521  10.914  2.9983 -1.1107 -0.0211
12985TIP3    H260447   2.374   1.649  10.840 -1.0008 -2.2377 -0.3379
12986TIP3   OH260448   1.171   6.533  11.338 -0.1611  0.1026  0.5982
12986TIP3    H160449   1.168   6.629  11.336 -0.3114  0.1109 -1.3625
12986TIP3    H260450   1.081   6.507  11.358 -0.1365  0.3667  1.0613
12987TIP3   OH260451   2.000   5.959   5.042 -0.0264  0.1734  0.1047
12987TIP3    H160452   1.912   5.930   5.018 -0.2799  0.0922  1.0885
12987TIP3    H260453   2.021   6.027   4.979 -0.9458  0.4487  0.0762
12988TIP3   OH260454   3.199   0.251   5.023  0.3124 -0.1468  0.3086
12988TIP3    H160455   3.197   0.218   4.934  0.9393  0.7005 -0.0315
12988TIP3    H260456   3.126   0.207   5.067 -1.2174  0.8473 -1.1208
12989TIP3   OH260457   6.545   2.746  13.276  0.0976 -0.6407  0.2336
12989TIP3    H160458   6.580   2.694  13.204  0.7277 -1.0132  0.8002
12989TIP3    H260459   6.457   2.709  13.291 -0.0264 -0.5782 -0.3161
12990TIP3   OH260460   6.014   2.893  11.525 -0.2232 -0.0702 -0.1294
12990TIP3    H160461   6.082   2.937  11.575  0.5079 -1.7508  0.4342
12990TIP3    H260462   5.948   2.869  11.591  0.9192 -2.6260  0.2241
12991TIP3   OH260463   4.922   4.801  14.553 -0.1228 -0.0721 -0.2367
12991TIP3    H160464   4.880   4.795  14.639 -0.4585 -1.1352 -0.4576
12991TIP3    H260465   4.851   4.818  14.492  0.0687  0.3290 -0.3506
12992TIP3   OH260466   6.418   4.538   3.792 -0.0088  0.0519 -0.2227
12992TIP3    H160467   6.370   4.618   3.773  0.6074  0.5332  0.2044
12992TIP3    H260468   6.506   4.568   3.814  0.2723 -0.7566 -0.2266
12993TIP3   OH260469   3.212   4.714   2.256  0.0577 -0.1516  1.0401
12993TIP3    H160470   3.179   4.691   2.343  0.4990 -0.2913  1.1740
12993TIP3    H260471   3.148   4.677   2.195 -2.2473  2.9409  1.3067
12994TIP3   OH260472   0.496   1.715   2.151 -0.2736  0.0332 -0.3445
12994TIP3    H160473   0.529   1.801   2.124  1.7309 -0.6985 -0.3864
12994TIP3    H260474   0.473   1.726   2.244  1.0902  0.3289 -0.0262
12995TIP3   OH260475   6.814   3.403  13.635 -0.1316  0.3950  0.4920
12995TIP3    H160476   6.808   3.432  13.726  0.6144 -0.3198  0.7767
12995TIP3    H260477   6.753   3.460  13.588  1.3410  2.5284  0.9981
12996TIP3   OH260478   0.544   5.076   1.691 -0.5765  0.2163  0.1762
12996TIP3    H160479   0.573   4.999   1.643  2.0847  0.6897  0.8660
12996TIP3    H260480   0.576   5.063   1.780  1.9999  3.0078 -0.1646
12997TIP3   OH260481   0.282   4.263   4.134 -0.4032  0.2088 -0.3709
12997TIP3    H160482   0.241   4.267   4.220 -0.0025 -1.6177 -0.0653
12997TIP3    H260483   0.350   4.330   4.137 -2.3864  2.3795 -0.4335
12998TIP3   OH260484   6.070   2.794  15.391 -0.8992  0.0008 -0.4263
12998TIP3    H160485   5.996   2.744  15.357  0.3538 -2.9166  0.8114
12998TIP3    H260486   6.056   2.796  15.485 -0.1137  0.6730 -0.3129
12999TIP3   OH260487   5.054   6.303  12.032  0.0787  0.7067 -0.0654
12999TIP3    H160488   5.058   6.389  11.989  0.7060  0.9189  0.3910
12999TIP3    H260489   5.132   6.257  12.002  0.3834  0.7591  0.6315
13000TIP3   OH260490   3.997   5.018   5.618 -0.1738 -0.0839 -0.5380
13000TIP3    H160491   4.058   5.089   5.598  0.9464 -0.2124  2.0451
13000TIP3    H260492   3.918   5.062   5.650 -0.5991  0.0255 -1.6929
13001TIP3   OH260493   2.999   1.103   6.590  0.1773  0.0526 -0.0351
13001TIP3    H160494   2.912   1.122   6.554 -0.1154 -1.5772 -0.2509
13001TIP3    H260495   3.003   1.008   6.595  0.8758  0.1468  2.6198
13002TIP3   OH260496   0.425   5.880   5.420 -0.3293 -0.5007 -0.1925
13002TIP3    H160497   0.429   5.962   5.468 -0.4578 -0.0052 -1.0022
13002TIP3    H260498   0.489   5.891   5.349 -0.3898 -1.0747 -0.3415
13003TIP3   OH260499   1.745   5.829   2.774  0.0397 -0.1361 -0.7312
13003TIP3    H160500   1.677   5.841   2.707 -0.1900 -0.1212 -0.4935
13003TIP3    H260501   1.698   5.828   2.857  0.1894 -1.3469 -0.6472
13004TIP3   OH260502   0.636   6.740   6.341 -0.1856 -0.6697 -0.3998
13004TIP3    H160503   0.634   6.649   6.312  1.0800 -1.3288  1.3800
13004TIP3    H260504   0.545   6.762   6.357 -0.5020 -1.6651 -0.7594
13005TIP3   OH260505   2.892   1.984   4.677 -0.0886  0.0156 -0.0383
13005TIP3    H160506   2.895   2.028   4.592 -1.4150  2.3725  1.0183
13005TIP3    H260507   2.888   1.891   4.657 -0.7435  0.5307 -2.5600
13006TIP3   OH260508   1.106   3.308  13.401  0.1534  0.5818  0.2554
13006TIP3    H160509   1.149   3.255  13.334 -0.4127  1.3301 -0.7399
13006TIP3    H260510   1.065   3.379  13.352 -0.9395  0.7254  1.3166
13007TIP3   OH260511   4.365   6.038   3.707  0.3807 -0.4691 -0.1032
13007TIP3    H160512   4.446   6.079   3.678  0.4980 -0.6605 -0.0428
13007TIP3    H260513   4.305   6.050   3.633  0.5524 -0.5840 -0.2617
13008TIP3   OH260514   5.838   4.499  14.123  0.4801  0.0984  0.6152
13008TIP3    H160515   5.899   4.476  14.193  1.4083 -1.1479 -0.5548
13008TIP3    H260516   5.874   4.457  14.045 -0.5131  1.4610 -0.6359
13009TIP3   OH260517   1.323   2.229   5.587 -0.5101  1.1275  0.3972
13009TIP3    H160518   1.302   2.137   5.570  1.6531  0.8127 -0.9940
13009TIP3    H260519   1.237   2.272   5.594 -1.6022 -0.5724 -1.3783
13010TIP3   OH260520   1.284   2.956   2.149  0.6476 -0.1792 -1.0102
13010TIP3    H160521   1.285   2.981   2.057 -0.0867 -0.9329 -1.2365
13010TIP3    H260522   1.343   3.018   2.191 -2.3272  3.1374 -1.2350
13011TIP3   OH260523   3.404   4.639   1.358  0.0258  0.0302  0.0173
13011TIP3    H160524   3.414   4.653   1.264  0.0970 -0.7612 -0.1017
13011TIP3    H260525   3.453   4.558   1.375 -1.4444 -0.8229  0.4069
13012TIP3   OH260526   4.622   1.811  11.058  0.6724  0.6656 -0.2521
13012TIP3    H160527   4.596   1.903  11.063  1.4658  0.8354  1.8678
13012TIP3    H260528   4.539   1.763  11.053  0.1511  1.4332  0.6879
13013TIP3   OH260529   2.716   4.034   0.745  0.2002  0.0025  0.0807
13013TIP3    H160530   2.675   3.989   0.818  0.7906  0.9310  1.0148
13013TIP3    H260531   2.667   4.116   0.736  0.1293 -0.1057 -0.5698
13014TIP3   OH260532   5.663   4.906   0.671  0.4857 -0.1565  0.0105
13014TIP3    H160533   5.596   4.841   0.692  0.6053 -0.2191  0.1953
13014TIP3    H260534   5.740   4.854   0.645 -0.0572 -0.1014 -1.9047
13015TIP3   OH260535   0.445   0.922   4.659  0.9339 -0.1551 -0.1182
13015TIP3    H160536   0.502   0.992   4.627 -0.0479  0.7264  0.0024
13015TIP3    H260537   0.401   0.959   4.735 -0.5080 -0.4525 -0.7656
13016TIP3   OH260538   1.931   4.261   5.032 -0.5267 -0.3327 -0.8719
13016TIP3    H160539   1.949   4.185   4.977 -1.2273 -0.9897 -0.2145
13016TIP3    H260540   1.923   4.334   4.970 -2.4863 -1.2624 -1.8069
13017TIP3   OH260541   4.370   4.434  16.213  0.4842  0.5693  0.0909
13017TIP3    H160542   4.381   4.385  16.131  0.3223  0.6924 -0.0045
13017TIP3    H260543   4.349   4.366  16.278  0.1627  0.5195 -0.0611
13018TIP3   OH260544   3.510   6.322  11.373  0.5198 -0.0121  0.0846
13018TIP3    H160545   3.463   6.406  11.375  0.3704 -0.0685 -0.6844
13018TIP3    H260546   3.540   6.309  11.462 -2.5903 -0.8937  1.1484
13019TIP3   OH260547   0.738   4.185  13.964 -0.8098  0.1997 -0.4597
13019TIP3    H160548   0.786   4.156  14.042 -0.2898 -1.0337 -1.1927
13019TIP3    H260549   0.771   4.127  13.894 -3.1869 -0.5400 -1.0404
13020TIP3   OH260550   3.078   1.182   4.889 -0.1081  0.2804 -0.6648
13020TIP3    H160551   3.105   1.137   4.969 -1.2343 -0.2066 -0.5390
13020TIP3    H260552   3.104   1.124   4.818  4.2446  2.2814 -1.0356
13021TIP3   OH260553   3.583   4.304  11.003  0.0647  0.3568  0.1330
13021TIP3    H160554   3.550   4.297  10.913  1.5675 -1.8546 -0.3390
13021TIP3    H260555   3.504   4.303  11.057 -0.8104 -0.1209 -1.1065
13022TIP3   OH260556   3.362   5.164  16.396  0.0278  0.4177  0.6572
13022TIP3    H160557   3.431   5.149  16.331 -1.0391 -1.4124 -0.1296
13022TIP3    H260558   3.395   5.125  16.476  0.2317  0.2369  0.4869
13023TIP3   OH260559   5.625   6.781  11.583 -0.2670 -0.4016 -0.0704
13023TIP3    H160560   5.669   6.826  11.511  1.3042 -1.6093  0.0696
13023TIP3    H260561   5.535   6.770  11.553 -0.4522  1.8211 -0.5356
13024TIP3   OH260562   5.772   0.502   3.538 -0.1918  0.3913  0.2647
13024TIP3    H160563   5.827   0.578   3.559  0.6976  0.6483 -2.5125
13024TIP3    H260564   5.683   0.537   3.535 -0.0728  0.8037  1.2086
13025TIP3   OH260565   5.336   0.258  14.691  0.0455  0.5952 -0.1409
13025TIP3    H160566   5.270   0.189  14.698 -0.4408  1.1503  1.0243
13025TIP3    H260567   5.412   0.224  14.737  0.3441  0.2277 -0.8965
13026TIP3   OH260568   0.735   0.715   3.373 -0.0176 -0.0403  0.0350
13026TIP3    H160569   0.825   0.685   3.381  0.2392  0.1668 -1.8439
13026TIP3    H260570   0.734   0.770   3.295 -1.0791  2.6459  1.8084
13027TIP3   OH260571   2.404   2.746   0.370  0.6654 -0.1384 -0.0150
13027TIP3    H160572   2.484   2.766   0.321  1.2161 -0.4474  0.7488
13027TIP3    H260573   2.364   2.832   0.385  1.5068  0.1416  0.6921
13028TIP3   OH260574   6.683   6.668  11.240 -0.4319 -0.4245 -0.0118
13028TIP3    H160575   6.692   6.721  11.161 -0.8423  0.9391  0.8157
13028TIP3    H260576   6.741   6.710  11.303 -1.7343 -0.1592  1.0566
13029TIP3   OH260577   1.408   0.998   1.513  0.1796 -0.3924  0.0040
13029TIP3    H160578   1.400   1.068   1.448  2.4229  0.4532  0.5815
13029TIP3    H260579   1.416   0.918   1.460 -0.7172 -0.0567 -0.6823
13030TIP3   OH260580   5.507   0.984  15.451 -0.3165  0.3360  0.3539
13030TIP3    H160581   5.490   0.924  15.524 -0.0970  0.0873  0.2062
13030TIP3    H260582   5.483   0.934  15.373  1.7824 -0.3497  0.0651
13031TIP3   OH260583   1.567   3.716   3.216 -0.5244 -0.3132  0.3451
13031TIP3    H160584   1.540   3.798   3.259 -1.1204 -0.7149  0.7484
13031TIP3    H260585   1.641   3.742   3.161 -2.0366  0.9495 -1.2303
13032TIP3   OH260586   4.711   0.193  16.188 -0.0531  0.4708  0.0036
13032TIP3    H160587   4.806   0.191  16.189 -0.0514 -0.1143 -0.6718
13032TIP3    H260588   4.686   0.153  16.105 -0.9095 -0.5205  0.7002
13033TIP3   OH260589   5.626   5.161  12.373  0.6474  0.5576 -0.0836
13033TIP3    H160590   5.668   5.184  12.290  2.0576 -1.4519  0.0132
13033TIP3    H260591   5.698   5.158  12.436 -0.2909  1.2387  1.0706
13034TIP3   OH260592   4.150   1.855  15.116  0.7630  0.1195 -0.1337
13034TIP3    H160593   4.220   1.795  15.092 -0.7121 -1.9349  0.4202
13034TIP3    H260594   4.145   1.916  15.043  1.4803 -1.2421 -1.3796
13035TIP3   OH260595   6.628   0.808  14.943  0.0358 -0.2387  0.1913
13035TIP3    H160596   6.586   0.843  14.864  0.5528  0.5290  0.2471
13035TIP3    H260597   6.718   0.790  14.916 -0.1573 -1.3693  0.2218
13036TIP3   OH260598   5.199   6.218  16.257 -0.4358 -0.6829 -0.2043
13036TIP3    H160599   5.164   6.212  16.169  1.0467 -1.4696 -0.7771
13036TIP3    H260600   5.140   6.165  16.310 -2.1529  0.9190 -0.4075
13037TIP3   OH260601   1.002   1.160   2.695  0.2863  0.0917  0.5102
13037TIP3    H160602   0.975   1.170   2.786  0.1160 -1.0936  0.5940
13037TIP3    H260603   0.921   1.150   2.646  0.3987  0.2925  0.2772
13038TIP3   OH260604   2.965   5.194   0.926  0.1632  0.1583  1.1743
13038TIP3    H160605   2.943   5.140   1.003 -1.6612 -2.0994 -0.7791
13038TIP3    H260606   3.027   5.140   0.877 -0.4046  0.5932 -0.0344
13039TIP3   OH260607   0.029   2.226  12.260  0.1138  0.0212 -0.1562
13039TIP3    H160608   0.020   2.137  12.293  1.5401  0.2452  0.9234
13039TIP3    H260609  -0.059   2.250  12.230 -0.0670 -2.1373 -1.5835
13040TIP3   OH260610   4.723   4.651   5.974 -0.3991  0.2030  0.4906
13040TIP3    H160611   4.653   4.597   5.938 -0.1248  0.2408 -0.1108
13040TIP3    H260612   4.754   4.703   5.900 -0.2600  0.7519  0.9267
13041TIP3   OH260613   1.188   4.428   5.034  0.3718  0.6434 -0.0799
13041TIP3    H160614   1.156   4.401   5.120  0.8619 -0.9347 -0.3670
13041TIP3    H260615   1.255   4.493   5.053  1.9290 -1.1570  0.8703
13042TIP3   OH260616   5.675   2.913   6.345  0.1478 -0.2147 -0.4383
13042TIP3    H160617   5.715   2.948   6.266  0.3819  0.5488  0.0077
13042TIP3    H260618   5.636   2.830   6.317  1.6399 -0.7574 -0.9692
13043TIP3   OH260619   1.930   6.384  13.794 -0.3062  0.1797  0.4723
13043TIP3    H160620   2.003   6.372  13.854 -0.4835  0.1086  0.6775
13043TIP3    H260621   1.935   6.476  13.768 -0.4447  0.3054  0.8850
13044TIP3   OH260622   3.779   6.444   5.287  0.1956 -0.9080  0.5167
13044TIP3    H160623   3.774   6.359   5.332  0.3967 -0.4623  1.3833
13044TIP3    H260624   3.855   6.487   5.324 -1.4070  0.7634  2.0339
13045TIP3   OH260625   1.135   6.832  16.421 -0.8601 -0.1542 -0.4092
13045TIP3    H160626   1.103   6.802  16.506 -2.7325 -1.7182 -1.5833
13045TIP3    H260627   1.057   6.836  16.365  0.1717  1.6871 -1.8629
13046TIP3   OH260628   4.846   2.885   0.947 -0.2180 -0.5375 -0.1063
13046TIP3    H160629   4.875   2.935   1.023  0.1924 -0.3063 -0.4076
13046TIP3    H260630   4.757   2.857   0.969  0.7897 -2.6947  1.5369
13047TIP3   OH260631   0.343   0.690  10.875 -0.5672 -0.4146 -0.6942
13047TIP3    H160632   0.431   0.726  10.866 -0.3041 -0.6595  0.7410
13047TIP3    H260633   0.311   0.682  10.785  0.6430  0.2384 -1.1983
13048TIP3   OH260634   1.841   1.041   4.773  0.0617  0.5612 -0.1821
13048TIP3    H160635   1.801   0.985   4.840  0.3122  0.7983  0.1665
13048TIP3    H260636   1.869   0.981   4.704 -2.5002  0.5076 -1.2931
13049TIP3   OH260637   6.218   5.269  12.831 -0.5935 -0.0550 -0.0852
13049TIP3    H160638   6.185   5.234  12.913 -1.5370 -0.4912 -0.6385
13049TIP3    H260639   6.300   5.221  12.815 -1.7093 -1.8513 -0.6821
13050TIP3   OH260640   1.599   2.888  11.239  0.4355 -0.2751 -0.1824
13050TIP3    H160641   1.626   2.967  11.191  1.5555 -0.9486 -0.6958
13050TIP3    H260642   1.650   2.891  11.320 -1.3345  0.7743  0.9721
13051TIP3   OH260643   2.362   5.488   4.651  0.2050  0.5104  0.3761
13051TIP3    H160644   2.272   5.458   4.651 -0.1850  1.6246 -0.3668
13051TIP3    H260645   2.358   5.579   4.621  1.4995  0.8033  0.9832
13052TIP3   OH260646   5.917   4.554   6.037 -0.6802  0.1315  0.0233
13052TIP3    H160647   5.865   4.521   6.110 -2.3811  1.5315 -0.4890
13052TIP3    H260648   5.883   4.642   6.020 -0.3657 -0.1334 -2.4553
13053TIP3   OH260649   6.017   3.228  12.809 -0.2845 -0.9393 -0.1480
13053TIP3    H160650   6.043   3.138  12.791  1.7089 -1.1593  3.0595
13053TIP3    H260651   5.934   3.221  12.856  0.1695 -1.1409  0.6198
13054TIP3   OH260652   3.297   5.144  13.459  0.1965 -0.0957 -0.1510
13054TIP3    H160653   3.230   5.076  13.461  1.7164 -1.6632  0.8026
13054TIP3    H260654   3.342   5.132  13.375  0.1412  0.0941 -0.2106
13055TIP3   OH260655   0.340   0.341  14.492  0.3638 -0.2951 -0.1117
13055TIP3    H160656   0.253   0.375  14.510  0.0864 -1.5982  1.2277
13055TIP3    H260657   0.397   0.387  14.554  0.3368 -0.6729  0.1991
13056TIP3   OH260658   4.476   2.419  13.966  0.2111  0.1371  1.0702
13056TIP3    H160659   4.483   2.445  13.874 -0.0006  0.3356  1.1059
13056TIP3    H260660   4.391   2.454  13.994  1.9427  3.7324  2.4787
13057TIP3   OH260661   3.758   4.472   6.562  0.1549  0.0675  0.0202
13057TIP3    H160662   3.793   4.384   6.572  0.4162  0.0628 -0.8672
13057TIP3    H260663   3.821   4.529   6.607 -0.5666 -0.2704  1.5634
13058TIP3   OH260664   1.117   4.999   0.741  0.1840  0.5929  0.8920
13058TIP3    H160665   1.155   5.070   0.792 -0.5379  0.8070  1.1375
13058TIP3    H260666   1.037   4.975   0.789  0.3555 -0.2997  0.7489
13059TIP3   OH260667   5.083   6.438  13.522  0.2326 -0.0661 -0.3632
13059TIP3    H160668   5.046   6.491  13.592  0.0051 -2.1470  1.1718
13059TIP3    H260669   5.008   6.414  13.467  0.0912 -0.1252 -0.1434
13060TIP3   OH260670   2.042   2.689   4.898 -0.1504  0.4314 -0.0159
13060TIP3    H160671   2.070   2.663   4.810 -0.3695  1.3731 -0.3808
13060TIP3    H260672   2.010   2.779   4.887 -3.4533 -0.5809  0.3398
13061TIP3   OH260673   5.792   3.594  14.335  0.0137  0.3350 -0.0320
13061TIP3    H160674   5.791   3.581  14.240 -0.3755  2.2292 -0.3305
13061TIP3    H260675   5.745   3.676  14.348  2.3000  1.4888  1.5718
13062TIP3   OH260676   0.498   4.735  13.755  0.2568 -0.0878 -0.3480
13062TIP3    H160677   0.516   4.754  13.847  1.7771 -0.3399 -0.5784
13062TIP3    H260678   0.476   4.820  13.717  2.2618  0.5006 -0.3125
13063TIP3   OH260679   4.389   4.661  12.108  0.2066  0.6506 -0.0345
13063TIP3    H160680   4.369   4.749  12.074 -0.6084  1.2759  1.9261
13063TIP3    H260681   4.306   4.631  12.145  0.5633 -0.8387 -0.3863
13064TIP3   OH260682   1.059   6.844   3.779  0.0334  0.4081  0.1330
13064TIP3    H160683   1.125   6.872   3.716 -0.3594  0.5756 -0.2081
13064TIP3    H260684   0.984   6.817   3.726 -0.7173  1.6158  0.5481
13065TIP3   OH260685   5.807   1.412   3.429 -0.4726  0.1166 -0.0508
13065TIP3    H160686   5.736   1.356   3.461 -0.9183  0.7370  0.0750
13065TIP3    H260687   5.809   1.396   3.335 -2.4074  1.8347 -0.4647
13066TIP3   OH260688   2.660   5.448   5.322 -0.4683 -0.2739  0.1943
13066TIP3    H160689   2.619   5.516   5.269  1.2340 -0.2214 -1.1773
13066TIP3    H260690   2.589   5.392   5.349 -1.6311  0.7458 -0.6287
13067TIP3   OH260691   0.053   2.443  10.647 -0.3025 -0.2596 -0.3635
13067TIP3    H160692   0.030   2.508  10.581 -1.8512  0.2167  0.5844
13067TIP3    H260693  -0.010   2.372  10.633 -0.0923 -0.5325  0.0656
13068TIP3   OH260694   2.466   2.449  16.415  0.2813 -0.0699 -0.1701
13068TIP3    H160695   2.519   2.453  16.336  2.8903  1.2646  1.5113
13068TIP3    H260696   2.488   2.365  16.455 -0.2674 -0.2998 -0.3391
13069TIP3   OH260697   1.204   5.702  11.317 -0.5553 -0.1434 -0.6915
13069TIP3    H160698   1.254   5.718  11.397  0.9309 -1.4659 -1.3136
13069TIP3    H260699   1.112   5.707  11.345 -0.2975  4.3994  0.0999
13070TIP3   OH260700   1.717   1.507  12.476 -0.2251 -0.2986  0.2347
13070TIP3    H160701   1.627   1.521  12.447 -0.3143 -0.8095  0.2583
13070TIP3    H260702   1.713   1.518  12.571 -0.2448 -0.2392  0.2274
13071TIP3   OH260703   0.743   5.794  17.080 -0.4256  0.0509 -0.4385
13071TIP3    H160704   0.753   5.834  16.994 -0.5547  1.7978  0.3216
13071TIP3    H260705   0.701   5.861  17.134  1.0990 -0.3938  1.4243
13072TIP3   OH260706   4.128   5.268   3.820 -0.0872 -0.4368 -0.2540
13072TIP3    H160707   4.139   5.272   3.915 -0.8268 -0.8862 -0.1415
13072TIP3    H260708   4.197   5.207   3.792 -0.0744 -0.5610  0.0333
13073TIP3   OH260709   5.163   2.807   1.124 -0.4690  0.4668  0.5414
13073TIP3    H160710   5.138   2.798   1.032 -1.3721 -1.3106  0.9265
13073TIP3    H260711   5.088   2.848   1.166 -0.7968 -0.3621  0.7910
13074TIP3   OH260712   6.147   1.657   0.991  0.0705  0.9847  0.1596
13074TIP3    H160713   6.173   1.574   1.030 -1.0907  0.2353 -0.6016
13074TIP3    H260714   6.225   1.687   0.945  0.3187  0.0069 -0.0738
13075TIP3   OH260715   2.029   1.412   1.644 -0.6267  0.4352  0.4058
13075TIP3    H160716   2.101   1.446   1.695 -1.9318  2.3178  1.0839
13075TIP3    H260717   2.070   1.358   1.577  1.3422  0.9743  1.1290
13076TIP3   OH260718   1.389   2.103   1.842 -0.4886  0.2413 -0.0668
13076TIP3    H160719   1.400   2.069   1.753 -0.2386 -2.1558  0.8101
13076TIP3    H260720   1.468   2.155   1.857  1.0424 -1.9468 -0.1707
13077TIP3   OH260721   3.934   3.512  14.580 -0.4109 -0.2292 -0.3296
13077TIP3    H160722   3.965   3.586  14.528 -0.9100 -0.8575 -1.5593
13077TIP3    H260723   3.975   3.436  14.539 -0.2827 -0.6904  0.6262
13078TIP3   OH260724   3.403   4.262   5.045 -0.6617 -0.3112 -0.0162
13078TIP3    H160725   3.441   4.341   5.084  0.5387  0.5882 -2.7433
13078TIP3    H260726   3.309   4.273   5.054 -0.4774 -0.4742  3.0250
13079TIP3   OH260727   2.793   4.240  12.341  0.6111  0.0710 -0.1730
13079TIP3    H160728   2.720   4.283  12.297  0.2747 -0.5897 -0.2649
13079TIP3    H260729   2.870   4.289  12.313  0.2890  0.2754 -0.7067
13080TIP3   OH260730   5.883   0.102   4.966 -0.6651  0.1495 -0.0485
13080TIP3    H160731   5.844   0.015   4.965 -2.7678  0.9833  1.7172
13080TIP3    H260732   5.975   0.087   4.986 -0.8358 -1.6688 -0.4219
13081TIP3   OH260733   1.947   6.051  12.014  0.4589 -0.0541  0.4713
13081TIP3    H160734   1.967   6.110  11.941  0.3566  1.2748  1.4690
13081TIP3    H260735   1.856   6.070  12.036 -0.1613 -1.8886 -0.3087
13082TIP3   OH260736   4.455   3.996  10.803  0.3370  0.7696 -0.1553
13082TIP3    H160737   4.519   4.066  10.814 -0.6321  1.3315  2.7149
13082TIP3    H260738   4.508   3.916  10.795  1.4049  1.4083  0.3100
13083TIP3   OH260739   5.039   3.953  10.572 -0.1908 -0.7335 -0.5157
13083TIP3    H160740   5.083   3.899  10.506 -1.2333 -0.8225 -1.1666
13083TIP3    H260741   4.946   3.927  10.566 -0.4781  0.1005  0.1645
13084TIP3   OH260742   0.195   5.733   5.318  0.0855  0.0140 -0.1852
13084TIP3    H160743   0.202   5.662   5.382 -0.6093 -0.8650 -1.0404
13084TIP3    H260744   0.281   5.775   5.318  0.2793 -0.3675  0.8622
13085TIP3   OH260745   3.029   4.778   1.239  0.0890 -0.5474 -0.3912
13085TIP3    H160746   2.945   4.782   1.194  0.5351  0.6765 -1.1439
13085TIP3    H260747   3.021   4.840   1.311  0.4970 -0.0685 -0.7488
13086TIP3   OH260748   0.194   1.098  13.533 -0.1700 -0.3176 -0.4620
13086TIP3    H160749   0.289   1.086  13.525  0.1017 -0.1133  1.8113
13086TIP3    H260750   0.165   1.024  13.587 -1.1068  0.2600 -0.1603
13087TIP3   OH260751   4.074   6.097  11.688  0.2973  0.5850 -0.0303
13087TIP3    H160752   4.017   6.161  11.645 -0.2666  0.4358  0.4619
13087TIP3    H260753   4.131   6.065  11.619  0.8082  1.8505 -0.2174
13088TIP3   OH260754   3.987   0.653  14.421 -0.0299 -0.0284 -0.3347
13088TIP3    H160755   3.926   0.642  14.348 -0.9072 -2.4506  0.6268
13088TIP3    H260756   4.050   0.582  14.411  2.5816  2.2586 -1.1311
13089TIP3   OH260757   5.570   4.891  13.981 -0.1932  0.3843  0.1037
13089TIP3    H160758   5.597   4.980  14.005 -1.1693  0.7570 -0.1037
13089TIP3    H260759   5.485   4.904  13.938  0.2734 -0.5143 -1.1499
13090TIP3   OH260760   3.249   6.517  12.739  0.0291 -0.0064 -0.4986
13090TIP3    H160761   3.242   6.574  12.816 -0.1502  1.8113 -1.8091
13090TIP3    H260762   3.249   6.428  12.775  0.0710  0.7947  1.5992
13091TIP3   OH260763   6.044   0.851   4.054  0.0193 -0.0070 -0.5623
13091TIP3    H160764   6.046   0.756   4.040 -1.9761 -0.2624  0.5405
13091TIP3    H260765   6.094   0.886   3.981  1.2237 -1.9160 -0.7384
13092TIP3   OH260766   5.626   4.087   1.250  0.2249  0.1522  0.6219
13092TIP3    H160767   5.633   4.000   1.211 -0.5390 -0.6432  2.1794
13092TIP3    H260768   5.532   4.099   1.266  0.4868  0.5250  1.9940
13093TIP3   OH260769   4.582   4.690   1.856 -0.0570 -0.0253  0.2930
13093TIP3    H160770   4.590   4.626   1.927 -2.0969  0.3323  0.9207
13093TIP3    H260771   4.516   4.652   1.798  0.6038  0.3287 -0.7241
13094TIP3   OH260772   1.198   6.456   2.155 -0.9310  0.0500  0.1033
13094TIP3    H160773   1.265   6.431   2.218 -0.3266 -1.1152 -0.9620
13094TIP3    H260774   1.138   6.381   2.153 -0.4111 -0.3535 -1.3850
13095TIP3   OH260775   2.167   3.117  16.325 -0.2927  0.1076 -0.6689
13095TIP3    H160776   2.159   3.109  16.420 -0.8065  4.3915 -0.1563
13095TIP3    H260777   2.078   3.138  16.295  0.4259  2.0922 -1.5663
13096TIP3   OH260778   2.156   1.595   1.032 -0.2824 -0.8529  0.2177
13096TIP3    H160779   2.110   1.543   1.097 -2.6588 -0.5882 -1.1474
13096TIP3    H260780   2.116   1.571   0.949  2.3154 -0.8203 -1.1420
13097TIP3   OH260781   2.624   4.127   0.381 -0.6526 -0.3208  0.7074
13097TIP3    H160782   2.639   4.211   0.426  1.0713 -0.2185  0.0272
13097TIP3    H260783   2.581   4.072   0.446  1.7256 -0.1662  2.5221
13098TIP3   OH260784   0.737   1.453  10.951  0.2254  0.0569 -1.0494
13098TIP3    H160785   0.702   1.407  10.875 -1.4158 -1.0723  0.3178
13098TIP3    H260786   0.763   1.539  10.917 -3.6232  0.9223 -2.3280
13099TIP3   OH260787   3.939   3.045   3.436  0.0652  0.6021 -0.3106
13099TIP3    H160788   3.992   3.035   3.515 -0.8196  0.8842  0.3407
13099TIP3    H260789   3.930   3.140   3.425 -0.3732  0.5589 -0.3563
13100TIP3   OH260790   1.143   2.222  14.475  0.0801 -0.3884  0.1093
13100TIP3    H160791   1.070   2.168  14.504 -1.2697  1.3315  0.0800
13100TIP3    H260792   1.154   2.198  14.382 -0.4380 -0.6703  0.1122
13101TIP3   OH260793   0.895   1.219   0.026  0.4526  0.5741 -0.0413
13101TIP3    H160794   0.933   1.201   0.112  0.1674 -0.2583 -0.0838
13101TIP3    H260795   0.869   1.311   0.030  3.9683  1.7532 -0.5487
13102TIP3   OH260796   0.457   3.162  13.413  0.0265 -0.1605 -0.1352
13102TIP3    H160797   0.447   3.162  13.508  0.6192 -0.5355 -0.0686
13102TIP3    H260798   0.374   3.126  13.381 -0.1895 -0.0024  0.2351
13103TIP3   OH260799   4.907   0.698  16.167  0.3800 -0.4675  0.1379
13103TIP3    H160800   4.897   0.603  16.155 -2.2476 -0.5075  1.8389
13103TIP3    H260801   4.821   0.734  16.142  1.2866  1.4951 -0.3704
13104TIP3   OH260802   4.510   4.833  16.940 -0.0296 -0.2050  0.1775
13104TIP3    H160803   4.415   4.834  16.926 -0.1717 -0.1456  1.0970
13104TIP3    H260804   4.547   4.872  16.860 -0.9404  2.7658  1.0776
13105TIP3   OH260805   1.601   0.795   3.482 -0.1850  0.3047 -0.2410
13105TIP3    H160806   1.683   0.835   3.454 -1.1690  2.6285  0.0005
13105TIP3    H260807   1.624   0.746   3.561  1.1598 -0.0406 -0.8112
13106TIP3   OH260808   1.386   0.718  16.361  0.1553  0.2124  0.0970
13106TIP3    H160809   1.350   0.785  16.303 -1.6514 -1.8891 -1.4269
13106TIP3    H260810   1.474   0.703  16.327 -1.2723 -1.9036 -3.2958
13107TIP3   OH260811   5.092   6.290   0.657 -0.5073 -0.1483  0.4426
13107TIP3    H160812   5.155   6.258   0.722  0.5224 -0.5709 -0.7346
13107TIP3    H260813   5.115   6.382   0.644 -0.4410 -0.1767  0.3611
13108TIP3   OH260814   4.553   0.769  14.783 -0.3496  0.1870 -0.1373
13108TIP3    H160815   4.588   0.716  14.711  0.6336  1.7258 -0.8373
13108TIP3    H260816   4.538   0.706  14.853 -2.7626 -1.6802 -2.1096
13109TIP3   OH260817   3.508   1.083  13.620  0.7256 -0.3053  0.3271
13109TIP3    H160818   3.516   1.065  13.714  0.8504  1.1043  0.6115
13109TIP3    H260819   3.592   1.123  13.596  0.0227  1.0774  0.0619
13110TIP3   OH260820   2.365   3.648  15.984  0.2766 -0.3261 -0.5180
13110TIP3    H160821   2.335   3.691  15.904 -2.0954 -0.5132  0.1914
13110TIP3    H260822   2.295   3.665  16.047  0.7408 -2.5731  0.6809
13111TIP3   OH260823   4.839   0.667  11.797  0.9636  0.3355  0.0265
13111TIP3    H160824   4.881   0.661  11.711  1.8471  0.4447  0.4401
13111TIP3    H260825   4.843   0.760  11.820 -0.2330  0.4780 -0.2695
13112TIP3   OH260826   6.784   2.885  14.301  0.2475  0.0152  0.4090
13112TIP3    H160827   6.720   2.954  14.284  0.5857  0.0879 -0.6060
13112TIP3    H260828   6.769   2.821  14.231  1.5657  0.2474 -0.1111
13113TIP3   OH260829   2.102   4.489  16.837  0.1724 -1.0747  0.2902
13113TIP3    H160830   2.196   4.481  16.819  0.2235  1.0228 -0.7415
13113TIP3    H260831   2.061   4.425  16.779  0.7772  1.1139 -2.8436
13114TIP3   OH260832   1.747   3.017  12.441  0.0523  0.0215  0.1597
13114TIP3    H160833   1.690   3.089  12.412  0.5196 -0.0738 -1.0741
13114TIP3    H260834   1.798   3.055  12.513 -0.5152  0.5643  0.2884
13115TIP3   OH260835   2.818   4.079  14.349  0.1560 -0.1567  0.0333
13115TIP3    H160836   2.723   4.077  14.349  0.1589 -0.4213 -0.1559
13115TIP3    H260837   2.843   4.037  14.432  0.1068 -0.1165  0.0682
13116TIP3   OH260838   2.951   1.395   4.253 -0.3930 -0.0123 -0.5036
13116TIP3    H160839   2.881   1.331   4.263 -1.5322  1.0157 -1.6477
13116TIP3    H260840   2.974   1.391   4.161  2.9505 -2.2081  0.2533
13117TIP3   OH260841   6.762   0.321  12.615 -0.3047  0.0853  0.2834
13117TIP3    H160842   6.735   0.368  12.536 -2.2554 -1.0050  0.2377
13117TIP3    H260843   6.680   0.296  12.657  0.6287 -2.1563  0.9462
13118TIP3   OH260844   1.597   2.953  15.600  0.4092  0.3067  0.4519
13118TIP3    H160845   1.657   2.988  15.535  1.6718  0.5213  1.6844
13118TIP3    H260846   1.572   2.867  15.566  1.4914  0.1742 -0.0460
13119TIP3   OH260847   1.070   5.445  14.863  1.0489 -0.2216  0.1476
13119TIP3    H160848   1.062   5.539  14.847 -0.1756 -0.2942  0.2121
13119TIP3    H260849   1.061   5.436  14.958  1.8490 -0.3519  0.2166
13120TIP3   OH260850   1.958   2.430  12.083  0.4518  0.7607  0.0689
13120TIP3    H160851   1.909   2.492  12.138  0.4616 -0.0010  0.9627
13120TIP3    H260852   2.049   2.444  12.107  0.4816  0.6424  0.0242
13121TIP3   OH260853   2.484   1.909   1.371  0.0287 -0.2881  0.5325
13121TIP3    H160854   2.444   1.946   1.293 -0.4624 -1.7289  0.0567
13121TIP3    H260855   2.431   1.943   1.444 -1.1391 -0.9622  0.0257
13122TIP3   OH260856   5.794   4.705   5.441  0.4109 -0.0217 -0.4672
13122TIP3    H160857   5.835   4.664   5.365 -0.0079 -1.0788 -0.1496
13122TIP3    H260858   5.727   4.642   5.468 -0.2857  0.9050  0.0257
13123TIP3   OH260859   1.917   2.199   5.238 -0.2155 -0.6093 -0.5582
13123TIP3    H160860   1.958   2.174   5.155  0.1740  1.6609 -1.1427
13123TIP3    H260861   1.854   2.268   5.213  1.0477  1.2681  1.1387
13124TIP3   OH260862   5.036   0.804   1.355  1.0895  0.3134 -0.2738
13124TIP3    H160863   4.960   0.861   1.346 -0.2662 -1.0533  1.5691
13124TIP3    H260864   5.048   0.766   1.268  0.4606  1.4872 -0.8997
13125TIP3   OH260865   2.776   2.230  14.435 -0.1134  0.4111 -0.4570
13125TIP3    H160866   2.814   2.306  14.390 -0.7178  0.0648 -1.5866
13125TIP3    H260867   2.791   2.248  14.528 -0.1858  1.8869 -0.7018
13126TIP3   OH260868   6.123   2.819  12.966  0.2423  0.2930 -0.2824
13126TIP3    H160869   6.043   2.790  12.923  0.3275 -0.1894 -0.1271
13126TIP3    H260870   6.160   2.739  13.003 -0.6737  0.8999  2.1240
13127TIP3   OH260871   0.025   3.820  15.115  0.3975  0.3382 -0.3475
13127TIP3    H160872   0.100   3.791  15.064  0.0659 -1.3986  0.0917
13127TIP3    H260873   0.047   3.909  15.142  2.0098  0.0904 -0.7495
13128TIP3   OH260874   6.532   5.525   2.813 -0.4403 -0.6775 -0.0687
13128TIP3    H160875   6.500   5.593   2.872  0.7613  0.7779 -1.0398
13128TIP3    H260876   6.459   5.463   2.807 -2.3417  1.5029 -0.6776
13129TIP3   OH260877   3.918   0.919   0.467  0.5507  0.3823  0.0612
13129TIP3    H160878   3.897   1.006   0.501 -0.3808  0.8818 -1.7067
13129TIP3    H260879   3.871   0.859   0.526 -0.6479  1.1937 -0.0420
13130TIP3   OH260880   4.085   5.979   1.396  0.3811  0.4072 -0.4071
13130TIP3    H160881   4.030   6.034   1.341 -1.0868 -0.1292  0.4665
13130TIP3    H260882   4.122   6.039   1.461 -1.4113  0.4049  0.6988
13131TIP3   OH260883   0.039   2.157   0.309 -0.1437 -0.1553  0.3540
13131TIP3    H160884  -0.021   2.228   0.331 -2.1821 -2.3203  2.2674
13131TIP3    H260885  -0.005   2.109   0.238  0.7297 -0.1382 -0.2196
13132TIP3   OH260886   1.844   4.908   3.638  0.1006  0.9912 -0.2774
13132TIP3    H160887   1.812   4.906   3.728  0.2317 -0.4852 -0.2366
13132TIP3    H260888   1.770   4.877   3.586  0.6301 -0.0545 -0.4447
13133TIP3   OH260889   3.234   3.010   4.720 -0.3914 -0.1071 -0.2712
13133TIP3    H160890   3.264   2.930   4.762  0.7839  1.6213  2.4758
13133TIP3    H260891   3.289   3.018   4.642  1.3963 -0.6400  0.8652
13134TIP3   OH260892   1.205   5.027   5.555 -0.2019  0.1020 -0.9301
13134TIP3    H160893   1.155   5.049   5.633 -2.2412  1.7661 -2.5720
13134TIP3    H260894   1.180   4.936   5.536 -0.8975  0.1929 -0.4979
13135TIP3   OH260895   0.125   0.956  11.942 -0.1338  0.2182  0.1313
13135TIP3    H160896   0.043   0.938  11.990  0.0151  2.5648  1.4130
13135TIP3    H260897   0.194   0.923  12.000 -0.0970  0.0049 -0.0355
13136TIP3   OH260898   5.483   1.313  12.684  0.4094  0.2467  0.5246
13136TIP3    H160899   5.463   1.382  12.620 -1.5769  0.2640  1.0841
13136TIP3    H260900   5.497   1.361  12.766  2.7271  0.2078  0.2252
13137TIP3   OH260901   3.154   5.109   2.726  0.5658 -0.2562 -0.1978
13137TIP3    H160902   3.132   5.202   2.719  0.2625 -0.3991 -1.6602
13137TIP3    H260903   3.078   5.070   2.769  1.2303  0.3348  1.5714
13138TIP3   OH260904   3.145   6.245  13.117  0.2700 -0.2620 -0.3575
13138TIP3    H160905   3.227   6.274  13.158 -1.0075  1.8563  0.9373
13138TIP3    H260906   3.101   6.195  13.186 -0.0731 -0.2730 -0.5822
13139TIP3   OH260907   2.709   3.268  11.065 -0.0166  0.1382  0.3202
13139TIP3    H160908   2.679   3.265  11.156 -2.8279 -0.7062 -0.5417
13139TIP3    H260909   2.714   3.361  11.044 -1.7253  0.3459  0.6788
13140TIP3   OH260910   3.884   4.465   6.233 -0.6963  0.1162 -0.6153
13140TIP3    H160911   3.926   4.540   6.275 -1.6301 -0.4422  1.4768
13140TIP3    H260912   3.793   4.469   6.263 -1.1108 -1.0269 -1.6510
13141TIP3   OH260913   2.870   6.363   0.927  0.1582 -0.3557  0.1836
13141TIP3    H160914   2.839   6.323   1.008 -0.2259 -3.2413 -1.2688
13141TIP3    H260915   2.951   6.316   0.907 -0.0800 -0.1457 -1.4058
13142TIP3   OH260916   2.015   2.682  12.702 -0.8373  0.1779  0.1367
13142TIP3    H160917   1.994   2.592  12.726  0.1527  0.6383  3.2108
13142TIP3    H260918   1.936   2.731  12.724 -0.5263  0.3652  0.8747
13143TIP3   OH260919   3.277   1.145   1.478  0.0814  0.3277  0.3563
13143TIP3    H160920   3.370   1.126   1.479 -0.1463 -0.8152  0.6710
13143TIP3    H260921   3.257   1.177   1.566  0.4488  2.0747 -0.1507
13144TIP3   OH260922   1.758   5.193  14.001  0.2243 -0.3442  0.5813
13144TIP3    H160923   1.766   5.279  14.042 -0.6218  0.4024 -0.7376
13144TIP3    H260924   1.667   5.168  14.014  0.3283 -0.7837  0.4867
13145TIP3   OH260925   0.007   6.155   3.302  0.4952  0.0095 -0.2684
13145TIP3    H160926  -0.086   6.152   3.324  1.1242 -0.4077  2.7386
13145TIP3    H260927   0.031   6.248   3.310  0.9086 -0.2343  2.1104
13146TIP3   OH260928   3.397   0.115  15.794 -0.3928  0.1162  0.1635
13146TIP3    H160929   3.491   0.131  15.791 -0.2391 -0.2987  1.9879
13146TIP3    H260930   3.384   0.061  15.872 -1.9609 -1.2008 -0.9327
13147TIP3   OH260931   3.158   4.954  11.357 -0.0818 -0.6203 -0.3911
13147TIP3    H160932   3.189   4.879  11.308 -0.7585 -0.3694 -1.2287
13147TIP3    H260933   3.115   4.917  11.434  1.0097 -1.0161  0.0412
13148TIP3   OH260934   2.222   3.209   3.909  0.2271 -0.4864  0.4800
13148TIP3    H160935   2.171   3.249   3.839  1.4218  1.8521  0.8363
13148TIP3    H260936   2.305   3.185   3.867  0.4646 -0.2517  0.8107
13149TIP3   OH260937   3.965   5.463  15.907 -0.7661 -0.1379 -0.5375
13149TIP3    H160938   3.943   5.553  15.931  0.5649 -0.3071  1.6874
13149TIP3    H260939   3.890   5.412  15.935 -0.6764  0.0849  0.1432
13150TIP3   OH260940   1.183   5.744  15.780  0.1918 -0.2536  0.1854
13150TIP3    H160941   1.242   5.773  15.849  0.4686  0.4679 -0.3440
13150TIP3    H260942   1.099   5.729  15.824  0.3848  0.1359  0.6869
13151TIP3   OH260943   1.830   5.303   4.634  0.2545 -0.0767  0.2848
13151TIP3    H160944   1.818   5.391   4.599  2.2755 -0.4660 -1.5443
13151TIP3    H260945   1.741   5.269   4.644 -0.5116  1.6168 -0.4084
13152TIP3   OH260946   1.367   2.353  13.217 -0.0553  0.0496 -0.2307
13152TIP3    H160947   1.289   2.394  13.180  0.1929  0.1402 -0.6561
13152TIP3    H260948   1.437   2.417  13.202 -0.4207  1.3745  2.8037
13153TIP3   OH260949   4.580   3.727  15.314 -0.5862 -0.0602 -0.4256
13153TIP3    H160950   4.600   3.635  15.297  0.5628 -0.0435  0.6460
13153TIP3    H260951   4.497   3.725  15.362 -0.8346 -0.4954 -0.8641
13154TIP3   OH260952   6.496   2.099   6.249  0.3462 -0.7664  0.2725
13154TIP3    H160953   6.565   2.161   6.228 -0.2260  0.4289  1.7423
13154TIP3    H260954   6.533   2.013   6.229  1.2499  0.0026 -1.5574
13155TIP3   OH260955   4.426   5.954   2.984  0.3386  0.0902  0.1542
13155TIP3    H160956   4.382   6.026   2.939  0.0191  0.4920  1.1039
13155TIP3    H260957   4.492   5.924   2.921 -0.6085  0.1278 -0.9085
13156TIP3   OH260958   6.253   3.869  10.864  0.0763 -0.0859  0.1345
13156TIP3    H160959   6.215   3.918  10.790  0.1121 -1.9292 -1.1833
13156TIP3    H260960   6.183   3.865  10.928 -0.6385 -0.0873 -0.6255
13157TIP3   OH260961   2.631   4.286   0.688 -0.0649 -0.1083  0.2837
13157TIP3    H160962   2.664   4.331   0.766 -1.2483  1.3516 -0.0352
13157TIP3    H260963   2.686   4.319   0.616 -1.1041  1.0795  0.0082
13158TIP3   OH260964   2.022   6.468   6.096  0.0807  0.3239  0.0587
13158TIP3    H160965   2.026   6.451   6.190 -0.9601 -0.3273  0.0047
13158TIP3    H260966   2.112   6.488   6.071  0.2477  1.2343  1.3199
13159TIP3   OH260967   6.761   0.827  13.524 -0.2708 -0.4455 -0.4050
13159TIP3    H160968   6.787   0.763  13.457  1.7390 -1.7656  1.4973
13159TIP3    H260969   6.837   0.833  13.582 -1.8015  0.8736  1.5836
13160TIP3   OH260970   0.647   3.757  16.063  0.1256  0.6503  0.2360
13160TIP3    H160971   0.725   3.781  16.113  0.4931  2.2400 -1.0075
13160TIP3    H260972   0.681   3.737  15.975 -0.6809 -0.4462  0.1510
13161TIP3   OH260973   3.441   3.450  10.503  0.1630  0.0015  0.2546
13161TIP3    H160974   3.416   3.407  10.421  1.7696 -1.7654  0.6489
13161TIP3    H260975   3.433   3.544  10.484 -2.0808 -0.3878 -1.0593
13162TIP3   OH260976   1.482   5.673   1.488 -0.4042  0.0217  0.0904
13162TIP3    H160977   1.420   5.604   1.466 -0.4437  0.4894 -1.3692
13162TIP3    H260978   1.534   5.637   1.559 -0.7856 -1.2992 -0.2784
13163TIP3   OH260979   2.426   5.119  16.265  0.5822  0.3056  0.1526
13163TIP3    H160980   2.507   5.145  16.221  0.8213 -1.5577 -0.5887
13163TIP3    H260981   2.404   5.194  16.320  3.6052  0.3152  1.5159
13164TIP3   OH260982   1.133   1.266  14.848  0.3563  0.4226 -0.4756
13164TIP3    H160983   1.054   1.241  14.800  0.3683  2.3702 -1.5956
13164TIP3    H260984   1.200   1.204  14.817 -0.6450 -1.1849  0.4072
13165TIP3   OH260985   1.399   6.741  16.375 -0.3386 -0.1311  0.2747
13165TIP3    H160986   1.443   6.733  16.290  0.7686  0.4368  0.7691
13165TIP3    H260987   1.312   6.774  16.354 -0.2776 -0.5572 -0.6820
13166TIP3   OH260988   6.281   0.293  16.169  0.0937  0.0291  0.2926
13166TIP3    H160989   6.343   0.255  16.107  1.3936  0.7339  1.1042
13166TIP3    H260990   6.222   0.345  16.115  0.5430 -0.2166 -0.4526
13167TIP3   OH260991   0.957   1.981  15.352 -0.4639 -0.3448  0.0927
13167TIP3    H160992   0.884   2.032  15.386  0.0728  1.8194 -1.7483
13167TIP3    H260993   0.946   1.983  15.257  1.2439 -1.1467 -0.1717
13168TIP3   OH260994   4.931   6.412  14.055 -0.1852 -0.4846  0.2471
13168TIP3    H160995   4.871   6.467  14.104 -0.5983 -1.3420  0.7234
13168TIP3    H260996   4.998   6.386  14.119 -0.0260 -0.5865  0.0426
13169TIP3   OH260997   2.034   0.726   1.685 -0.0294 -0.5701 -0.5128
13169TIP3    H160998   2.063   0.662   1.620  0.3787  0.0673 -0.9732
13169TIP3    H260999   2.019   0.806   1.635 -0.9333 -0.4103 -0.0067
13170TIP3   OH261000   0.721   2.509  13.238 -0.5118  0.0347 -0.0499
13170TIP3    H161001   0.669   2.550  13.169  1.4252  1.5675 -0.7005
13170TIP3    H261002   0.788   2.459  13.191 -1.0577 -1.5218  0.7572
13171TIP3   OH261003   2.442   0.041   1.823 -0.6337  0.1158  0.1639
13171TIP3    H161004   2.453   0.070   1.913 -1.2384  0.3157  0.1782
13171TIP3    H261005   2.350   0.017   1.816 -0.4582 -0.4734 -0.2388
13172TIP3   OH261006   5.831   5.516   2.585 -0.0523 -0.3398 -0.0388
13172TIP3    H161007   5.823   5.483   2.495  0.1709  0.6801 -0.4450
13172TIP3    H261008   5.848   5.438   2.637 -0.6865 -1.0193 -0.8102
13173TIP3   OH261009   6.516   4.042  11.111  0.0127  0.3054  0.0883
13173TIP3    H161010   6.514   4.002  11.024 -0.3609 -0.3833  0.3962
13173TIP3    H261011   6.540   3.970  11.170  0.0472  0.7099  0.5789
13174TIP3   OH261012   2.558   0.696  14.262 -0.1836  0.5862 -0.3449
13174TIP3    H161013   2.519   0.767  14.313 -0.1835  0.1493  0.2806
13174TIP3    H261014   2.483   0.655  14.219 -0.4090 -0.0605  0.6133
13175TIP3   OH261015   0.470   4.017   1.290 -0.0842 -0.3244  0.4679
13175TIP3    H161016   0.401   3.951   1.287 -0.9405  0.5030  1.3269
13175TIP3    H261017   0.445   4.076   1.361  0.6863  0.8942 -0.2205
13176TIP3   OH261018   5.248   4.210   2.304 -0.0209 -0.4197 -0.2355
13176TIP3    H161019   5.174   4.162   2.265  0.3132 -0.2856 -1.0693
13176TIP3    H261020   5.208   4.284   2.350 -0.3574  0.5537 -1.9857
13177TIP3   OH261021   4.298   6.807   3.420 -0.0565 -0.2851  0.6663
13177TIP3    H161022   4.359   6.735   3.405  0.2338 -0.1823  1.3543
13177TIP3    H261023   4.229   6.770   3.475  0.7130  0.2589  2.0419
13178TIP3   OH261024   0.307   4.691   2.078 -0.1155  0.6624  0.0282
13178TIP3    H161025   0.323   4.766   2.135  1.7588  0.4187 -0.1090
13178TIP3    H261026   0.380   4.632   2.094 -1.2452 -0.9018 -0.2809
13179TIP3   OH261027   6.722   0.733   4.164  0.1142 -0.3114 -0.2151
13179TIP3    H161028   6.764   0.799   4.109  0.3108 -2.4752 -2.9003
13179TIP3    H261029   6.647   0.778   4.202  0.3532  1.5275 -1.7514
13180TIP3   OH261030   0.051   1.411  16.435  0.3608  0.2305  0.1287
13180TIP3    H161031   0.012   1.425  16.349  2.2843 -0.5414 -0.9299
13180TIP3    H261032   0.035   1.318  16.453  0.9652  0.1076  0.0533
13181TIP3   OH261033   5.109   0.743  16.517 -0.7639  0.3954 -0.2126
13181TIP3    H161034   5.159   0.681  16.464 -0.2127  0.1930  0.5369
13181TIP3    H261035   5.027   0.698  16.537 -0.7338  0.2525 -0.4117
13182TIP3   OH261036   3.879   2.662   4.832  0.2699 -0.2473 -0.0384
13182TIP3    H161037   3.854   2.750   4.861  0.8462 -0.1918  0.2875
13182TIP3    H261038   3.965   2.647   4.870  0.6069 -0.5701 -0.8999
13183TIP3   OH261039   5.781   6.338   5.507  0.4734  0.1378 -0.0554
13183TIP3    H161040   5.845   6.281   5.465 -1.1329 -1.4719 -0.4716
13183TIP3    H261041   5.721   6.277   5.552 -0.8754  1.5364  0.1218
13184TIP3   OH261042   6.071   1.728   6.650  0.0624 -0.4603  0.1335
13184TIP3    H161043   6.130   1.800   6.672 -2.3012  1.0128  2.1583
13184TIP3    H261044   6.017   1.762   6.579 -0.1162 -0.7940  0.1079
13185TIP3   OH261045   0.145   3.435   3.770 -0.1937 -0.2598  0.2806
13185TIP3    H161046   0.151   3.502   3.838 -0.6605  0.9344 -0.8043
13185TIP3    H261047   0.058   3.447   3.733  1.9887  3.7450 -4.9339
13186TIP3   OH261048   1.731   4.349   0.107 -0.3976 -1.1199 -0.4867
13186TIP3    H161049   1.764   4.404   0.178 -0.9842  0.9785 -1.7772
13186TIP3    H261050   1.723   4.262   0.147 -0.7140 -0.0352  2.0296
13187TIP3   OH261051   4.871   2.585  13.145  0.4349 -0.2963  0.5083
13187TIP3    H161052   4.919   2.666  13.128  1.2935 -1.3480 -3.0531
13187TIP3    H261053   4.939   2.520  13.163  0.0069 -0.7961  0.3537
13188TIP3   OH261054   1.196   2.947  17.057  0.3441  0.3806  0.5551
13188TIP3    H161055   1.264   3.008  17.083  1.7647 -0.7105 -0.4300
13188TIP3    H261056   1.188   2.886  17.131 -1.0493  1.6381  1.5234
13189TIP3   OH261057   0.912   5.761   3.590 -0.3207 -0.2045 -0.3452
13189TIP3    H161058   0.824   5.725   3.600  0.0251 -0.6711  1.2083
13189TIP3    H261059   0.920   5.777   3.496 -2.0228 -0.2306 -0.5294
13190TIP3   OH261060   4.969   0.600   4.194  0.0406 -0.3422  0.0532
13190TIP3    H161061   5.059   0.589   4.164  0.3203 -1.4894  1.1924
13190TIP3    H261062   4.935   0.510   4.201 -0.6036 -0.0350  1.2615
13191TIP3   OH261063   4.521   2.280   3.945 -0.3390 -0.6524  0.4179
13191TIP3    H161064   4.540   2.186   3.942 -0.6720 -0.6954 -0.5888
13191TIP3    H261065   4.448   2.287   4.006  0.1412 -0.9623  1.0395
13192TIP3   OH261066   3.943   6.360  12.145 -0.1828 -0.2661 -0.1831
13192TIP3    H161067   3.907   6.333  12.060  1.7349 -2.7806 -0.3054
13192TIP3    H261068   3.874   6.413  12.184 -1.0541  1.2157 -3.3885
13193TIP3   OH261069   1.833   6.163   2.940  0.5946  0.1715 -0.2467
13193TIP3    H161070   1.832   6.081   2.990 -3.4272 -0.5920 -1.1747
13193TIP3    H261071   1.775   6.221   2.990  0.4262  1.1252 -1.5115
13194TIP3   OH261072   6.466   2.100  10.896 -0.1034 -0.6376  0.1638
13194TIP3    H161073   6.541   2.068  10.946 -0.1475 -1.4102 -0.2421
13194TIP3    H261074   6.390   2.080  10.951 -0.2593 -2.5019 -0.6272
13195TIP3   OH261075   2.883   4.177  15.930  0.1857 -0.0860 -0.0072
13195TIP3    H161076   2.851   4.267  15.937 -0.9039 -0.4088 -0.5488
13195TIP3    H261077   2.977   4.185  15.920  0.0851  0.9958 -0.1804
13196TIP3   OH261078   1.190   5.526   0.257 -0.4594  0.1271  0.4377
13196TIP3    H161079   1.259   5.591   0.246  0.9999 -1.6739 -2.2036
13196TIP3    H261080   1.122   5.552   0.194 -0.1626 -0.5038 -0.1548
13197TIP3   OH261081   2.456   5.752  13.484  0.2287 -0.1924 -0.3574
13197TIP3    H161082   2.379   5.715  13.439  0.1574 -0.5785  0.0730
13197TIP3    H261083   2.434   5.747  13.577 -0.8702  3.2911 -0.2828
13198TIP3   OH261084   3.857   1.527  16.762  0.0504  0.2678 -0.0544
13198TIP3    H161085   3.892   1.523  16.851 -1.8740  1.1162  0.8121
13198TIP3    H261086   3.766   1.497  16.771  0.6782 -2.6971 -2.3136
13199TIP3   OH261087   6.293   2.517   0.744 -0.0123 -0.4386  0.9489
13199TIP3    H161088   6.291   2.489   0.835  1.0088 -0.4618  0.9769
13199TIP3    H261089   6.382   2.497   0.714 -0.4320 -0.7625 -0.1566
13200TIP3   OH261090   2.705   5.538  14.998 -0.6675  0.7625  0.4533
13200TIP3    H161091   2.675   5.595  15.068 -1.9654  2.1458 -1.1674
13200TIP3    H261092   2.771   5.482  15.040 -1.3424  1.5681  2.7320
13201TIP3   OH261093   1.987   6.509  15.489  0.0321 -0.1040 -0.2110
13201TIP3    H161094   2.030   6.594  15.494  0.5384 -0.4019  1.0460
13201TIP3    H261095   2.052   6.451  15.449  0.6185 -0.4186  1.1392
13202TIP3   OH261096   6.697   4.083   1.160 -0.1366  0.7245  0.3583
13202TIP3    H161097   6.630   4.024   1.193  0.5031  0.8366  1.8997
13202TIP3    H261098   6.704   4.152   1.226  1.9636  0.3568  0.5614
13203TIP3   OH261099   5.628   1.077   1.804  0.0426  0.1964  0.3437
13203TIP3    H161100   5.668   0.991   1.793  0.8660  0.7870 -1.6996
13203TIP3    H261101   5.571   1.088   1.728  1.7472  2.3672 -0.7252
13204TIP3   OH261102   5.711   2.076  15.368  0.0643 -0.0200 -0.1519
13204TIP3    H161103   5.661   2.033  15.298  0.9425  0.6976 -1.2554
13204TIP3    H261104   5.648   2.134  15.409 -0.0823  0.7688 -1.4364
13205TIP3   OH261105   2.777   5.954  15.108 -0.5652 -0.0074  0.0920
13205TIP3    H161106   2.818   5.913  15.032 -1.2349  1.7962 -1.3234
13205TIP3    H261107   2.749   6.041  15.077 -1.1129  0.6941  2.3261
13206TIP3   OH261108   5.500   6.032   3.777  0.2445 -0.1485 -0.5446
13206TIP3    H161109   5.445   6.027   3.855  1.2895 -0.5894  0.1909
13206TIP3    H261110   5.463   5.967   3.718 -1.3793  1.1066 -0.9973
13207TIP3   OH261111   0.302   3.636   0.222  0.7498  0.1137 -0.6401
13207TIP3    H161112   0.331   3.620   0.312 -3.2502 -1.7481  0.5417
13207TIP3    H261113   0.291   3.731   0.216  0.9928  0.2508  0.8670
13208TIP3   OH261114   3.847   4.176  14.984  0.3432 -0.2334 -0.1264
13208TIP3    H161115   3.830   4.213  14.897 -1.0477 -0.6268 -0.0404
13208TIP3    H261116   3.845   4.081  14.971  0.4818 -0.2932  0.2719
13209TIP3   OH261117   0.857   2.644  14.557  0.3222 -0.1162  0.5006
13209TIP3    H161118   0.925   2.695  14.512 -0.9240 -0.0334 -1.3646
13209TIP3    H261119   0.851   2.685  14.644  0.0472  2.3467 -0.5802
13210TIP3   OH261120   5.677   5.387  15.114 -0.2530 -0.2580 -0.4435
13210TIP3    H161121   5.715   5.396  15.201 -0.2103 -1.6811 -0.2856
13210TIP3    H261122   5.745   5.417  15.055 -0.5667  1.4669  0.0279
13211TIP3   OH261123   1.866   1.213  12.819  0.2439 -0.2698  0.3538
13211TIP3    H161124   1.878   1.228  12.726  0.5265  0.2705  0.4761
13211TIP3    H261125   1.801   1.143  12.824  1.3927 -1.4181 -0.2753
13212TIP3   OH261126   1.975   4.028  14.289 -0.1765 -0.6031  1.3276
13212TIP3    H161127   1.948   3.984  14.370  2.0222 -0.2185  2.3366
13212TIP3    H261128   1.950   4.120  14.302  0.6216 -0.4430  1.8251
13213TIP3   OH261129   1.785   1.654  11.881 -0.1959 -0.5949  0.0054
13213TIP3    H161130   1.794   1.737  11.927 -1.7937 -1.8972  2.9927
13213TIP3    H261131   1.812   1.672  11.791  4.1420  1.9493  1.5548
13214TIP3   OH261132   4.247   6.182   1.577  0.0394  0.0103 -0.0141
13214TIP3    H161133   4.200   6.265   1.582  0.1025 -0.0083  0.9803
13214TIP3    H261134   4.330   6.204   1.535  0.8547  0.8403  1.9178
13215TIP3   OH261135   1.029   3.109   0.625 -0.1240  0.0352  0.4082
13215TIP3    H161136   1.055   3.023   0.660 -0.4508  0.2352  1.1595
13215TIP3    H261137   1.037   3.168   0.699 -0.4094  0.5603  0.0239
13216TIP3   OH261138   2.942   4.262   0.249 -0.8765 -0.1646 -0.1474
13216TIP3    H161139   2.930   4.274   0.155 -2.9115 -0.7341 -0.0140
13216TIP3    H261140   2.915   4.171   0.264  0.5079 -0.4463  0.8564
13217TIP3   OH261141   1.177   1.041   0.107  0.0491 -0.6207 -0.1527
13217TIP3    H161142   1.200   1.074   0.193  1.2194  0.7607 -0.9474
13217TIP3    H261143   1.250   0.984   0.082  0.1226 -0.3556 -0.5595
13218TIP3   OH261144   5.927   2.238   1.686 -0.1802 -0.3719  0.3240
13218TIP3    H161145   5.993   2.281   1.740 -1.0877  1.8781 -0.2186
13218TIP3    H261146   5.867   2.198   1.749  1.5750 -2.3885  0.8217
13219TIP3   OH261147   0.495   0.679  12.053 -0.1447 -0.1905  0.0613
13219TIP3    H161148   0.459   0.613  11.994  2.3852 -0.2228 -1.5855
13219TIP3    H261149   0.503   0.757  11.998 -2.1255  1.2729  1.7040
13220TIP3   OH261150   5.699   3.784   0.848 -0.1571  0.0938  0.2310
13220TIP3    H161151   5.673   3.818   0.762 -0.2212  1.1533  0.6513
13220TIP3    H261152   5.675   3.692   0.845 -1.5722  0.4438 -0.3520
13221TIP3   OH261153   2.570   2.737   1.373 -0.1015  0.1592  0.1605
13221TIP3    H161154   2.575   2.774   1.461 -1.6752  1.2635 -0.1771
13221TIP3    H261155   2.497   2.674   1.377 -0.4764  0.5394 -0.4433
13222TIP3   OH261156   2.328   3.395   1.612 -0.1706 -0.0223  0.4113
13222TIP3    H161157   2.385   3.319   1.619 -1.2885 -0.7497  2.7960
13222TIP3    H261158   2.386   3.471   1.618  0.6089 -0.7375  3.0185
13223TIP3   OH261159   3.836   0.245  11.471  0.1359  0.0295  0.1667
13223TIP3    H161160   3.877   0.322  11.511 -1.0742  1.6158 -1.4290
13223TIP3    H261161   3.765   0.282  11.418 -0.8747 -2.2784 -0.1831
13224TIP3   OH261162   6.363   2.471  15.913  0.3615  0.3700 -0.5215
13224TIP3    H161163   6.420   2.547  15.918  1.0404 -0.1136 -0.7482
13224TIP3    H261164   6.383   2.431  15.828  0.4564 -0.3981 -0.1493
13225TIP3   OH261165   6.083   5.682  16.010 -0.0831  0.4474  0.5307
13225TIP3    H161166   5.993   5.675  15.977 -0.2666 -1.9861  1.3632
13225TIP3    H261167   6.137   5.639  15.944  0.1282 -0.2576  1.1396
13226TIP3   OH261168   3.332   0.353  15.879  0.4464 -0.7519 -0.2363
13226TIP3    H161169   3.333   0.269  15.833 -0.8775 -0.5511 -0.6685
13226TIP3    H261170   3.239   0.375  15.886  0.6117 -0.5505  2.1349
13227TIP3   OH261171   0.960   2.716   5.644 -1.2607  0.0212 -0.3941
13227TIP3    H161172   0.947   2.622   5.626 -1.6930 -0.1102  0.5515
13227TIP3    H261173   0.971   2.755   5.557  0.6361 -1.1375 -0.7330
13228TIP3   OH261174   2.575   5.475  12.440  0.1858 -0.5048 -0.0712
13228TIP3    H161175   2.572   5.432  12.355  2.1047 -1.6352  0.3561
13228TIP3    H261176   2.637   5.547  12.428 -1.6888  1.1352 -0.3239
13229TIP3   OH261177   4.661   5.696   3.762  0.1960 -0.0080 -0.4566
13229TIP3    H161178   4.644   5.739   3.846 -0.1123 -1.7891  0.4506
13229TIP3    H261179   4.752   5.718   3.741  1.2491 -1.7468  1.8121
13230TIP3   OH261180   0.666   4.163  13.197  0.2179  0.5338 -0.4536
13230TIP3    H161181   0.595   4.226  13.209  0.7570  0.9382  0.9783
13230TIP3    H261182   0.675   4.121  13.283  1.1619 -0.0796 -0.8350
13231TIP3   OH261183   6.768   6.341   3.634  0.9072  0.0808  0.9091
13231TIP3    H161184   6.692   6.384   3.593  0.1990 -0.7015  1.3757
13231TIP3    H261185   6.731   6.263   3.675  2.1533 -0.9525  0.1268
13232TIP3   OH261186   0.857   4.272  14.559 -0.2429 -0.4230 -0.9649
13232TIP3    H161187   0.778   4.237  14.601 -0.7549  1.4033 -0.3124
13232TIP3    H261188   0.888   4.200  14.503 -0.4579 -2.3716  1.2633
13233TIP3   OH261189   0.303   1.019   2.935  0.2256  0.1263  0.5598
13233TIP3    H161190   0.275   1.077   2.864  1.4556 -0.0310 -0.0872
13233TIP3    H261191   0.380   1.062   2.972  1.0310 -0.9658  0.2067
13234TIP3   OH261192   2.490   1.780  12.875  0.5243 -0.2414 -0.7676
13234TIP3    H161193   2.553   1.774  12.947 -0.3804 -0.5678  0.0172
13234TIP3    H261194   2.438   1.857  12.895  1.5114  0.8372 -2.1376
13235TIP3   OH261195   6.789   3.116  15.813  0.9031  0.5434 -0.1427
13235TIP3    H161196   6.856   3.160  15.762  0.6113 -0.8557 -1.8117
13235TIP3    H261197   6.837   3.048  15.861  0.9983  1.0741  0.5309
13236TIP3   OH261198   1.541   5.996  15.708  0.0775  0.0236  0.1921
13236TIP3    H161199   1.452   6.031  15.715 -0.1704 -0.7055  0.8510
13236TIP3    H261200   1.594   6.070  15.678 -0.7210  0.5020 -0.0759
13237TIP3   OH261201   0.561   4.869   4.493  0.4846  0.5815 -0.3345
13237TIP3    H161202   0.609   4.793   4.526  0.0541  0.7311  0.6709
13237TIP3    H261203   0.566   4.934   4.563 -2.2665  0.1325  0.4025
13238TIP3   OH261204   6.425   0.197  16.375 -0.4239 -0.0413 -0.8274
13238TIP3    H161205   6.373   0.177  16.453 -0.4542 -3.1076 -1.4980
13238TIP3    H261206   6.360   0.212  16.306 -0.3833  1.1102 -0.6384
13239TIP3   OH261207   6.103   5.277  12.577  0.6450 -0.5353  0.0609
13239TIP3    H161208   6.143   5.261  12.663 -0.4437 -2.0579  0.3295
13239TIP3    H261209   6.101   5.191  12.535 -0.7040 -0.1858 -0.6502
13240TIP3   OH261210   5.539   0.039   5.011 -0.0376  0.5980  0.0130
13240TIP3    H161211   5.511   0.109   4.953  0.8377  0.2572 -0.8415
13240TIP3    H261212   5.503  -0.041   4.973  0.7350  0.3454 -0.1942
13241TIP3   OH261213   4.358   2.474   3.122  0.1791 -0.1201  0.0602
13241TIP3    H161214   4.440   2.432   3.095  0.5735 -0.8399  2.1493
13241TIP3    H261215   4.385   2.535   3.192 -0.9761  0.1857  0.2582
13242TIP3   OH261216   3.085   3.528  13.555 -0.5853  0.3250 -0.2806
13242TIP3    H161217   3.149   3.528  13.626 -0.4627  0.8207 -0.3861
13242TIP3    H261218   3.133   3.496  13.479 -0.7231 -0.2304 -0.1433
13243TIP3   OH261219   2.430   1.130  13.218 -0.6734 -0.0965  0.7321
13243TIP3    H161220   2.502   1.180  13.180 -2.4798  0.3747 -2.4798
13243TIP3    H261221   2.376   1.195  13.262 -0.8082  0.1187  0.2607
13244TIP3   OH261222   5.038   3.190   4.228 -0.5867 -0.1409 -0.1736
13244TIP3    H161223   4.994   3.219   4.148  0.5336  1.7043 -0.1621
13244TIP3    H261224   4.983   3.223   4.299  1.3157  3.3692 -0.1233
13245TIP3   OH261225   5.173   5.381  16.221 -0.0674  0.6218 -0.2836
13245TIP3    H161226   5.138   5.468  16.241  1.0465  0.9089  0.5156
13245TIP3    H261227   5.114   5.346  16.154 -2.5287  0.6397  1.7381
13246TIP3   OH261228   3.545   6.689   3.395  0.0335  0.4733  0.0999
13246TIP3    H161229   3.547   6.593   3.393 -0.1781  0.4601  0.3467
13246TIP3    H261230   3.519   6.710   3.485  1.7446  0.8027  0.5472
13247TIP3   OH261231   2.055   6.093   4.799  0.3950  0.2194 -0.0695
13247TIP3    H161232   2.104   6.168   4.768  1.5739 -0.9947 -1.2627
13247TIP3    H261233   2.107   6.017   4.773 -1.5492 -1.0959 -0.3743
13248TIP3   OH261234   2.069   0.437   1.158  0.6294  0.3933 -0.2016
13248TIP3    H161235   2.156   0.443   1.118  0.3192 -1.1786 -1.1519
13248TIP3    H261236   2.060   0.346   1.185 -1.8581 -0.2652 -2.7966
13249TIP3   OH261237   5.014   4.614  16.711 -0.2523  0.2302  0.4726
13249TIP3    H161238   5.040   4.659  16.631 -1.1696 -0.8391 -0.4550
13249TIP3    H261239   4.960   4.541  16.681 -2.9516  1.3635  2.1859
13250TIP3   OH261240   4.463   2.729  11.604 -0.5887 -0.2281 -0.3962
13250TIP3    H161241   4.557   2.711  11.601 -0.4302  0.5081 -0.0216
13250TIP3    H261242   4.446   2.751  11.695 -0.9487  0.5539 -0.6511
13251TIP3   OH261243   6.354   0.973   0.033  0.0912 -0.0478  0.1709
13251TIP3    H161244   6.402   1.020   0.102 -1.1064  0.2152  0.8492
13251TIP3    H261245   6.414   0.904   0.006  0.6653 -0.0460  1.3567
13252TIP3   OH261246   0.658   0.737  15.437 -0.5893  0.1162 -0.7862
13252TIP3    H161247   0.638   0.828  15.459 -1.4339 -0.0155 -0.9588
13252TIP3    H261248   0.653   0.733  15.341  0.1390  0.0376 -0.8276
13253TIP3   OH261249   3.303   5.654   4.520  0.5242  0.2221  0.0499
13253TIP3    H161250   3.325   5.596   4.593  0.1296 -0.4403 -0.3508
13253TIP3    H261251   3.383   5.705   4.505  0.6841  0.1976  0.7842
13254TIP3   OH261252   0.815   0.571  12.073 -0.0835 -0.0368 -0.0918
13254TIP3    H161253   0.874   0.530  12.010  0.3581  1.5700 -0.7662
13254TIP3    H261254   0.843   0.536  12.158  1.5589  0.3437 -0.4366
13255TIP3   OH261255   3.402   2.649   1.184  0.5688  0.6827  0.7955
13255TIP3    H161256   3.469   2.589   1.150 -0.1355 -0.0685  0.7016
13255TIP3    H261257   3.450   2.728   1.207  1.1364  1.1676 -1.7452
13256TIP3   OH261258   2.828   3.554   2.100 -0.1108  0.3778 -0.4331
13256TIP3    H161259   2.844   3.648   2.102  0.3098  0.3398 -1.3491
13256TIP3    H261260   2.907   3.517   2.059 -0.7120 -0.2675 -1.0372
13257TIP3   OH261261   6.678   1.332   5.399 -0.3406 -0.3709  1.0066
13257TIP3    H161262   6.702   1.314   5.490  0.8706 -0.6209  0.6609
13257TIP3    H261263   6.747   1.390   5.368 -0.0433 -1.2907 -0.1049
13258TIP3   OH261264   3.633   5.007   3.467 -0.2147  0.6868 -0.2241
13258TIP3    H161265   3.636   4.912   3.471 -2.8742  0.5586  1.8301
13258TIP3    H261266   3.623   5.027   3.374  1.3449 -0.9389 -0.7846
13259TIP3   OH261267   4.344   0.090   1.872  0.3104 -0.7797 -0.5878
13259TIP3    H161268   4.341   0.176   1.915 -0.6247 -0.5230 -1.1238
13259TIP3    H261269   4.375   0.030   1.940  0.5007 -0.0949 -0.0602
13260TIP3   OH261270   5.248   2.194  16.019  0.3171 -0.0553  0.1964
13260TIP3    H161271   5.293   2.154  15.944  0.7353  1.9110 -0.6781
13260TIP3    H261272   5.309   2.182  16.092  0.1534 -1.5043  0.1290
13261TIP3   OH261273   3.936   1.257  13.881  0.1315  0.1460 -0.6699
13261TIP3    H161274   3.962   1.344  13.909  3.6410 -0.9095 -0.1325
13261TIP3    H261275   3.936   1.205  13.961 -0.3367 -0.6819 -1.1918
13262TIP3   OH261276   5.964   3.209  15.535 -0.0481 -0.4447  0.0749
13262TIP3    H161277   5.981   3.292  15.579  1.6504 -1.1525  0.8455
13262TIP3    H261278   6.008   3.217  15.450 -0.8200 -0.1708 -0.3088
13263TIP3   OH261279   5.409   1.301   2.879 -0.2244  0.4179 -0.1449
13263TIP3    H161280   5.480   1.266   2.932  0.2596 -0.4600 -1.3128
13263TIP3    H261281   5.419   1.257   2.794 -1.7236  0.8241 -0.5633
13264TIP3   OH261282   0.249   1.716  13.806  0.0941  0.4476 -0.3266
13264TIP3    H161283   0.319   1.722  13.741 -0.6541 -0.0564 -1.2034
13264TIP3    H261284   0.191   1.647  13.772 -1.4007  1.5769 -0.1749
13265TIP3   OH261285   0.564   4.086   0.503 -0.0666 -0.1294 -0.1309
13265TIP3    H161286   0.650   4.124   0.521  0.2497 -0.7515 -0.2865
13265TIP3    H261287   0.530   4.063   0.589  0.6102 -1.3183 -0.1508
13266TIP3   OH261288   5.348   0.575  12.284 -0.1212 -0.3752  0.1814
13266TIP3    H161289   5.285   0.608  12.220  2.0989  1.0449 -1.4046
13266TIP3    H261290   5.398   0.652  12.310  0.7722 -1.4044  1.6409
13267TIP3   OH261291   3.751   5.777   1.971 -0.0476 -0.1331  0.4985
13267TIP3    H161292   3.674   5.729   1.940 -0.0231 -1.2588  2.0805
13267TIP3    H261293   3.821   5.712   1.971  0.1517  0.0467  2.0210
13268TIP3   OH261294   6.806   1.421   1.741 -0.0243  0.1622  0.4045
13268TIP3    H161295   6.811   1.415   1.645  0.6989 -2.0298  0.5223
13268TIP3    H261296   6.878   1.479   1.765  0.2477  0.1539 -0.3424
13269TIP3   OH261297   3.692   2.253   1.471 -0.1224  0.5154 -0.1532
13269TIP3    H161298   3.762   2.246   1.407 -0.2533  0.2883 -0.2704
13269TIP3    H261299   3.703   2.340   1.509  0.1092  0.5509 -0.3023
13270TIP3   OH261300   4.645   0.359   5.954  0.1092 -0.1626  0.0246
13270TIP3    H161301   4.672   0.420   6.022  2.1551 -0.3458 -0.5562
13270TIP3    H261302   4.626   0.415   5.878  3.6217 -0.1934 -1.0455
13271TIP3   OH261303   4.064   2.112   4.226 -0.1407  0.2540  0.3604
13271TIP3    H161304   4.037   2.139   4.314 -0.3805  1.0766  0.0484
13271TIP3    H261305   3.992   2.139   4.170  0.7627  1.3433 -0.3176
13272TIP3   OH261306   3.460   5.214  16.873 -0.1337 -0.0185  0.2034
13272TIP3    H161307   3.475   5.158  16.797 -2.2003  0.8824 -0.9627
13272TIP3    H261308   3.412   5.289  16.838  0.5265  1.3719  2.1008
13273TIP3   OH261309   5.081   4.852   2.018 -0.3505  0.0490 -0.1621
13273TIP3    H161310   5.077   4.762   2.051 -1.2187  0.1822  0.1057
13273TIP3    H261311   5.104   4.905   2.094 -0.6065  0.1425 -0.1476
13274TIP3   OH261312   3.221   4.368   1.368 -0.0189 -0.2477 -0.0534
13274TIP3    H161313   3.242   4.440   1.309  0.6798 -0.6465 -0.3088
13274TIP3    H261314   3.155   4.317   1.321 -1.8918  1.1700  0.8723
13275TIP3   OH261315   0.584   2.019   5.073  0.5986  0.5527  0.5361
13275TIP3    H161316   0.643   1.965   5.020  1.8641  0.3810  2.0358
13275TIP3    H261317   0.524   1.955   5.113 -2.6945  0.9230 -3.2105
13276TIP3   OH261318   4.046   1.028   3.937 -0.0683  0.1470  0.1845
13276TIP3    H161319   3.960   1.020   3.897  0.4289 -2.9172 -0.5223
13276TIP3    H261320   4.034   1.001   4.028  0.1998 -0.6491 -0.0125
13277TIP3   OH261321   1.989   1.874   1.347 -0.1719  0.3318  0.1208
13277TIP3    H161322   2.046   1.882   1.271 -0.8464 -0.5054 -0.4948
13277TIP3    H261323   1.966   1.781   1.350 -2.0812  0.7629 -0.0758
13278TIP3   OH261324   3.384   4.857   4.619 -0.7859  0.3850  0.1555
13278TIP3    H161325   3.352   4.804   4.547  0.3696 -0.7157  0.4242
13278TIP3    H261326   3.410   4.940   4.579 -2.1481  0.6071 -0.3353
13279TIP3   OH261327   5.314   5.745   2.689 -0.4333 -0.2498 -0.2358
13279TIP3    H161328   5.322   5.650   2.686 -0.5519 -0.2549 -0.3962
13279TIP3    H261329   5.372   5.776   2.619 -0.1833 -0.1908 -0.0076
13280TIP3   OH261330   2.207   5.044  16.523 -0.1723  0.1185  0.4047
13280TIP3    H161331   2.253   5.021  16.604  0.0691  2.6772  1.0975
13280TIP3    H261332   2.276   5.048  16.456  0.1334  0.8341  0.7498
13281TIP3   OH261333   6.603   6.440  11.510  0.5061 -0.0114  0.2217
13281TIP3    H161334   6.574   6.404  11.594  2.3584 -4.3911 -0.7020
13281TIP3    H261335   6.666   6.508  11.533 -0.0653 -0.1277  2.3353
13282TIP3   OH261336   4.036   2.496  15.395  0.0696  0.1326 -0.6703
13282TIP3    H161337   4.009   2.587  15.382 -1.7679 -0.3724 -0.6917
13282TIP3    H261338   3.976   2.462  15.461  3.0717 -0.0912  2.2109
13283TIP3   OH261339   2.309   1.934   6.295 -0.0212  0.2810  0.6820
13283TIP3    H161340   2.374   1.870   6.325  1.0551  0.5632 -0.9081
13283TIP3    H261341   2.245   1.882   6.246  1.7535  0.5064 -2.0704
13284TIP3   OH261342   6.062   5.717   2.100 -0.0664  0.6542  0.0617
13284TIP3    H161343   6.030   5.794   2.146  0.1512  0.8410 -0.0966
13284TIP3    H261344   5.994   5.698   2.035 -0.8805 -0.2456  1.1535
13285TIP3   OH261345   6.754   2.223   4.727 -0.1854 -0.2599 -0.1615
13285TIP3    H161346   6.768   2.297   4.668  0.3968 -2.4464 -3.0262
13285TIP3    H261347   6.842   2.189   4.744 -0.4457 -0.3951  0.9597
13286TIP3   OH261348   1.136   3.282   2.488  0.6758 -0.6452  0.2559
13286TIP3    H161349   1.049   3.319   2.502  1.1748  0.1844  1.2945
13286TIP3    H261350   1.128   3.191   2.517 -0.4769 -1.3441 -2.0406
13287TIP3   OH261351   1.067   2.392  15.215  0.0879 -0.1781 -0.2551
13287TIP3    H161352   1.066   2.332  15.289 -0.4345  1.7091  1.3638
13287TIP3    H261353   1.157   2.423  15.211  0.3875 -1.1352 -1.1697
13288TIP3   OH261354   3.626   2.659   4.788 -0.1945 -0.8954 -0.5780
13288TIP3    H161355   3.718   2.649   4.813  0.7515 -0.0458 -3.3764
13288TIP3    H261356   3.629   2.707   4.705 -3.3023  1.4469  0.4823
13289TIP3   OH261357   2.222   1.727  10.784  0.3506 -0.3157 -0.2959
13289TIP3    H161358   2.175   1.666  10.728 -1.4904 -1.1327  1.9921
13289TIP3    H261359   2.184   1.813  10.764 -0.6788 -0.6789  0.0785
13290TIP3   OH261360   0.770   0.665  12.762  0.2453 -0.2198 -0.4434
13290TIP3    H161361   0.720   0.628  12.834  0.1731 -1.4701 -1.1131
13290TIP3    H261362   0.830   0.728  12.804 -1.5919  1.0467  0.3916
13291TIP3   OH261363   5.518   5.495   5.573  0.5913 -0.5684  0.2885
13291TIP3    H161364   5.579   5.428   5.541  0.5548 -1.0197  1.1294
13291TIP3    H261365   5.568   5.542   5.641  0.9757  0.9468 -0.9887
13292TIP3   OH261366   6.305   2.373   3.776  0.3194 -0.2063 -0.1459
13292TIP3    H161367   6.234   2.377   3.711  0.4264 -0.4952 -0.2801
13292TIP3    H261368   6.384   2.358   3.724  0.3472 -0.8922  0.0847
13293TIP3   OH261369   4.351   4.333   6.037  0.3603 -0.4021  0.7123
13293TIP3    H161370   4.292   4.353   6.109 -2.0322  0.4585 -1.3215
13293TIP3    H261371   4.318   4.252   6.000  0.7422 -0.1660 -0.1787
13294TIP3   OH261372   6.552   6.203  16.095 -0.6796 -0.2045  0.2251
13294TIP3    H161373   6.561   6.125  16.041 -0.4743 -0.2411  0.3092
13294TIP3    H261374   6.462   6.232  16.082 -0.0279  1.1168 -1.9408
13295TIP3   OH261375   0.543   5.913   1.352 -0.0393  0.0821  0.2653
13295TIP3    H161376   0.636   5.890   1.355  0.7543  2.7286 -0.5916
13295TIP3    H261377   0.528   5.962   1.433 -1.3337 -2.1084  1.4579
13296TIP3   OH261378   6.203   2.547   5.589 -0.1498 -0.7807  0.1045
13296TIP3    H161379   6.207   2.601   5.510 -1.1258 -2.6420 -1.2923
13296TIP3    H261380   6.249   2.598   5.656 -0.3828  1.4083 -1.3239
13297TIP3   OH261381   2.989   6.000   3.006 -0.1826  0.1840  0.4474
13297TIP3    H161382   2.899   6.032   2.994  0.5824  1.7886 -1.7315
13297TIP3    H261383   3.044   6.068   2.967  1.9154 -1.3650  0.5371
13298TIP3   OH261384   5.993   0.095  17.103 -0.3058  0.1272  0.7407
13298TIP3    H161385   6.079   0.111  17.066 -0.1340  1.5929  1.6944
13298TIP3    H261386   5.932   0.110  17.030  0.2075 -0.4366  0.1871
13299TIP3   OH261387   0.173   6.324  12.618  0.2160 -0.2876  0.6360
13299TIP3    H161388   0.248   6.358  12.668  1.0827 -0.8825 -0.2237
13299TIP3    H261389   0.184   6.229  12.619 -0.7207 -0.4079  0.7652
13300TIP3   OH261390   6.777   2.137  11.310  0.3106  0.2484  0.3933
13300TIP3    H161391   6.682   2.137  11.320 -0.1459 -1.7279 -2.4498
13300TIP3    H261392   6.804   2.049  11.335  0.7392 -0.5068 -2.3322
13301TIP3   OH261393   2.203   2.156   1.258 -0.6751 -0.4640 -0.6638
13301TIP3    H161394   2.173   2.237   1.216 -0.1376  0.1361  0.0786
13301TIP3    H261395   2.156   2.154   1.342 -0.7737 -0.9843 -0.7286
13302TIP3   OH261396   3.658   5.265  14.537  0.2888 -0.3104 -0.8987
13302TIP3    H161397   3.711   5.301  14.608 -2.2810 -0.2901  1.1900
13302TIP3    H261398   3.635   5.177  14.567  0.1892 -0.7866 -2.3279
13303TIP3   OH261399   0.671   4.439   0.306  0.2368 -0.4509  0.2169
13303TIP3    H161400   0.728   4.467   0.378 -1.2166  2.1753  0.4927
13303TIP3    H261401   0.731   4.426   0.232  1.3523  1.5215  0.6881
13304TIP3   OH261402   6.145   0.742   0.873  0.1803  0.1296  0.5134
13304TIP3    H161403   6.068   0.754   0.928 -1.6232 -1.4661 -1.4646
13304TIP3    H261404   6.149   0.648   0.857  2.1052  0.2670 -0.0558
13305TIP3   OH261405   5.889   0.361   3.247 -0.1545  0.1887 -0.5656
13305TIP3    H161406   5.951   0.393   3.182  1.9280 -3.7006 -0.7959
13305TIP3    H261407   5.943   0.342   3.324 -1.3435 -1.6078 -0.1206
13306TIP3   OH261408   6.262   3.618   6.097  0.0152  0.6651 -0.1654
13306TIP3    H161409   6.350   3.653   6.106  0.3050 -0.1747  0.3789
13306TIP3    H261410   6.249   3.564   6.175 -0.1729 -0.9602 -1.2642
13307TIP3   OH261411   5.569   0.074   2.421  0.1261 -0.4167  0.5251
13307TIP3    H161412   5.558   0.055   2.514  0.0945 -0.1554  0.5755
13307TIP3    H261413   5.638   0.014   2.393  1.3557  0.6800  1.1119
13308TIP3   OH261414   1.800   3.426  13.310 -0.0096  0.4236  0.2370
13308TIP3    H161415   1.806   3.469  13.225  1.1564  1.1231  0.6489
13308TIP3    H261416   1.821   3.494  13.373  0.4785 -0.4049  0.9959
13309TIP3   OH261417   4.186   0.704  11.783 -0.3672  0.4159 -0.4287
13309TIP3    H161418   4.221   0.636  11.841  0.8377  0.9215 -0.5289
13309TIP3    H261419   4.233   0.784  11.808 -1.3542  1.0944 -0.6910
13310TIP3   OH261420   0.428   1.335  12.679  0.0343 -0.0660  0.7420
13310TIP3    H161421   0.373   1.274  12.630 -0.3151  1.0519 -0.2943
13310TIP3    H261422   0.367   1.387  12.730  0.2140  0.4302  0.4541
13311TIP3   OH261423   4.979   4.627  15.289  0.2246  0.5918  0.1249
13311TIP3    H161424   4.955   4.617  15.381 -0.9457  1.4892 -0.0683
13311TIP3    H261425   4.918   4.692  15.255  1.3095  1.0370 -1.0365
13312TIP3   OH261426   6.421   3.629  16.725 -0.4757  1.0694 -0.0991
13312TIP3    H161427   6.435   3.723  16.719  2.6263  0.7462  0.3735
13312TIP3    H261428   6.505   3.593  16.753 -1.0935 -1.9937 -1.6095
13313TIP3   OH261429   0.144   6.142  17.086 -0.3218 -0.6325 -0.0156
13313TIP3    H161430   0.112   6.193  17.160  0.8403  1.1284 -0.6426
13313TIP3    H261431   0.233   6.176  17.071 -1.4305  1.1306 -3.8833
13314TIP3   OH261432   5.054   4.205  15.153  0.2973  0.3250  0.3470
13314TIP3    H161433   5.111   4.264  15.104  2.1579 -1.2846  0.4835
13314TIP3    H261434   5.043   4.128  15.097 -1.2530  0.3153  0.5999
13315TIP3   OH261435   1.791   2.158   4.730  0.0816 -0.9253  0.2913
13315TIP3    H161436   1.704   2.138   4.764  0.2933  0.0033  1.4431
13315TIP3    H261437   1.787   2.250   4.706  0.8528 -0.7674  0.7199
13316TIP3   OH261438   1.913   1.655   2.066 -0.8257  0.2601 -0.3415
13316TIP3    H161439   1.825   1.681   2.092 -0.2515  1.8931  0.0632
13316TIP3    H261440   1.957   1.737   2.042  1.3642 -0.1469  1.8479
13317TIP3   OH261441   4.129   5.398  12.338  0.5204  0.0171  0.3212
13317TIP3    H161442   4.181   5.476  12.359 -0.1243  0.0636  1.8886
13317TIP3    H261443   4.066   5.427  12.273  0.3431  0.7985  0.8312
13318TIP3   OH261444   4.376   1.745   3.815 -0.0441 -0.3778 -0.6465
13318TIP3    H161445   4.391   1.801   3.891 -0.2605 -1.1669 -0.0115
13318TIP3    H261446   4.432   1.782   3.747 -0.5310  0.8808 -0.3846
13319TIP3   OH261447   5.107   4.722   3.885 -0.2152  0.7673 -0.0250
13319TIP3    H161448   5.174   4.783   3.916  0.7205 -0.4308  0.3921
13319TIP3    H261449   5.110   4.650   3.948  0.5506 -0.9539 -1.9489
13320TIP3   OH261450   4.624   5.956   5.898  0.1358  0.0352 -0.5971
13320TIP3    H161451   4.718   5.972   5.903  0.0394  0.5622 -0.3340
13320TIP3    H261452   4.611   5.871   5.939  0.3934  0.3529  0.1454
13321TIP3   OH261453   5.569   1.170   1.323 -0.3272  0.4142 -0.3821
13321TIP3    H161454   5.493   1.219   1.354  0.2565  0.8327  0.4266
13321TIP3    H261455   5.634   1.237   1.300 -0.6188  0.1146 -2.2686
13322TIP3   OH261456   4.987   4.616   1.113  0.5668  0.3109  0.2926
13322TIP3    H161457   5.049   4.545   1.129  0.7606  0.8966  2.4739
13322TIP3    H261458   5.038   4.683   1.068  0.4538 -0.7305 -1.5280
13323TIP3   OH261459   2.272   2.788  10.634 -0.0820 -0.8090 -0.4225
13323TIP3    H161460   2.348   2.844  10.645 -1.0624  0.9495 -2.0115
13323TIP3    H261461   2.275   2.760  10.543 -3.2044  2.4590 -1.7920
13324TIP3   OH261462   2.247   5.671  12.676  0.6327 -0.6495  0.0377
13324TIP3    H161463   2.178   5.733  12.652  0.1572  0.3713  3.5368
13324TIP3    H261464   2.224   5.591  12.629 -2.4412 -0.0591  0.3125
13325TIP3   OH261465   4.789   4.546   3.948 -0.2063 -0.4945 -0.0113
13325TIP3    H161466   4.757   4.600   4.020  1.5981  0.2483  0.2972
13325TIP3    H261467   4.869   4.590   3.919  0.1889 -1.8865 -1.1394
13326TIP3   OH261468   3.984   1.558  13.456  0.0589 -0.7265 -0.1143
13326TIP3    H161469   3.901   1.606  13.462 -0.0096 -0.6350 -1.4436
13326TIP3    H261470   4.020   1.583  13.370  1.0357 -1.4475  0.0659
13327TIP3   OH261471   4.516   2.068   3.079  0.2321  0.3932 -0.7112
13327TIP3    H161472   4.602   2.025   3.084 -0.0580 -0.1236 -0.0601
13327TIP3    H261473   4.509   2.115   3.162  0.5053  1.6443 -1.3734
13328TIP3   OH261474   1.907   3.727  12.395 -0.3324  0.0352  0.0770
13328TIP3    H161475   1.897   3.745  12.488 -0.8127  2.4707 -0.3713
13328TIP3    H261476   1.827   3.681  12.370 -0.4384 -0.1471  0.7341
13329TIP3   OH261477   2.334   1.152  10.626 -0.0379 -0.3855 -0.0609
13329TIP3    H161478   2.307   1.109  10.544 -0.3791  1.2803 -0.8765
13329TIP3    H261479   2.291   1.238  10.622 -1.1141 -0.7343  2.5147
13330TIP3   OH261480   4.134   4.940  14.265  0.2308 -0.2954  0.4545
13330TIP3    H161481   4.118   5.032  14.282 -0.9417 -0.3566 -0.2240
13330TIP3    H261482   4.064   4.894  14.311 -0.8055 -0.6679 -1.4015
13331TIP3   OH261483   1.412   3.021   1.900  0.2821  0.2458  0.2880
13331TIP3    H161484   1.439   3.025   1.808 -2.1820  1.8365 -0.4456
13331TIP3    H261485   1.463   3.090   1.943  2.4760 -1.3883  0.5257
13332TIP3   OH261486   0.704   4.686   5.549 -0.8667  0.1739 -0.1067
13332TIP3    H161487   0.688   4.767   5.596 -1.9754  0.9632 -1.7499
13332TIP3    H261488   0.784   4.651   5.588  0.1241  2.4897  0.0906
13333TIP3   OH261489   4.380   5.150  11.076 -0.4948  0.3056  0.0074
13333TIP3    H161490   4.352   5.236  11.108  0.7288  0.3616  1.0044
13333TIP3    H261491   4.376   5.093  11.153 -0.6421 -0.3725 -0.4931
13334TIP3   OH261492   3.295   5.494   6.536 -0.2786 -0.4731  0.1382
13334TIP3    H161493   3.230   5.449   6.590  0.0213 -0.7465  0.2727
13334TIP3    H261494   3.287   5.586   6.561  0.0961 -0.6413  0.9052
13335TIP3   OH261495   6.255   1.513   5.294  0.4297 -0.1568 -0.0856
13335TIP3    H161496   6.299   1.462   5.226  0.6524 -1.2809  0.8750
13335TIP3    H261497   6.169   1.533   5.257  1.4222  1.4339 -1.6802
13336TIP3   OH261498   1.691   2.839  16.687  0.8104  0.0006 -0.3561
13336TIP3    H161499   1.620   2.889  16.729  0.9493  0.9371 -1.1951
13336TIP3    H261500   1.671   2.748  16.707  0.4466  0.3583  1.0839
13337TIP3   OH261501   1.966   3.401  16.051 -0.3303  0.3446 -0.6293
13337TIP3    H161502   1.887   3.411  16.104 -0.1530 -1.3396 -0.0026
13337TIP3    H261503   2.036   3.391  16.115  0.1667  0.2175 -1.1818
13338TIP3   OH261504   3.863   5.374  14.724 -0.1150  0.2548 -0.2060
13338TIP3    H161505   3.795   5.324  14.768 -0.1210 -1.2686 -1.8368
13338TIP3    H261506   3.944   5.351  14.770 -0.3365 -0.0067  0.0556
13339TIP3   OH261507   1.785   4.264  15.707 -0.3176  0.3557  0.1662
13339TIP3    H161508   1.772   4.174  15.736 -1.6377  0.5389  0.2183
13339TIP3    H261509   1.880   4.277  15.708 -0.1835 -0.5876  1.4803
13340TIP3   OH261510   2.345   4.115   3.086 -0.4014 -0.0953 -0.6387
13340TIP3    H161511   2.317   4.024   3.096 -0.9441  0.0876 -0.4910
13340TIP3    H261512   2.270   4.167   3.116  0.7802  0.3918  1.7260
13341TIP3   OH261513   5.980   2.097  12.442 -0.6014  0.6014 -0.4621
13341TIP3    H161514   5.904   2.104  12.385 -0.6161 -0.8217 -0.6501
13341TIP3    H261515   6.051   2.138  12.392 -0.8852  0.4862 -0.9678
13342TIP3   OH261516   5.023   5.641   4.841 -0.1303 -0.0868  0.2015
13342TIP3    H161517   5.037   5.578   4.912  0.3034 -0.5842 -0.3186
13342TIP3    H261518   4.983   5.591   4.771 -0.2831  0.3397 -0.0216
13343TIP3   OH261519   5.885   1.007   3.897 -0.4282  0.4857  0.0693
13343TIP3    H161520   5.816   1.058   3.940  0.1202  0.5726  0.8780
13343TIP3    H261521   5.930   0.963   3.969 -0.9438 -1.2325 -0.6145
13344TIP3   OH261522   1.872   5.979  13.496  0.0904  0.1337 -0.6356
13344TIP3    H161523   1.813   5.903  13.493 -0.3815  0.5313 -1.8638
13344TIP3    H261524   1.850   6.021  13.579 -0.6912 -0.2561 -0.6301
13345TIP3   OH261525   2.092   5.761   3.702 -0.2474  0.0933 -0.4138
13345TIP3    H161526   2.140   5.765   3.619 -2.1341  0.4039 -1.5590
13345TIP3    H261527   2.065   5.852   3.718 -0.5986 -0.0972  0.0968
13346TIP3   OH261528   3.993   5.740   0.700  0.2336  0.0974 -0.2284
13346TIP3    H161529   4.058   5.804   0.729 -0.3659  0.2618  0.8180
13346TIP3    H261530   4.044   5.670   0.659  1.4877 -1.5657  3.7396
13347TIP3   OH261531   6.133   5.963   0.810  0.7536  0.0610 -0.1195
13347TIP3    H161532   6.119   5.888   0.753 -2.2883  0.2872  0.1301
13347TIP3    H261533   6.157   5.925   0.895  0.9315 -0.5124 -0.4222
13348TIP3   OH261534   5.301   0.263  12.654  0.3070 -0.0353  0.7205
13348TIP3    H161535   5.305   0.169  12.674 -0.6181 -0.0415  0.9161
13348TIP3    H261536   5.281   0.304  12.738  2.4471  0.5226  1.0067
13349TIP3   OH261537   5.903   5.765   5.812 -0.2416  0.6210  0.5244
13349TIP3    H161538   5.961   5.837   5.837  0.9634 -0.3751  0.7087
13349TIP3    H261539   5.839   5.760   5.882  1.3094 -0.2174  1.9467
13350TIP3   OH261540   3.345   2.996   5.720  0.5383  0.2150  1.0053
13350TIP3    H161541   3.422   3.012   5.775  0.7155  0.5726  0.6608
13350TIP3    H261542   3.363   3.044   5.639 -1.0186  2.1593  1.7364
13351TIP3   OH261543   3.930   0.338   6.524 -0.4696 -0.3464  0.0619
13351TIP3    H161544   3.858   0.275   6.530 -0.5759 -0.6551 -2.9163
13351TIP3    H261545   4.008   0.284   6.512 -0.1413  0.0457  0.4117
13352TIP3   OH261546   4.614   5.627  13.109 -0.4530 -0.5797  0.1342
13352TIP3    H161547   4.568   5.640  13.026 -1.1358 -0.0258  0.5791
13352TIP3    H261548   4.661   5.709  13.124 -0.0548 -0.8036  0.1342
13353TIP3   OH261549   0.846   3.185  15.462 -0.2112 -0.4074 -0.0405
13353TIP3    H161550   0.801   3.237  15.396 -0.1714 -0.9280 -0.4906
13353TIP3    H261551   0.818   3.095  15.444  0.3324 -0.6311  0.2240
13354TIP3   OH261552   5.330   1.889  14.414 -0.1764 -0.3109  0.5418
13354TIP3    H161553   5.384   1.824  14.368  1.5551  1.3734  0.0659
13354TIP3    H261554   5.261   1.911  14.352  0.7657  0.1978 -0.3600
13355TIP3   OH261555   2.788   1.627  16.843 -0.2031  0.5573  0.0574
13355TIP3    H161556   2.739   1.664  16.770  2.0507 -0.3492 -2.0515
13355TIP3    H261557   2.845   1.698  16.872 -0.1002  0.5078 -0.0212
13356TIP3   OH261558   3.292   6.456   2.241 -0.5149 -0.2976  0.9331
13356TIP3    H161559   3.282   6.374   2.193 -0.5754  0.7375 -0.9211
13356TIP3    H261560   3.203   6.483   2.263 -0.5595 -0.2718  0.7220
13357TIP3   OH261561   6.533   4.334  14.880 -0.1654 -0.9774 -0.3404
13357TIP3    H161562   6.463   4.312  14.818 -1.1979 -1.6766  1.0095
13357TIP3    H261563   6.556   4.249  14.919  1.5407 -0.7686 -0.8490
13358TIP3   OH261564   3.765   0.726   6.251  0.5702 -0.0076  0.1868
13358TIP3    H161565   3.772   0.811   6.207 -0.2616 -0.7447 -1.4349
13358TIP3    H261566   3.680   0.729   6.295  0.0470 -0.3971 -0.7812
13359TIP3   OH261567   0.451   6.696  16.701 -0.1148  0.3851 -0.6717
13359TIP3    H161568   0.426   6.755  16.772  0.1850  2.2464 -2.0344
13359TIP3    H261569   0.502   6.627  16.744 -0.7155  0.9427  1.0213
13360TIP3   OH261570   0.066   4.225  15.541 -0.1457 -0.5213  0.3897
13360TIP3    H161571  -0.027   4.234  15.558 -0.5892 -2.7179 -0.5412
13360TIP3    H261572   0.095   4.154  15.598  0.4828 -1.2459 -0.7761
13361TIP3   OH261573   2.937   2.392   0.727 -0.6381  0.2144 -0.1133
13361TIP3    H161574   2.959   2.485   0.724  0.1202  0.0287 -1.6845
13361TIP3    H261575   2.946   2.368   0.819  0.8442  1.3311  0.0693
13362TIP3   OH261576   4.828   3.951   1.231 -0.0034  0.3119 -0.1704
13362TIP3    H161577   4.855   4.039   1.203  0.2625  0.0460 -0.7709
13362TIP3    H261578   4.908   3.911   1.264 -0.5073  0.9752  1.9875
13363TIP3   OH261579   5.147   2.067  15.588 -0.8164 -0.1074  0.1255
13363TIP3    H161580   5.058   2.036  15.600 -1.4847  1.5271 -0.3850
13363TIP3    H261581   5.150   2.099  15.497  0.2567 -0.0659  0.1613
13364TIP3   OH261582   6.401   1.676  14.517  0.2781 -0.0685  0.3507
13364TIP3    H161583   6.440   1.717  14.440 -1.5725  0.2513 -0.4585
13364TIP3    H261584   6.432   1.585  14.514  2.3880  0.5671  0.7811
13365TIP3   OH261585   6.691   0.312   4.209 -0.0176  0.4902  0.2610
13365TIP3    H161586   6.785   0.317   4.227  0.0125 -3.5719  2.2388
13365TIP3    H261587   6.657   0.399   4.233  3.0024  1.7262  0.4638
13366TIP3   OH261588   1.142   0.546  10.857 -0.0801 -0.5129 -0.6411
13366TIP3    H161589   1.164   0.533  10.764 -3.1764  0.1744 -1.6049
13366TIP3    H261590   1.089   0.470  10.880 -1.0699  0.2891 -0.1232
13367TIP3   OH261591   5.093   0.750  14.673 -0.4728  0.0329  0.0042
13367TIP3    H161592   5.014   0.728  14.722  0.1137 -0.7912  0.6112
13367TIP3    H261593   5.115   0.670  14.626 -0.3650  0.4622 -0.6859
13368TIP3   OH261594   2.492   4.769  17.067  0.0759  0.2116 -0.1842
13368TIP3    H161595   2.443   4.845  17.098 -0.9779 -1.1648  1.7983
13368TIP3    H261596   2.432   4.695  17.078  2.0163 -1.3369  0.8116
13369TIP3   OH261597   6.455   3.009  15.188  0.5841  0.3256  0.0553
13369TIP3    H161598   6.538   3.031  15.231  0.7357 -0.5280  0.2211
13369TIP3    H261599   6.480   2.949  15.117  0.0535 -0.4585  0.5174
13370TIP3   OH261600   2.735   6.855  11.291 -0.3502 -0.0395 -0.4782
13370TIP3    H161601   2.679   6.798  11.344  1.2405 -0.2382  1.0948
13370TIP3    H261602   2.806   6.798  11.263  1.8902  1.2833  2.0669
13371TIP3   OH261603   6.509   5.784   5.908  0.1820 -0.3318  0.6488
13371TIP3    H161604   6.475   5.815   5.824  2.5184 -1.1623 -0.6969
13371TIP3    H261605   6.451   5.712   5.933  1.5781 -2.6958 -2.3172
13372TIP3   OH261606   0.056   6.547  16.905  0.1901 -0.0076 -0.0159
13372TIP3    H161607  -0.011   6.507  16.850  0.5206 -0.8419  0.1841
13372TIP3    H261608   0.136   6.498  16.887  0.8256  1.1489 -0.4485
13373TIP3   OH261609   5.866   4.502  13.059 -0.7097  0.0746 -0.2664
13373TIP3    H161610   5.888   4.490  12.967  0.7070  0.3324  0.0127
13373TIP3    H261611   5.937   4.459  13.106 -1.7753 -0.6581  0.7207
13374TIP3   OH261612   3.470   1.795  11.023 -0.1661 -0.1604 -0.2179
13374TIP3    H161613   3.540   1.805  11.087 -1.5470 -2.2742  1.7490
13374TIP3    H261614   3.501   1.843  10.946  1.8693  1.8832  1.7404
13375TIP3   OH261615   0.047   6.216   2.619  0.4203 -0.2248 -0.5586
13375TIP3    H161616  -0.030   6.185   2.572  0.5568 -0.7450 -0.4443
13375TIP3    H261617   0.047   6.311   2.605 -0.5590 -0.1465 -0.0654
13376TIP3   OH261618   0.673   6.654  14.199 -0.2623 -0.0907 -0.1201
13376TIP3    H161619   0.680   6.643  14.294 -0.5576  0.3202 -0.0474
13376TIP3    H261620   0.580   6.642  14.180 -0.3232  0.5267 -0.2554
13377TIP3   OH261621   0.071   6.510   2.642 -0.5173 -0.0271 -0.2756
13377TIP3    H161622   0.042   6.581   2.584 -1.5636  0.1816  0.4761
13377TIP3    H261623   0.098   6.555   2.722 -1.4492 -0.4728  0.3131
13378TIP3   OH261624   0.116   0.938  14.203 -1.1284  0.1871  0.0766
13378TIP3    H161625   0.080   0.972  14.121  0.3687  2.3292  0.2331
13378TIP3    H261626   0.071   0.988  14.272  0.0048  0.7916  0.3926
13379TIP3   OH261627   4.573   5.012   3.926 -0.1838  0.2689  0.5976
13379TIP3    H161628   4.506   4.944   3.932 -0.1640  0.1748 -0.2128
13379TIP3    H261629   4.535   5.079   3.869  0.8023 -0.2696 -0.7452
13380TIP3   OH261630   3.264   3.678   3.422 -0.0448  0.1223  0.5744
13380TIP3    H161631   3.200   3.742   3.453  1.2477  0.8342  1.8918
13380TIP3    H261632   3.314   3.724   3.355  0.7007  0.3948  1.3177
13381TIP3   OH261633   4.468   2.069   6.330  0.6874  0.2912  0.0651
13381TIP3    H161634   4.390   2.037   6.375 -0.3478  2.6439  0.0740
13381TIP3    H261635   4.541   2.046   6.389 -0.2411  0.0536  1.1561
13382TIP3   OH261636   1.538   4.857   2.463  0.4269 -0.3858 -0.0214
13382TIP3    H161637   1.567   4.848   2.372  0.1365  0.8435 -0.2495
13382TIP3    H261638   1.615   4.834   2.515  0.2809 -2.1692 -0.5463
13383TIP3   OH261639   3.689   4.185   1.538 -0.2968 -0.3755  0.3028
13383TIP3    H161640   3.594   4.178   1.528 -0.1019 -1.0884 -1.2171
13383TIP3    H261641   3.715   4.253   1.475  0.3243 -1.0107 -0.1441
13384TIP3   OH261642   1.054   5.400   0.488  0.2927  0.3139 -0.1660
13384TIP3    H161643   1.129   5.350   0.521  0.1467  0.7851  0.9473
13384TIP3    H261644   1.090   5.455   0.418  1.0101  0.5563  0.3768
13385TIP3   OH261645   5.109   2.390  16.950 -0.1214 -0.0783  0.4424
13385TIP3    H161646   5.026   2.350  16.924 -0.5726  0.1781  1.4575
13385TIP3    H261647   5.154   2.321  16.999  0.3955 -0.3111 -0.3469
13386TIP3   OH261648   6.241   4.995  11.171  0.4039 -0.4813  0.2482
13386TIP3    H161649   6.303   5.051  11.216 -0.0715  0.4349 -0.2025
13386TIP3    H261650   6.253   5.016  11.078  0.3888 -1.3171  0.0436
13387TIP3   OH261651   3.849   2.779   4.561 -0.2859  0.3635 -0.4189
13387TIP3    H161652   3.845   2.693   4.604  1.9370 -0.2028 -1.1913
13387TIP3    H261653   3.764   2.790   4.521 -1.1807 -0.7227  1.0737
13388TIP3   OH261654   4.830   0.149   4.704 -0.4597  0.1696 -0.0040
13388TIP3    H161655   4.876   0.071   4.736 -0.4146  1.4787  3.6606
13388TIP3    H261656   4.898   0.205   4.668 -0.5467 -1.5346 -3.0789
13389TIP3   OH261657   4.711   4.593   4.520  0.3307 -0.4982 -0.0213
13389TIP3    H161658   4.630   4.605   4.570  0.0133  0.5297 -0.7471
13389TIP3    H261659   4.763   4.532   4.573  0.2129  0.9086  1.8350
13390TIP3   OH261660   2.412   6.813   4.419  0.2690 -0.2534 -0.2841
13390TIP3    H161661   2.355   6.824   4.495  1.6021 -0.2616  0.7720
13390TIP3    H261662   2.360   6.842   4.345 -0.0789  2.7136  1.0072
13391TIP3   OH261663   2.411   1.035   3.733 -0.1541 -0.3464  0.0394
13391TIP3    H161664   2.324   1.070   3.713 -0.4458 -0.7781  0.5559
13391TIP3    H261665   2.401   0.988   3.815  0.8394  0.6497  0.7660
13392TIP3   OH261666   3.223   4.637   5.150  0.3687  0.0508  0.1227
13392TIP3    H161667   3.208   4.556   5.101 -1.6471  0.3804  0.1379
13392TIP3    H261668   3.254   4.607   5.236 -0.6900 -0.7458  0.2494
13393TIP3   OH261669   4.362   3.507   4.302 -0.7480 -0.1110 -0.1587
13393TIP3    H161670   4.277   3.484   4.338 -0.4691 -2.2301 -0.7061
13393TIP3    H261671   4.411   3.425   4.302  0.8348  0.7845 -1.0783
13394TIP3   OH261672   1.864   6.378  13.457 -0.3376  0.0965 -0.1721
13394TIP3    H161673   1.939   6.319  13.446 -0.5950 -0.5332  1.2672
13394TIP3    H261674   1.903   6.465  13.465  0.2574 -0.2203  0.5032
13395TIP3   OH261675   3.804   0.478   6.130  0.2768 -0.3498 -0.2654
13395TIP3    H161676   3.782   0.538   6.201 -0.2147  0.1610 -0.8309
13395TIP3    H261677   3.759   0.397   6.152  0.5308 -0.3551  0.2524
13396TIP3   OH261678   2.393   1.075   1.637  0.4116 -0.5917  0.3733
13396TIP3    H161679   2.390   1.015   1.711  0.2941  0.8623  1.5860
13396TIP3    H261680   2.458   1.140   1.662 -0.5457  0.6283 -0.2359
13397TIP3   OH261681   1.430   0.592  12.916  0.2565 -0.1233 -0.1197
13397TIP3    H161682   1.441   0.497  12.907  3.2039  0.0957  0.3511
13397TIP3    H261683   1.477   0.614  12.996 -0.1996  1.7936 -0.3347
13398TIP3   OH261684   4.763   6.221   0.453  0.4084 -0.1094  0.3171
13398TIP3    H161685   4.758   6.298   0.396 -2.5430  0.7489  1.5580
13398TIP3    H261686   4.700   6.159   0.416  1.1333 -1.0413  0.6066
13399TIP3   OH261687   3.644   0.672   3.579 -0.3292 -0.1929 -0.7147
13399TIP3    H161688   3.602   0.589   3.603  0.2157  0.3681  2.6155
13399TIP3    H261689   3.572   0.734   3.572 -0.5860 -0.5648 -1.4736
13400TIP3   OH261690   0.438   1.519  15.146  0.6016  0.1457  0.3264
13400TIP3    H161691   0.528   1.536  15.119  0.4556 -0.4805 -0.6382
13400TIP3    H261692   0.385   1.548  15.071  0.2518 -2.7575 -0.7046
13401TIP3   OH261693   1.300   4.749  16.930 -0.9057  0.2696 -0.8413
13401TIP3    H161694   1.354   4.688  16.979 -1.1046  0.0861 -0.8490
13401TIP3    H261695   1.363   4.806  16.885 -0.7143 -0.4458 -1.4831
13402TIP3   OH261696   3.203   3.755   4.467 -0.6392 -0.0122 -0.1097
13402TIP3    H161697   3.265   3.798   4.526 -1.5383  1.7318 -0.3694
13402TIP3    H261698   3.173   3.679   4.516 -0.1154  0.4720  1.0146
13403TIP3   OH261699   2.509   3.225  13.809  0.0693 -0.1036 -0.1228
13403TIP3    H161700   2.549   3.312  13.817  3.2500 -1.4541  0.0651
13403TIP3    H261701   2.491   3.215  13.716  0.2631  0.5197 -0.2332
13404TIP3   OH261702   3.410   0.959  13.400  0.3268 -0.2494  0.0524
13404TIP3    H161703   3.452   1.017  13.464  0.5872  0.8730 -1.0753
13404TIP3    H261704   3.477   0.949  13.331 -0.5049 -0.1049 -0.7946
13405TIP3   OH261705   5.873   1.297   3.166  0.3533 -0.0430 -0.1523
13405TIP3    H161706   5.878   1.393   3.172  1.2915 -0.1767  1.7845
13405TIP3    H261707   5.952   1.272   3.118 -0.2034  0.1665 -1.2094
13406TIP3   OH261708   0.245   0.197  11.186 -0.0411  0.2530  0.1056
13406TIP3    H161709   0.209   0.128  11.130  1.9047 -0.5001 -0.2789
13406TIP3    H261710   0.273   0.265  11.125  1.3781 -0.2348  0.1730
13407TIP3   OH261711   5.924   6.674   1.650  0.2797 -0.2824 -0.0498
13407TIP3    H161712   5.925   6.763   1.685  1.0139 -0.9067  1.6434
13407TIP3    H261713   5.843   6.669   1.598  0.2076  1.3346 -0.1380
13408TIP3   OH261714   2.208   5.575  16.193  0.2603 -0.2690  0.1967
13408TIP3    H161715   2.287   5.608  16.236  0.5932 -1.9023  0.9365
13408TIP3    H261716   2.168   5.518  16.258 -2.0747  1.2158  0.1814
13409TIP3   OH261717   0.165   6.818   3.034 -0.3058  0.2257  0.0066
13409TIP3    H161718   0.127   6.905   3.033  0.6942  0.6768 -1.0324
13409TIP3    H261719   0.206   6.810   3.120  1.0793  1.4747 -0.4924
13410TIP3   OH261720   2.380   2.119  12.267  0.2248 -0.2108 -0.5781
13410TIP3    H161721   2.291   2.154  12.277 -0.1303 -1.5085  1.3277
13410TIP3    H261722   2.437   2.189  12.298 -0.2453  0.1083 -0.4215
13411TIP3   OH261723   5.829   5.244  12.502  0.0871 -0.1558  0.5403
13411TIP3    H161724   5.917   5.229  12.535  0.2921 -2.9074 -1.0011
13411TIP3    H261725   5.841   5.311  12.434  1.2674 -1.4357 -0.5721
13412TIP3   OH261726   1.468   3.323   1.358 -0.0457  0.1675  0.1050
13412TIP3    H161727   1.494   3.414   1.340 -0.3950  0.9022  2.9269
13412TIP3    H261728   1.543   3.285   1.403 -0.2613 -0.6614 -0.2293
13413TIP3   OH261729   1.411   0.856   5.247 -0.3529 -1.1549 -0.1086
13413TIP3    H161730   1.375   0.888   5.330  2.5861  1.5448  0.3337
13413TIP3    H261731   1.352   0.889   5.180 -1.1600 -0.7892  0.7620
13414TIP3   OH261732   3.701   4.685  15.086  0.5043 -0.8292  0.0229
13414TIP3    H161733   3.627   4.698  15.027  0.0424 -4.4305 -0.4658
13414TIP3    H261734   3.662   4.670  15.172  0.7201 -1.5578  0.0011
13415TIP3   OH261735   1.524   3.453  12.154  0.2001  0.5413 -0.4471
13415TIP3    H161736   1.432   3.425  12.155  0.4141 -0.1476 -0.0998
13415TIP3    H261737   1.568   3.390  12.099  0.9444 -0.6910  1.4643
13416TIP3   OH261738   3.010   1.750  12.490  0.0877  0.3121  0.1444
13416TIP3    H161739   2.988   1.679  12.550 -0.2418  0.4869  0.2297
13416TIP3    H261740   2.945   1.818  12.507 -0.8122 -0.1329 -1.2809
13417TIP3   OH261741   3.657   4.049  15.392  0.9626  0.1992  0.5521
13417TIP3    H161742   3.696   3.985  15.334 -0.9285  1.4545 -2.3523
13417TIP3    H261743   3.684   4.134  15.357  0.3849  1.0357  2.0012
13418TIP3   OH261744   4.041   4.459   2.599 -0.2455  0.0008  0.0882
13418TIP3    H161745   4.054   4.433   2.508  1.2951  2.7932 -0.6177
13418TIP3    H261746   3.957   4.504   2.599  0.3919  1.2426 -0.3308
13419TIP3   OH261747   0.039   4.404   2.888  0.0275  0.1432  0.0524
13419TIP3    H161748   0.006   4.419   2.977 -0.6029  1.0166 -0.3105
13419TIP3    H261749   0.079   4.487   2.863 -1.9237  0.7434 -1.3489
13420TIP3   OH261750   2.493   6.612   1.191  0.0509  0.3070  0.2709
13420TIP3    H161751   2.431   6.679   1.219  0.9745  0.9185  0.9316
13420TIP3    H261752   2.523   6.571   1.273 -0.4329 -0.8680 -0.1194
13421TIP3   OH261753   5.217   1.926   2.948 -0.3554  0.2893  0.9801
13421TIP3    H161754   5.200   1.834   2.968 -0.0053  0.3526  1.5904
13421TIP3    H261755   5.254   1.961   3.028 -2.4964  1.5241  1.4903
13422TIP3   OH261756   6.653   3.725   4.860  0.3133 -0.2917  0.4595
13422TIP3    H161757   6.663   3.755   4.951 -2.9868  0.1823  0.7888
13422TIP3    H261758   6.639   3.805   4.810  0.3116 -0.6884 -0.1831
13423TIP3   OH261759   5.046   3.433   2.469 -0.4863  0.1391  0.6984
13423TIP3    H161760   4.961   3.389   2.480  0.0139 -1.3282 -0.8809
13423TIP3    H261761   5.102   3.367   2.429  0.4481  2.0661 -1.3846
13424TIP3   OH261762   6.122   6.505   3.713  0.5565  0.2855  0.6961
13424TIP3    H161763   6.197   6.456   3.679 -0.2988 -2.5414  2.5380
13424TIP3    H261764   6.160   6.587   3.744  1.9302  1.4134 -3.2696
13425TIP3   OH261765   0.645   3.706   4.202 -0.3282  0.7887  0.6049
13425TIP3    H161766   0.591   3.756   4.140  0.5771  0.8551 -0.1601
13425TIP3    H261767   0.646   3.617   4.166 -0.1326  0.7337  0.7447
13426TIP3   OH261768   2.469   5.796  12.590  0.6171 -0.2118 -0.0874
13426TIP3    H161769   2.508   5.774  12.674  0.5438  0.0260  0.0087
13426TIP3    H261770   2.400   5.731  12.577 -0.3009  0.5789  0.6820
13427TIP3   OH261771   0.661   5.274  14.020 -0.5911  0.0254  0.0629
13427TIP3    H161772   0.692   5.292  14.108 -1.0926 -1.2241  0.5148
13427TIP3    H261773   0.738   5.286  13.964  0.0126 -0.3009  0.8129
13428TIP3   OH261774   1.423   3.698  11.206 -0.2437  0.6086  0.4394
13428TIP3    H161775   1.398   3.789  11.190 -0.5010  0.5061  0.2518
13428TIP3    H261776   1.409   3.687  11.300 -2.5833  0.0724  0.0880
13429TIP3   OH261777   3.962   4.197   4.907  0.4571  0.0579  0.1953
13429TIP3    H161778   3.886   4.185   4.964  0.0722  0.6748 -0.1707
13429TIP3    H261779   4.000   4.110   4.899  1.1795  0.1479  2.2646
13430TIP3   OH261780   0.808   3.893  16.275 -0.0206  1.3592  0.6123
13430TIP3    H161781   0.834   3.980  16.305 -1.9244  2.1825  0.0447
13430TIP3    H261782   0.746   3.863  16.341  1.8677 -0.3787  1.7231
13431TIP3   OH261783   3.471   1.783   3.500 -0.0888 -0.0694  0.0268
13431TIP3    H161784   3.498   1.774   3.591  0.5878 -0.2472 -0.1845
13431TIP3    H261785   3.533   1.845   3.462  0.6926 -1.2534 -0.7224
13432TIP3   OH261786   4.302   5.774   3.437 -0.0065  0.0946 -0.6049
13432TIP3    H161787   4.359   5.703   3.466  0.2333  0.7508  0.5812
13432TIP3    H261788   4.307   5.770   3.342  0.4614 -1.1010 -0.5603
13433TIP3   OH261789   0.030   6.426   3.045 -0.4758  0.3426 -0.5588
13433TIP3    H161790   0.063   6.490   2.982  2.1722  0.5080  0.8517
13433TIP3    H261791   0.020   6.474   3.127 -0.7792 -0.5402 -0.0579
13434TIP3   OH261792   4.513   6.213   2.412 -0.4197  0.2204 -0.0261
13434TIP3    H161793   4.443   6.279   2.419  0.1326  1.2150 -2.6382
13434TIP3    H261794   4.475   6.144   2.358  0.2885  0.3098 -0.6498
13435TIP3   OH261795   6.255   2.910   0.889  0.2803  0.0450  0.1657
13435TIP3    H161796   6.217   2.870   0.967  1.3715 -0.0571  0.6708
13435TIP3    H261797   6.346   2.927   0.913  1.1920 -1.7361 -1.6766
13436TIP3   OH261798   1.534   5.893   5.758 -0.9920  0.7180  0.1223
13436TIP3    H161799   1.558   5.843   5.679  1.6149  2.5856 -0.3981
13436TIP3    H261800   1.475   5.834   5.806 -0.3581 -1.6725 -1.8015
13437TIP3   OH261801   0.241   2.972   5.469 -0.0967  0.7659 -0.5839
13437TIP3    H161802   0.245   2.961   5.375  2.1237  1.7514 -0.6788
13437TIP3    H261803   0.269   3.063   5.484 -1.3508  0.9517  0.9804
13438TIP3   OH261804   1.573   0.207  12.479  0.4777  0.1755  0.0478
13438TIP3    H161805   1.573   0.231  12.571 -0.5761 -2.5041  0.8523
13438TIP3    H261806   1.665   0.210  12.453  0.8668  0.3759  1.3705
13439TIP3   OH261807   1.911   4.200  11.620 -0.2235  0.0788  0.0397
13439TIP3    H161808   1.888   4.220  11.711 -1.7434 -1.1619 -0.0375
13439TIP3    H261809   1.992   4.249  11.605 -0.8087  1.6172  1.5406
13440TIP3   OH261810   4.301   1.962  13.624 -0.6076 -0.2819  0.0675
13440TIP3    H161811   4.250   1.988  13.548 -0.8165  0.9387  0.6084
13440TIP3    H261812   4.311   2.042  13.675  0.7414 -0.7708  0.6244
13441TIP3   OH261813   2.958   6.723  13.198  0.5697  0.3492 -0.3503
13441TIP3    H161814   3.038   6.717  13.145  0.3698  2.1515 -0.9574
13441TIP3    H261815   2.899   6.776  13.145 -0.8041 -0.4029  0.3789
13442TIP3   OH261816   6.209   1.878  15.507 -0.3388 -0.0933  0.4010
13442TIP3    H161817   6.279   1.827  15.547  0.1027 -0.5434 -0.8777
13442TIP3    H261818   6.249   1.916  15.428 -1.1856  0.6917  0.3229
13443TIP3   OH261819   4.249   1.485  13.307 -0.4022  0.5627 -0.0519
13443TIP3    H161820   4.267   1.539  13.385  0.3977  1.1761 -0.6355
13443TIP3    H261821   4.327   1.431  13.297 -0.6867  0.1762 -0.1738
13444TIP3   OH261822   6.098   6.635   5.459  0.4688  0.0880  0.0340
13444TIP3    H161823   6.169   6.622   5.522  0.4800  2.0373  0.4857
13444TIP3    H261824   6.018   6.623   5.511  0.4775  0.3569  0.1116
13445TIP3   OH261825   0.979   5.167  14.323  0.6048 -0.0933  0.3159
13445TIP3    H161826   1.064   5.127  14.343 -0.4142 -1.8258  1.5353
13445TIP3    H261827   0.915   5.107  14.363 -1.1704  1.3872 -0.1781
13446TIP3   OH261828   3.451   1.101  16.643  0.0447  0.1963  0.2050
13446TIP3    H161829   3.452   1.014  16.683  1.5070  0.4929  0.8435
13446TIP3    H261830   3.537   1.110  16.601 -1.3076 -0.0299 -2.9480
13447TIP3   OH261831   4.086   2.258   1.819  0.0413 -0.5050  0.1218
13447TIP3    H161832   4.005   2.303   1.843  0.0795 -0.7977  0.8141
13447TIP3    H261833   4.062   2.166   1.813  0.0551 -0.4514 -0.8944
13448TIP3   OH261834   2.822   5.565  12.345  0.6194 -0.0289  0.2953
13448TIP3    H161835   2.819   5.564  12.250 -0.0425  0.2804  0.3088
13448TIP3    H261836   2.868   5.646  12.367  1.2725 -0.3767  0.2354
13449TIP3   OH261837   1.893   2.701  10.551  0.0546  0.5127 -0.3395
13449TIP3    H161838   1.815   2.686  10.605 -1.0736  1.7140 -1.5749
13449TIP3    H261839   1.866   2.767  10.488  2.0503  0.8351 -0.9075
13450TIP3   OH261840   0.014   5.255  15.191  0.8219  0.2944 -0.1310
13450TIP3    H161841  -0.034   5.257  15.109  1.3242 -1.2681 -0.4878
13450TIP3    H261842  -0.053   5.269  15.259  0.2764  0.6999 -0.7430
13451TIP3   OH261843   6.715   2.767  16.941  0.3368  0.1574  0.2918
13451TIP3    H161844   6.795   2.718  16.923  0.6165  1.4020 -2.2658
13451TIP3    H261845   6.744   2.842  16.994  0.4512 -0.5696  1.2892
13452TIP3   OH261846   2.512   4.086   4.216 -0.0976  0.2670 -0.2951
13452TIP3    H161847   2.461   4.048   4.143 -0.7438  0.9113 -0.1850
13452TIP3    H261848   2.447   4.126   4.272  0.4165 -0.1036  0.5843
13453TIP3   OH261849   1.865   6.198  16.768 -0.2525 -0.0144  0.7150
13453TIP3    H161850   1.786   6.145  16.768  0.3397 -0.9273 -0.0404
13453TIP3    H261851   1.834   6.288  16.756 -1.0688 -0.5900 -2.0354
13454TIP3   OH261852   3.558   3.128   0.597  0.1467 -0.3374  0.0692
13454TIP3    H161853   3.514   3.046   0.573 -0.3590  0.0398 -0.3178
13454TIP3    H261854   3.632   3.101   0.651  0.6260 -1.1364 -0.9459
13455TIP3   OH261855   5.489   2.732   3.875 -0.3031 -0.1468  0.5211
13455TIP3    H161856   5.579   2.764   3.887  0.3612 -2.2870  1.8219
13455TIP3    H261857   5.463   2.764   3.789  1.7301  0.5198  0.1104
13456TIP3   OH261858   4.498   4.518  17.017 -0.2888 -0.1618 -0.4922
13456TIP3    H161859   4.582   4.496  16.976  1.2579  2.4190  1.0215
13456TIP3    H261860   4.496   4.613  17.019 -2.1170 -0.1535  1.7705
13457TIP3   OH261861   2.218   5.392  14.808  0.1895 -0.3119 -0.7368
13457TIP3    H161862   2.152   5.390  14.740 -0.4203  1.9084 -0.2785
13457TIP3    H261863   2.288   5.447  14.772 -0.2648  1.1285  0.4620
13458TIP3   OH261864   1.127   1.106  12.868  0.0242  0.0476  0.1762
13458TIP3    H161865   1.080   1.049  12.808  1.2037  0.0572 -0.7832
13458TIP3    H261866   1.125   1.059  12.952 -1.0640 -0.2688 -0.0107
13459TIP3   OH261867   0.154   6.534  13.661  0.0524 -0.0049  0.0549
13459TIP3    H161868   0.222   6.579  13.712 -1.0199 -0.4854  2.0327
13459TIP3    H261869   0.178   6.441  13.665 -0.6138 -0.1590  0.6291
13460TIP3   OH261870   1.708   3.789  16.341  0.2321  0.8141  0.1550
13460TIP3    H161871   1.668   3.701  16.338  1.1581  0.3110  1.6019
13460TIP3    H261872   1.668   3.830  16.418 -0.8950  2.0460 -1.0467
13461TIP3   OH261873   5.211   1.576  14.499  0.1658  0.3206  0.0116
13461TIP3    H161874   5.229   1.513  14.569 -1.0764 -1.7948 -1.4666
13461TIP3    H261875   5.132   1.622  14.528  0.5888  0.6225  0.7142
13462TIP3   OH261876   2.655   0.391  16.168  0.2325  0.0502 -0.0766
13462TIP3    H161877   2.627   0.348  16.250 -0.3071 -0.6256 -0.6013
13462TIP3    H261878   2.574   0.423  16.129  0.5349  0.7267 -0.1553
13463TIP3   OH261879   4.872   4.917   4.553 -0.2816  0.2442  0.2345
13463TIP3    H161880   4.847   4.888   4.641  0.9623  0.8053  0.7876
13463TIP3    H261881   4.818   4.995   4.538  0.9826  1.3967  1.3890
13464TIP3   OH261882   3.297   2.858  14.021 -0.0860  0.7145  0.4050
13464TIP3    H161883   3.335   2.946  14.020  1.2247  0.2417  2.3151
13464TIP3    H261884   3.361   2.804  13.974  0.4587  0.3433  1.5359
13465TIP3   OH261885   6.828   5.015  13.906 -0.7471 -0.2359  0.2665
13465TIP3    H161886   6.752   5.017  13.964 -1.7532 -2.0305 -0.9150
13465TIP3    H261887   6.830   4.926  13.870  0.5235  0.4489 -1.5495
13466TIP3   OH261888   0.549   5.976   2.883 -0.0366  0.0378  0.2823
13466TIP3    H161889   0.622   5.938   2.834 -0.0548 -0.6880  0.8148
13466TIP3    H261890   0.488   6.004   2.815  0.0010 -0.8400 -0.1299
13467TIP3   OH261891   0.276   4.213  12.356  0.6066  0.0903 -0.0570
13467TIP3    H161892   0.291   4.298  12.398 -0.8687  0.0224  0.6311
13467TIP3    H261893   0.306   4.149  12.420  2.6830  0.0484 -0.9653
13468TIP3   OH261894   2.190   4.274   2.088  0.2706 -0.3333 -0.6511
13468TIP3    H161895   2.203   4.230   2.172 -0.1229  1.3420  0.3281
13468TIP3    H261896   2.115   4.230   2.050 -0.6450 -0.0024  0.6959
13469TIP3   OH261897   6.461   3.949  13.076  0.0638  0.0966 -0.0711
13469TIP3    H161898   6.383   3.895  13.067 -0.5473  0.5557  1.9181
13469TIP3    H261899   6.431   4.038  13.056  0.1802  0.2097  0.2506
13470TIP3   OH261900   6.085   5.577   6.147  0.6312 -0.1523 -0.2787
13470TIP3    H161901   6.057   5.622   6.227  2.2310  1.6636 -0.6751
13470TIP3    H261902   6.149   5.512   6.177  1.3765  0.6587 -0.0647
13471TIP3   OH261903   6.606   4.676  11.430 -0.1263  0.0240 -0.3533
13471TIP3    H161904   6.635   4.688  11.340 -1.2977 -0.0777 -0.7650
13471TIP3    H261905   6.601   4.581  11.441 -0.6608  0.0417 -0.4162
13472TIP3   OH261906   3.464   6.618   1.994  0.0256 -0.1255 -0.2427
13472TIP3    H161907   3.403   6.643   2.063 -1.2851  1.5536 -1.8921
13472TIP3    H261908   3.407   6.595   1.920  1.3738 -1.3986 -0.9362
13473TIP3   OH261909   6.435   2.692   2.778  0.4779 -0.3000  0.7598
13473TIP3    H161910   6.375   2.766   2.778  1.2510  0.3573 -0.0079
13473TIP3    H261911   6.513   2.724   2.823  1.7226  0.1794 -1.5604
13474TIP3   OH261912   1.570   6.130   6.450 -0.6357 -0.1955 -0.2823
13474TIP3    H161913   1.539   6.066   6.386  0.0977  0.9240 -1.8120
13474TIP3    H261914   1.622   6.191   6.400  0.5042  0.3915  1.5131
13475TIP3   OH261915   4.744   2.784   3.709 -0.1262  0.5603  0.4294
13475TIP3    H161916   4.739   2.689   3.716  0.3442  0.5315  0.3908
13475TIP3    H261917   4.683   2.816   3.776 -0.8207  0.2323 -0.0353
13476TIP3   OH261918   6.322   1.856   4.141  0.3753 -0.3024  0.1483
13476TIP3    H161919   6.298   1.878   4.051 -0.7204  0.0893  0.5208
13476TIP3    H261920   6.325   1.941   4.186 -0.7627 -0.6178  0.8614
13477TIP3   OH261921   5.059   3.622   4.230  0.1762 -0.2742  0.2200
13477TIP3    H161922   4.976   3.580   4.205  0.3877 -0.2405 -0.5432
13477TIP3    H261923   5.034   3.680   4.302  0.0062 -2.2251  1.8094
13478TIP3   OH261924   0.971   5.672   0.109  0.6586 -0.3432 -0.2752
13478TIP3    H161925   0.917   5.610   0.157  1.3100 -1.4400 -0.9114
13478TIP3    H261926   0.908   5.730   0.066  0.0463 -0.3622  0.5762
13479TIP3   OH261927   6.169   3.040  15.243  1.0318 -0.4267 -0.3501
13479TIP3    H161928   6.253   3.024  15.201  0.0102 -0.7314 -2.4025
13479TIP3    H261929   6.153   2.961  15.295  2.5449  0.1698  1.1345
13480TIP3   OH261930   3.039   2.579   1.882  0.0309  0.3225  0.2399
13480TIP3    H161931   3.044   2.570   1.787  0.2091 -0.3680  0.3021
13480TIP3    H261932   3.070   2.667   1.900  1.3936 -0.0257 -0.2531
13481TIP3   OH261933   4.116   2.813  11.285 -0.1095 -0.4454 -0.2215
13481TIP3    H161934   4.103   2.832  11.377  1.2258  0.2452 -0.1459
13481TIP3    H261935   4.101   2.896  11.240 -3.2079 -1.3012 -0.9547
13482TIP3   OH261936   0.532   0.590   6.215  0.3605  0.3727  0.0846
13482TIP3    H161937   0.579   0.508   6.232 -0.6258 -0.2139  0.1235
13482TIP3    H261938   0.521   0.630   6.302  0.3273  0.2400  0.1424
13483TIP3   OH261939   4.917   6.611  14.595  0.2031 -0.4229 -0.1743
13483TIP3    H161940   4.829   6.641  14.621  0.4971  0.2323  0.0854
13483TIP3    H261941   4.902   6.560  14.515 -0.7397 -2.6306  1.3043
13484TIP3   OH261942   4.299   1.095   3.983 -0.0039  0.6160  0.1703
13484TIP3    H161943   4.212   1.057   3.967  0.1791  0.8240 -1.5744
13484TIP3    H261944   4.359   1.022   3.970  0.1953  0.9315 -0.7750
13485TIP3   OH261945   6.579   4.798   1.137 -0.3376  0.6107  0.4544
13485TIP3    H161946   6.486   4.810   1.119 -0.9779  0.2119  3.1283
13485TIP3    H261947   6.585   4.717   1.187  1.3526  0.9797  0.9504
13486TIP3   OH261948   5.686   0.878   3.777 -0.2469  0.6861  0.0604
13486TIP3    H161949   5.763   0.923   3.812  0.3787 -0.3615  0.0860
13486TIP3    H261950   5.717   0.789   3.759 -1.1418  0.5822 -1.0730
13487TIP3   OH261951   4.062   0.820   5.795 -0.2028  0.3677 -0.9524
13487TIP3    H161952   3.990   0.769   5.760 -1.5562 -0.3354  2.4751
13487TIP3    H261953   4.020   0.896   5.835  1.1069  0.6650 -0.0849
13488TIP3   OH261954   5.939   1.174  16.850 -0.0879 -0.0385 -0.4080
13488TIP3    H161955   6.024   1.130  16.839  1.3856  2.1023  1.4334
13488TIP3    H261956   5.940   1.242  16.782  0.2080  0.6934  0.3140
13489TIP3   OH261957   1.006   2.336  14.214  0.2410  0.1696  0.3520
13489TIP3    H161958   0.950   2.260  14.234 -0.7092  1.4001  2.7383
13489TIP3    H261959   0.944   2.407  14.197  1.1001  0.9067  0.2318
13490TIP3   OH261960   0.555   2.464  16.694 -0.2300 -0.0955 -0.9061
13490TIP3    H161961   0.648   2.486  16.701 -0.6522  1.5592  0.1090
13490TIP3    H261962   0.516   2.540  16.651 -1.7291  1.2920  2.5404
13491TIP3   OH261963   5.990   3.717  11.421  0.2721 -0.1610 -0.5164
13491TIP3    H161964   5.996   3.795  11.366  0.0016  0.6294  0.5597
13491TIP3    H261965   6.033   3.648  11.369  3.3395  1.3708 -0.2368
13492TIP3   OH261966   0.092   2.962  15.331  0.6545  0.1742  0.0854
13492TIP3    H161967   0.119   2.906  15.403  0.8632 -0.3448 -0.3920
13492TIP3    H261968   0.141   2.930  15.255 -0.2004  0.1645 -0.4797
13493TIP3   OH261969   6.693   0.662   1.187 -0.0077 -0.2059 -0.5260
13493TIP3    H161970   6.649   0.593   1.237 -1.0267  0.3506 -0.6352
13493TIP3    H261971   6.687   0.633   1.096 -0.4996  0.0517 -0.5792
13494TIP3   OH261972   0.177   1.190  15.971  0.6415  0.3601  0.0265
13494TIP3    H161973   0.240   1.158  15.906  1.8189  0.3501  1.1287
13494TIP3    H261974   0.209   1.154  16.054 -0.9979  0.1302  0.5877
13495TIP3   OH261975   6.062   6.264   6.238  0.6595  0.8285  0.0739
13495TIP3    H161976   6.060   6.359   6.232 -0.2341  0.8501  0.4449
13495TIP3    H261977   6.094   6.246   6.326 -2.2378  0.8964  1.2710
13496TIP3   OH261978   6.312   2.176  13.934 -1.0008 -0.0743 -0.0101
13496TIP3    H161979   6.256   2.218  13.869 -1.3335  0.6932  0.7515
13496TIP3    H261980   6.401   2.191  13.902 -1.1771 -2.7713 -2.1301
13497TIP3   OH261981   1.705   0.786   4.487 -0.1477 -0.5539 -0.0930
13497TIP3    H161982   1.737   0.874   4.505  1.7540 -1.3831  0.9793
13497TIP3    H261983   1.690   0.748   4.574 -0.2774 -1.5030 -0.5124
13498TIP3   OH261984   6.464   3.402  12.674 -0.1885 -0.1932  0.2618
13498TIP3    H161985   6.459   3.414  12.769 -1.5431 -0.0491  0.1954
13498TIP3    H261986   6.379   3.434  12.642 -0.4167 -1.7934 -0.8247
13499TIP3   OH261987   1.226   5.205   1.424 -0.2583  0.0501 -0.0947
13499TIP3    H161988   1.274   5.182   1.504  1.7940  2.0680 -0.6360
13499TIP3    H261989   1.152   5.256   1.454  0.8721  1.3827  0.5536
13500TIP3   OH261990   2.512   0.116  15.727  0.3151  0.2449 -0.1973
13500TIP3    H161991   2.462   0.047  15.770 -1.4618  1.3725 -0.3598
13500TIP3    H261992   2.479   0.197  15.765  2.0633  1.0552 -0.3070
13501TIP3   OH261993   3.631   4.581  12.239  0.2549  0.6394  0.4910
13501TIP3    H161994   3.537   4.598  12.242  0.1941  0.5496 -0.6663
13501TIP3    H261995   3.662   4.627  12.161  1.4062  1.7122  1.5258
13502TIP3   OH261996   6.199   2.462  10.716  0.4321  0.1748 -0.0308
13502TIP3    H161997   6.166   2.381  10.678 -5.0115  0.1997  3.4730
13502TIP3    H261998   6.150   2.531  10.671 -0.0227  0.8042  1.3478
13503TIP3   OH261999   2.582   5.298   0.789  0.1819 -0.3513 -0.0318
13503TIP3    H162000   2.612   5.302   0.699 -1.3882  1.7631 -0.5454
13503TIP3    H262001   2.640   5.357   0.837  1.1977 -1.6942  0.4435
13504TIP3   OH262002   1.122   3.931   3.691  0.1856 -0.2391 -0.4250
13504TIP3    H162003   1.145   3.854   3.742 -1.5114 -0.8191 -0.4743
13504TIP3    H262004   1.082   3.992   3.754  0.7245  0.2486 -0.5436
13505TIP3   OH262005   6.022   2.408  14.342 -0.3742 -0.5176  0.4590
13505TIP3    H162006   5.930   2.384  14.347 -0.7669  0.0031 -2.5711
13505TIP3    H262007   6.056   2.359  14.267  1.5667  0.1027  0.8687
13506TIP3   OH262008   6.532   4.417   4.652  0.2721  0.3514  0.3484
13506TIP3    H162009   6.473   4.346   4.624  1.9577 -0.8827 -0.2514
13506TIP3    H262010   6.474   4.491   4.669 -1.8618 -1.7831  3.3070
13507TIP3   OH262011   1.246   6.260  12.779  0.0498  0.3572 -0.2635
13507TIP3    H162012   1.327   6.309  12.766 -0.0360  0.9966  1.3530
13507TIP3    H262013   1.185   6.297  12.715  0.9446  0.0078 -1.3593
13508TIP3   OH262014   4.090   4.275   4.433 -1.0976 -0.0550  0.3998
13508TIP3    H162015   4.053   4.349   4.480 -0.4098  0.2189  0.5101
13508TIP3    H262016   4.146   4.231   4.497  0.2746  0.6316 -0.3009
13509TIP3   OH262017   3.904   4.905   3.013  0.1697  0.2722 -0.2194
13509TIP3    H162018   3.921   4.811   3.020 -2.2074 -0.0894  2.1592
13509TIP3    H262019   3.987   4.945   3.041  0.5239 -1.1619  0.9632
13510TIP3   OH262020   1.355   4.349   0.890  0.1263 -0.1101 -0.2020
13510TIP3    H162021   1.435   4.367   0.841  1.6050 -1.9817  1.3443
13510TIP3    H262022   1.357   4.412   0.962 -0.1013  0.2272 -0.4907
13511TIP3   OH262023   0.324   1.228   6.290 -0.0726 -0.2223  0.0926
13511TIP3    H162024   0.360   1.308   6.252 -0.9496  0.0024 -0.2858
13511TIP3    H262025   0.287   1.256   6.374  1.7191 -0.6863  1.1048
13512TIP3   OH262026   3.608   4.818   5.787  0.6100 -0.3041 -0.1220
13512TIP3    H162027   3.653   4.740   5.755  0.4218 -0.8450  0.8853
13512TIP3    H262028   3.664   4.852   5.856  1.6510  1.5910 -1.8052
13513TIP3   OH262029   0.862   4.381   3.511  0.1178  0.4219 -0.3653
13513TIP3    H162030   0.917   4.308   3.482 -1.8006 -0.8600 -0.9509
13513TIP3    H262031   0.902   4.459   3.471  0.8294 -0.6151 -1.7387
13514TIP3   OH262032   0.188   0.170   0.433  0.2873 -0.0480  0.2522
13514TIP3    H162033   0.123   0.143   0.498  0.3728 -0.4335  0.1754
13514TIP3    H262034   0.190   0.099   0.369  0.7557 -0.0233  0.2349
13515TIP3   OH262035   0.965   1.623   5.560 -0.1730 -0.1431  0.3510
13515TIP3    H162036   0.986   1.701   5.509  0.0702  0.3017  1.1171
13515TIP3    H262037   0.909   1.571   5.502  1.5394 -0.5099 -1.0349
13516TIP3   OH262038   1.346   0.629   4.348 -0.1513  0.0795  0.4099
13516TIP3    H162039   1.348   0.547   4.397 -4.2262 -0.9943 -0.8415
13516TIP3    H262040   1.392   0.609   4.267  0.3877 -0.4072  0.8295
13517TIP3   OH262041   1.429   5.834  16.803  0.0599 -0.4749  0.2503
13517TIP3    H162042   1.461   5.808  16.717  0.2876 -0.2173  0.2544
13517TIP3    H262043   1.386   5.918  16.787  1.4328  0.3326  0.6412
13518TIP3   OH262044   2.867   1.140   4.013  0.3130  0.7851  0.1227
13518TIP3    H162045   2.962   1.139   4.023  0.3247  3.1746  0.8886
13518TIP3    H262046   2.852   1.136   3.919  1.1549  0.3929 -0.0013
13519TIP3   OH262047   3.333   1.240   5.115 -0.6606 -0.1486 -0.2403
13519TIP3    H162048   3.400   1.225   5.181  0.8206  0.9951 -1.3939
13519TIP3    H262049   3.254   1.198   5.150  0.1645  0.0497  2.0066
13520TIP3   OH262050   6.721   3.010  12.954  0.5388 -0.5858  0.0243
13520TIP3    H162051   6.813   2.982  12.963  0.5848  0.2084  3.3884
13520TIP3    H262052   6.725   3.105  12.955 -0.3478 -0.5490  0.9416
13521TIP3   OH262053   6.410   6.688   0.906  0.3840 -0.1121  0.3055
13521TIP3    H162054   6.419   6.778   0.937  1.1221  0.8614 -2.4768
13521TIP3    H262055   6.362   6.695   0.824  1.3887 -2.1159 -0.5354
13522TIP3   OH262056   4.399   2.541  11.978  0.0499 -0.3463  0.3985
13522TIP3    H162057   4.356   2.609  11.926 -0.4970 -0.6371  0.4634
13522TIP3    H262058   4.491   2.566  11.979  0.1661 -0.6526 -1.1846
13523TIP3   OH262059   3.367   2.967   5.442  0.0377  0.0005 -0.2538
13523TIP3    H162060   3.438   3.028   5.421 -0.0038  0.0586 -0.2273
13523TIP3    H262061   3.411   2.887   5.469  0.0907 -0.2056 -0.9391
13524TIP3   OH262062   1.488   2.803  15.182 -0.0938  0.0550 -0.1634
13524TIP3    H162063   1.515   2.894  15.199  0.0649  0.3937 -2.0217
13524TIP3    H262064   1.496   2.760  15.266 -0.8822  1.9449  0.9546
13525TIP3   OH262065   0.992   3.637  13.601 -0.0680  0.0374 -0.0938
13525TIP3    H162066   1.061   3.698  13.625  0.6194 -0.3983 -0.8759
13525TIP3    H262067   0.959   3.669  13.517  0.7798 -1.0148 -0.8638
13526TIP3   OH262068   5.203   2.313   1.908  0.5761 -0.3197 -0.2511
13526TIP3    H162069   5.238   2.366   1.837 -0.2067  2.5000  1.3376
13526TIP3    H262070   5.112   2.297   1.884 -0.0927  1.8054  0.6357
13527TIP3   OH262071   6.582   0.472  12.849 -0.3556  0.3046  0.2958
13527TIP3    H162072   6.646   0.535  12.882  0.2958 -0.3148  0.2439
13527TIP3    H262073   6.562   0.503  12.760 -0.9073  1.0689  0.6717
13528TIP3   OH262074   3.533   6.579   4.198  0.0861 -0.2288 -0.0388
13528TIP3    H162075   3.484   6.625   4.266  1.7570  1.5010  0.0725
13528TIP3    H262076   3.611   6.547   4.243  0.2027 -0.9257 -0.7186
13529TIP3   OH262077   6.705   1.146   3.752 -0.0372 -0.0089 -0.0111
13529TIP3    H162078   6.630   1.203   3.773 -1.5483 -0.5409 -3.3223
13529TIP3    H262079   6.778   1.186   3.798 -1.6412  2.7920  0.3720
13530TIP3   OH262080   5.921   5.678  10.619  0.1904  0.3606 -0.0828
13530TIP3    H162081   5.847   5.618  10.614  1.4716 -1.4244  1.0716
13530TIP3    H262082   5.918   5.727  10.537 -2.2733  0.3972 -0.0303
13531TIP3   OH262083   6.204   4.060   5.525  0.8374  0.1119  0.2287
13531TIP3    H162084   6.280   4.008   5.551  0.9526  0.3010  0.2706
13531TIP3    H262085   6.186   4.032   5.435 -0.0481 -1.1199  0.7539
13532TIP3   OH262086   3.359   0.456  10.827 -0.2436 -0.1640  0.7949
13532TIP3    H162087   3.265   0.476  10.831 -0.5767 -1.7665  2.5612
13532TIP3    H262088   3.368   0.395  10.755 -0.2157  1.3977 -0.5799
13533TIP3   OH262089   0.135   6.061  10.607 -0.3892 -0.3144  0.3288
13533TIP3    H162090   0.133   5.969  10.584 -0.7167 -0.2208 -0.0232
13533TIP3    H262091   0.206   6.098  10.554  0.4153 -0.5476  1.1998
13534TIP3   OH262092   5.011   2.427   5.819 -0.1740  0.2361  0.5737
13534TIP3    H162093   4.966   2.464   5.895 -0.8375  3.0935 -1.0558
13534TIP3    H262094   5.089   2.481   5.808 -0.3000  0.1667 -0.9756
13535TIP3   OH262095   2.667   5.727   3.598  0.0064  1.1401  0.1507
13535TIP3    H162096   2.636   5.787   3.666 -1.2145  1.6854 -0.8368
13535TIP3    H262097   2.757   5.707   3.622 -0.3393  1.4604  1.8174
13536TIP3   OH262098   3.679   0.393  11.948  0.3474  0.9232  0.0002
13536TIP3    H162099   3.604   0.427  11.997 -2.0385 -2.1688 -1.1324
13536TIP3    H262100   3.743   0.369  12.015 -1.1473  0.5029  1.3428
13537TIP3   OH262101   0.297   1.596   5.253  0.5603  0.0186 -0.0540
13537TIP3    H162102   0.246   1.536   5.199  0.1102 -0.3219  0.7261
13537TIP3    H262103   0.243   1.675   5.259  0.6554  0.0943 -0.1706
13538TIP3   OH262104   2.128   0.314  13.063  1.1015  0.3828 -0.1805
13538TIP3    H162105   2.192   0.352  13.124  2.0378  0.4969 -1.2181
13538TIP3    H262106   2.156   0.223  13.052  1.1949  0.4793 -0.7731
13539TIP3   OH262107   4.548   0.057   6.584 -0.1488  0.4276  0.5931
13539TIP3    H162108   4.553   0.143   6.543 -1.1883  0.7126  1.0193
13539TIP3    H262109   4.621   0.008   6.547 -0.4674  0.9956 -0.8384
13540TIP3   OH262110   5.610   0.255   1.361 -0.3738 -0.2507 -0.6805
13540TIP3    H162111   5.605   0.303   1.278  0.3200 -1.1324 -1.2464
13540TIP3    H262112   5.702   0.230   1.369 -0.5066 -0.4836  0.1764
13541TIP3   OH262113   3.866   6.680   5.667  0.7878  0.4250  0.2071
13541TIP3    H162114   3.907   6.624   5.601 -0.2871 -1.4843  1.0792
13541TIP3    H262115   3.772   6.669   5.653  0.5147  2.3033  0.2156
13542TIP3   OH262116   6.823   1.996   0.831  0.1614  0.0892 -0.5164
13542TIP3    H162117   6.823   2.035   0.918 -3.0937  2.2354 -1.3118
13542TIP3    H262118   6.861   2.064   0.774  0.6576 -0.6156 -1.0562
13543TIP3   OH262119   6.393   3.290  11.712 -0.5188 -0.0073 -0.0448
13543TIP3    H162120   6.312   3.325  11.674 -0.7060  2.1632  2.1064
13543TIP3    H262121   6.408   3.208  11.665 -1.9415  1.3057 -3.0553
13544TIP3   OH262122   2.003   4.032   4.365 -0.2393  0.2078  0.2399
13544TIP3    H162123   1.932   3.987   4.410 -1.5479 -1.8017 -3.3981
13544TIP3    H262124   1.962   4.111   4.329  0.2078  0.6395  0.6586
13545TIP3   OH262125   2.959   2.122   6.015  0.1165  0.1445 -0.1191
13545TIP3    H162126   3.047   2.156   6.002  0.0573  0.0327 -0.8256
13545TIP3    H262127   2.957   2.096   6.107  0.4974  1.0734  0.1704
13546TIP3   OH262128   3.467   4.822  15.855 -0.2308  0.0319 -0.7243
13546TIP3    H162129   3.428   4.780  15.779 -1.9540 -3.9968  1.9936
13546TIP3    H262130   3.400   4.814  15.924  2.3033  0.5778  2.0196
13547TIP3   OH262131   2.730   4.074   1.698 -0.0857  0.2276 -0.0709
13547TIP3    H162132   2.821   4.101   1.685 -0.8638  2.2316 -1.9262
13547TIP3    H262133   2.727   4.043   1.789  2.5848 -0.6515 -0.1911
13548TIP3   OH262134   6.073   5.646   3.599  0.2788  0.1578  0.5584
13548TIP3    H162135   6.009   5.709   3.633 -0.0975 -0.1869  0.4942
13548TIP3    H262136   6.021   5.569   3.576  0.7301 -0.1544  0.5763
13549TIP3   OH262137   3.160   1.174   2.435 -0.2151  0.3215  0.0066
13549TIP3    H162138   3.170   1.263   2.466  2.4598  0.3378 -0.6566
13549TIP3    H262139   3.240   1.156   2.385 -0.8145 -2.3199 -0.1959
13550TIP3   OH262140   5.173   2.192   4.555  0.8714  0.0584  0.5005
13550TIP3    H162141   5.132   2.254   4.496 -0.7583 -1.6225 -0.2414
13550TIP3    H262142   5.262   2.180   4.521  0.7124  0.8496 -0.2087
13551TIP3   OH262143   1.856   5.076   3.259 -0.1747 -0.2317  0.0507
13551TIP3    H162144   1.839   5.005   3.321  1.0824 -1.4611 -0.9442
13551TIP3    H262145   1.799   5.147   3.288 -2.2954 -1.9820  0.4853
13552TIP3   OH262146   0.559   4.704   2.660 -0.0432  0.1102  0.4460
13552TIP3    H162147   0.640   4.739   2.696  0.6228 -0.4674 -0.4708
13552TIP3    H262148   0.490   4.748   2.711  0.8129  1.0188  0.8618
13553TIP3   OH262149   0.905   5.598  15.383 -0.5067 -0.0209  0.0794
13553TIP3    H162150   0.817   5.569  15.403 -0.5102  0.1569  0.3240
13553TIP3    H262151   0.894   5.685  15.345 -0.5339 -0.5312 -1.1109
13554TIP3   OH262152   0.616   4.215  11.421  0.3516  0.5815  0.0297
13554TIP3    H162153   0.694   4.269  11.408  0.8130  0.3542  1.7213
13554TIP3    H262154   0.563   4.263  11.484 -0.6431  0.4692 -0.6913
13555TIP3   OH262155   5.388   0.867  16.172 -0.8134  0.4089  0.5093
13555TIP3    H162156   5.297   0.846  16.152 -2.0027  1.9204  3.6464
13555TIP3    H262157   5.394   0.961  16.160  0.3528  0.3190  0.2935
13556TIP3   OH262158   5.961   4.973   1.829  0.0617 -0.3026 -0.4222
13556TIP3    H162159   5.882   4.978   1.775  0.5806  1.7994 -1.0779
13556TIP3    H262160   5.935   5.011   1.913 -0.2128 -1.7632  0.1838
13557TIP3   OH262161   6.025   0.503  15.130  0.0438  0.7685 -0.6157
13557TIP3    H162162   6.031   0.530  15.221  0.8906  1.6219 -0.9065
13557TIP3    H262163   5.963   0.564  15.091 -1.7671 -0.7382 -0.2330
13558TIP3   OH262164   5.118   1.900   0.766 -0.3581  0.4906 -0.3700
13558TIP3    H162165   5.026   1.883   0.786 -0.2254 -0.4301 -0.5141
13558TIP3    H262166   5.166   1.852   0.833  0.0348 -0.0590 -1.0340
13559TIP3   OH262167   5.418   6.589   2.073 -0.2235 -0.2511  0.3324
13559TIP3    H162168   5.458   6.595   1.986 -0.5064  1.6184  0.2819
13559TIP3    H262169   5.442   6.502   2.105  0.2062 -0.8277 -1.4509
13560TIP3   OH262170   6.054   3.269  16.380 -0.3196  0.2936 -0.3959
13560TIP3    H162171   6.062   3.337  16.314  0.1728  0.6924  0.0629
13560TIP3    H262172   6.016   3.314  16.456  1.7759  0.5320  0.5723
13561TIP3   OH262173   1.082   5.706  12.125  0.7906  0.8975 -0.3081
13561TIP3    H162174   1.068   5.787  12.077  3.0539  1.1599 -0.6431
13561TIP3    H262175   1.095   5.733  12.216 -0.3040  0.7008 -0.0771
13562TIP3   OH262176   5.734   0.446   4.519 -0.0717 -0.7124  0.3745
13562TIP3    H162177   5.758   0.492   4.438 -0.1836 -1.7423 -0.2512
13562TIP3    H262178   5.770   0.358   4.509  0.6914 -0.5972  1.8440
13563TIP3   OH262179   0.453   0.020   4.606 -0.2765  0.1479 -0.5042
13563TIP3    H162180   0.516   0.029   4.535  0.7550 -1.5260  0.1474
13563TIP3    H262181   0.422  -0.071   4.599 -0.9890  0.3001  0.5001
13564TIP3   OH262182   5.411   0.357  15.518 -0.1140  0.3069  0.3559
13564TIP3    H162183   5.492   0.395  15.485 -0.3530 -0.5953 -1.3577
13564TIP3    H262184   5.438   0.300  15.590  0.6309  0.8589  0.5200
13565TIP3   OH262185   3.020   4.465   0.737 -0.4066 -0.4549 -0.1313
13565TIP3    H162186   2.979   4.388   0.699  0.0901 -0.2043 -1.2209
13565TIP3    H262187   3.092   4.431   0.789 -0.6299 -0.7703 -0.0321
13566TIP3   OH262188   1.067   0.282  15.693 -0.1909  0.7731 -1.1181
13566TIP3    H162189   0.974   0.259  15.688 -0.4751  1.6711 -0.2290
13566TIP3    H262190   1.110   0.200  15.717 -1.0470  0.8241  0.7912
13567TIP3   OH262191   2.680   1.099   0.853  0.1714 -0.3581  0.0035
13567TIP3    H162192   2.768   1.106   0.816  0.0882  0.1803 -0.0890
13567TIP3    H262193   2.635   1.178   0.825  0.0120 -0.0856  1.0022
13568TIP3   OH262194   6.002   4.604  16.812  0.1104  0.0233  0.1381
13568TIP3    H162195   6.011   4.575  16.902 -0.5337  1.0748  0.5671
13568TIP3    H262196   6.054   4.684  16.807  0.5047 -0.2631 -0.5502
13569TIP3   OH262197   2.716   0.621   4.590 -0.0591  0.2034  0.6816
13569TIP3    H162198   2.671   0.705   4.577 -0.1082  0.2529  1.1654
13569TIP3    H262199   2.647   0.555   4.583  0.1036  0.1306 -0.5256
13570TIP3   OH262200   3.266   5.687  13.491  0.0603 -0.0554  0.2413
13570TIP3    H162201   3.189   5.630  13.488 -0.6614  0.8639  0.8635
13570TIP3    H262202   3.242   5.762  13.437  0.8669 -0.1460 -0.2677
13571TIP3   OH262203   0.729   1.427  11.961 -0.0458 -0.4640  0.8666
13571TIP3    H162204   0.794   1.370  11.921 -1.4578 -1.6704  0.2423
13571TIP3    H262205   0.779   1.504  11.988  1.3007 -0.4356 -1.4582
13572TIP3   OH262206   1.879   1.989  11.413  0.0208  0.2348 -0.1435
13572TIP3    H162207   1.929   2.017  11.336 -0.6931  0.8757 -0.3827
13572TIP3    H262208   1.846   2.070  11.452 -0.4161 -0.1449  0.2941
13573TIP3   OH262209   3.102   4.171  12.421  0.0376  0.1232  0.4549
13573TIP3    H162210   3.028   4.112  12.419  0.5357 -0.5192  0.6974
13573TIP3    H262211   3.071   4.250  12.376 -0.9906  0.1165  1.1284
13574TIP3   OH262212   3.568   5.002  14.598 -0.6879 -0.1114  0.0057
13574TIP3    H162213   3.534   4.957  14.521 -0.5440 -1.1041  0.5041
13574TIP3    H262214   3.652   4.960  14.616 -0.4913  0.4391  0.4196
13575TIP3   OH262215   2.234   2.577   0.916  0.4223 -0.0967  0.0190
13575TIP3    H162216   2.295   2.576   0.990 -0.3253  0.2241  0.6681
13575TIP3    H262217   2.177   2.653   0.934  0.4357  0.1881 -1.0643
13576TIP3   OH262218   3.860   1.505  15.341  0.0613  0.5012 -0.4179
13576TIP3    H162219   3.876   1.584  15.289 -1.9015  0.8881 -0.4748
13576TIP3    H262220   3.880   1.530  15.431  1.7261  0.3432 -0.7088
13577TIP3   OH262221   0.711   2.621   0.126 -0.1553  0.1313 -0.1527
13577TIP3    H162222   0.699   2.561   0.052 -0.5907 -1.0969  0.8715
13577TIP3    H262223   0.622   2.652   0.146 -0.3590 -1.2123  1.1716
13578TIP3   OH262224   3.624   4.167  13.170 -0.1223  0.3301  0.5062
13578TIP3    H162225   3.714   4.140  13.150 -0.7585 -1.1738 -0.5013
13578TIP3    H262226   3.628   4.198  13.261  1.2019 -0.7926  0.8670
13579TIP3   OH262227   2.312   6.502   1.435  0.2064  0.0325  0.0360
13579TIP3    H162228   2.270   6.505   1.522  0.5869 -1.8592  0.3218
13579TIP3    H262229   2.249   6.457   1.380 -0.5837  2.3181 -1.0715
13580TIP3   OH262230   3.707   2.639  15.722 -0.1844  0.1455  0.4293
13580TIP3    H162231   3.715   2.578  15.649 -0.2467 -1.5877  1.8022
13580TIP3    H262232   3.795   2.643  15.760 -0.2122  0.8231  0.4373
13581TIP3   OH262233   1.668   3.797   3.962  0.6600 -0.3332 -0.2083
13581TIP3    H162234   1.595   3.858   3.961 -0.4738 -1.6101  0.5810
13581TIP3    H262235   1.713   3.814   4.044  1.0167  0.1782 -0.5057
13582TIP3   OH262236   5.240   6.263   4.866 -0.3027  0.5516  0.1818
13582TIP3    H162237   5.234   6.171   4.838  2.7314 -0.2504  1.7880
13582TIP3    H262238   5.217   6.313   4.787 -3.5273 -1.4464 -0.3729
13583TIP3   OH262239   0.805   6.445  16.082  0.6048  0.1327 -0.2388
13583TIP3    H162240   0.846   6.456  16.167  0.5773 -1.3326  0.0036
13583TIP3    H262241   0.858   6.497  16.022  0.8986  0.8064  0.5935
13584TIP3   OH262242   0.013   5.009   1.756  0.1707  0.4454 -0.5179
13584TIP3    H162243  -0.003   4.918   1.782  0.7176 -0.1521 -2.1533
13584TIP3    H262244  -0.023   5.016   1.668  1.4391  1.4011 -0.9951
13585TIP3   OH262245   3.435   0.606   3.867 -0.3803  0.2212  0.4794
13585TIP3    H162246   3.477   0.530   3.827  0.4298 -0.3531  2.3220
13585TIP3    H262247   3.508   0.657   3.903 -1.0125  1.2563  0.3410
13586TIP3   OH262248   3.343   4.238  13.655 -0.4212  0.0258  0.1993
13586TIP3    H162249   3.267   4.269  13.606 -0.3584 -0.5096 -0.2486
13586TIP3    H262250   3.390   4.181  13.594  0.9220  1.1670  0.1021
13587TIP3   OH262251   1.040   1.833   5.396  0.4570 -0.4140  0.1577
13587TIP3    H162252   0.992   1.803   5.319  0.5303 -3.1670  1.1033
13587TIP3    H262253   1.038   1.929   5.389 -1.6162 -0.5257 -1.9572
13588TIP3   OH262254   2.211   2.878   4.133  0.2392  0.1572 -0.3129
13588TIP3    H162255   2.166   2.805   4.175  0.4802 -0.3727 -0.9492
13588TIP3    H262256   2.262   2.837   4.062 -0.6715  1.0824 -1.5530
13589TIP3   OH262257   1.722   4.125   1.880 -0.5007 -0.5651  0.1684
13589TIP3    H162258   1.655   4.060   1.861  0.2415 -1.1762 -0.3819
13589TIP3    H262259   1.674   4.208   1.884 -1.1666 -0.8641 -1.1056
13590TIP3   OH262260   0.673   1.748  16.640  0.3254  0.1909 -0.1873
13590TIP3    H162261   0.657   1.679  16.576 -0.3795 -0.0749  0.2546
13590TIP3    H262262   0.683   1.702  16.723  0.4561  0.5796  0.0149
13591TIP3   OH262263   0.052   3.593  15.262  0.8889  0.4649  0.0784
13591TIP3    H162264   0.002   3.559  15.188  1.4750  0.4052 -0.2923
13591TIP3    H262265   0.039   3.688  15.257 -0.2439  0.3604  0.7540
13592TIP3   OH262266   5.842   3.195  14.630  0.4488 -0.1341  0.6359
13592TIP3    H162267   5.870   3.103  14.631 -0.4682 -0.4753 -1.0631
13592TIP3    H262268   5.923   3.245  14.618  0.7615 -0.8659 -0.4939
13593TIP3   OH262269   4.212   2.085  12.006 -0.5934 -0.4989  0.1670
13593TIP3    H162270   4.155   2.128  12.071  2.1482  0.2215  2.2960
13593TIP3    H262271   4.251   2.157  11.958  1.3604 -0.6906  1.3670
13594TIP3   OH262272   1.578   4.402  13.538 -0.0548  0.6541  0.3193
13594TIP3    H162273   1.602   4.490  13.510 -0.0769  0.2022 -1.2730
13594TIP3    H262274   1.651   4.347  13.508 -0.8484 -0.0888 -0.3085
13595TIP3   OH262275   2.590   5.052   4.878  0.0097 -0.3075 -0.2764
13595TIP3    H162276   2.613   5.121   4.940  0.5376 -0.1783 -0.6092
13595TIP3    H262277   2.558   5.099   4.801 -1.6951 -0.4868  0.2779
13596TIP3   OH262278   6.459   2.387   3.084 -0.3351 -0.4965  0.4872
13596TIP3    H162279   6.455   2.336   3.003  0.9861 -0.5060  0.4164
13596TIP3    H262280   6.451   2.478   3.056  2.4646 -0.3108  0.0535
13597TIP3   OH262281   2.113   1.489  16.404  0.1321  0.5420  0.5395
13597TIP3    H162282   2.172   1.421  16.372  1.2119  2.2209 -1.2449
13597TIP3    H262283   2.120   1.485  16.499  3.1707  0.6659  0.4139
13598TIP3   OH262284   6.423   6.822  11.670 -0.8395  0.6482  0.3746
13598TIP3    H162285   6.397   6.775  11.590 -1.0918  0.3135  0.6493
13598TIP3    H262286   6.378   6.907  11.664 -1.6683  0.2363  0.6388
13599TIP3   OH262287   5.996   5.287   5.266 -0.0019 -0.1210 -0.5299
13599TIP3    H162288   5.927   5.324   5.321 -0.7446  0.2161 -1.6361
13599TIP3    H262289   6.070   5.274   5.325 -0.6502  0.5365  0.4653
13600TIP3   OH262290   1.822   5.978   4.085  0.2025  0.1697 -0.1630
13600TIP3    H162291   1.850   6.006   4.172 -0.1906  0.0398  0.0094
13600TIP3    H262292   1.803   5.885   4.096 -1.9410  0.5879  0.1701
13601TIP3   OH262293   0.240   4.583   2.722  0.0699  0.3284 -0.0051
13601TIP3    H162294   0.164   4.577   2.664  0.7223 -2.5687 -0.7357
13601TIP3    H262295   0.300   4.642   2.677 -0.6663  0.5314 -0.7516
13602TIP3   OH262296   4.861   3.592   0.277 -0.0595  0.3374  0.2180
13602TIP3    H162297   4.825   3.571   0.191 -0.7595 -1.3308  0.8762
13602TIP3    H262298   4.872   3.687   0.276 -0.2926  0.3774 -1.6080
13603TIP3   OH262299   5.345   2.750   1.721 -0.2428 -0.0356 -0.5425
13603TIP3    H162300   5.398   2.803   1.661 -0.1001  0.2283 -0.1865
13603TIP3    H262301   5.368   2.782   1.808 -0.4105 -0.4507 -0.3414
13604TIP3   OH262302   1.391   3.327  15.804 -0.2394  0.1622 -0.1013
13604TIP3    H162303   1.401   3.395  15.738 -1.0069  0.0142 -0.3768
13604TIP3    H262304   1.462   3.344  15.866  0.7917  0.0038 -1.2076
13605TIP3   OH262305   2.395   3.928  15.616 -0.3534 -0.2412  0.0673
13605TIP3    H162306   2.401   4.019  15.642  1.2647 -0.7800  1.7255
13605TIP3    H262307   2.457   3.919  15.543  1.6145 -0.5543  1.6904
13606TIP3   OH262308   3.872   6.229   0.498 -0.3576 -0.9410 -0.3212
13606TIP3    H162309   3.834   6.247   0.412  2.1636 -2.9416 -2.0320
13606TIP3    H262310   3.871   6.313   0.543 -1.3792  0.2859 -2.4582
13607TIP3   OH262311   4.595   2.579   4.285  0.1746 -0.1050  0.4286
13607TIP3    H162312   4.610   2.492   4.322 -0.0086 -0.5052 -0.4123
13607TIP3    H262313   4.677   2.601   4.241  0.0690 -0.0409  0.2638
13608TIP3   OH262314   4.472   6.502   0.272 -0.7446 -0.2341 -0.3533
13608TIP3    H162315   4.405   6.551   0.321  1.2127  4.8462 -2.0607
13608TIP3    H262316   4.436   6.494   0.184 -0.1565  0.3271 -0.6589
13609TIP3   OH262317   3.708   3.291   4.084 -0.3394  0.2948  0.2220
13609TIP3    H162318   3.657   3.366   4.054  1.9968  2.1360  0.5007
13609TIP3    H262319   3.799   3.318   4.070  0.7330 -0.9292  3.7735
13610TIP3   OH262320   3.746   5.379   5.988  0.2463 -0.6503  0.3756
13610TIP3    H162321   3.709   5.391   5.900 -0.9149 -0.9054  0.8211
13610TIP3    H262322   3.671   5.382   6.047  0.7829 -2.3425  1.2131
13611TIP3   OH262323   2.838   5.724   6.424  0.2992 -0.0085 -0.0596
13611TIP3    H162324   2.887   5.642   6.422  0.1866 -0.1589  1.7684
13611TIP3    H262325   2.905   5.792   6.421  0.5944 -0.2081  1.3785
13612TIP3   OH262326   6.569   6.150   6.460 -0.0803 -0.4210 -0.0136
13612TIP3    H162327   6.665   6.149   6.460 -0.0569 -0.1960 -1.1859
13612TIP3    H262328   6.546   6.074   6.406 -0.5499 -0.1023 -0.2587
13613TIP3   OH262329   5.517   0.482  14.141  0.2748 -0.1725 -0.2267
13613TIP3    H162330   5.516   0.390  14.165 -0.4416 -0.7209 -2.1797
13613TIP3    H262331   5.471   0.486  14.057  0.8387  1.8704 -0.5046
13614TIP3   OH262332   5.258   6.021   2.066  0.2616  0.1536  0.3906
13614TIP3    H162333   5.322   5.957   2.096  0.8530  0.9977  1.0015
13614TIP3    H262334   5.288   6.045   1.978 -0.0429 -0.5012  0.1049
13615TIP3   OH262335   6.360   3.864  16.576 -0.1235 -0.3790 -0.0502
13615TIP3    H162336   6.269   3.886  16.561 -0.5086 -1.4082  0.6503
13615TIP3    H262337   6.394   3.936  16.629 -0.4984  0.0583 -0.4071
13616TIP3   OH262338   5.934   1.566  15.784  0.1107 -0.1236 -0.1893
13616TIP3    H162339   5.955   1.578  15.691  1.0392 -1.7432 -0.2413
13616TIP3    H262340   5.839   1.564  15.787  0.0667 -0.2680 -1.1616
13617TIP3   OH262341   5.303   5.400  13.317 -0.1976 -0.5864  0.0393
13617TIP3    H162342   5.213   5.366  13.309 -0.3084 -0.1547 -0.6352
13617TIP3    H262343   5.352   5.354  13.249  0.0136 -0.5653  0.1776
13618TIP3   OH262344   0.486   2.945  16.877  0.1363  0.3552 -0.2744
13618TIP3    H162345   0.560   2.921  16.932  0.8266 -0.2278 -1.4291
13618TIP3    H262346   0.516   3.021  16.828 -0.2368  0.4720 -0.3237
13619TIP3   OH262347   3.177   3.271   3.101 -0.0693  0.8031  0.0380
13619TIP3    H162348   3.111   3.204   3.080 -0.2866  0.7805  0.7630
13619TIP3    H262349   3.155   3.299   3.190  1.6195 -0.0739  0.7897
13620TIP3   OH262350   3.010   3.310  15.110 -0.1859  1.0875  0.0135
13620TIP3    H162351   3.092   3.280  15.073 -0.0544 -0.0480  1.1317
13620TIP3    H262352   2.975   3.373  15.047  0.3501 -0.2275 -1.6445
13621TIP3   OH262353   0.632   2.358  13.444  0.0633 -0.3853  0.0136
13621TIP3    H162354   0.657   2.420  13.376 -0.6466  0.7665  0.7762
13621TIP3    H262355   0.686   2.382  13.520  0.4176 -1.2772  0.0632
13622TIP3   OH262356   4.542   0.220  14.711  0.0628 -0.1352 -0.2280
13622TIP3    H162357   4.525   0.130  14.682 -1.3962 -0.1898  0.6696
13622TIP3    H262358   4.489   0.275  14.653 -2.7789 -0.2364  2.0100
13623TIP3   OH262359   2.357   6.249   6.037  0.2389  0.1931 -0.1467
13623TIP3    H162360   2.350   6.170   6.089 -0.1083  0.8240  0.7868
13623TIP3    H262361   2.388   6.219   5.951 -0.4238 -1.0035  0.0186
13624TIP3   OH262362   5.340   1.690   5.285 -0.0431  0.1220  0.2594
13624TIP3    H162363   5.263   1.639   5.259 -0.0374  0.6078 -0.7735
13624TIP3    H262364   5.343   1.762   5.222  2.5005 -1.0623 -1.1139
13625TIP3   OH262365   2.674   5.268  11.619  0.5782 -0.1141 -0.1103
13625TIP3    H162366   2.642   5.355  11.595 -1.5418 -0.9312 -0.4403
13625TIP3    H262367   2.742   5.249  11.554  0.9381  1.1868 -0.1441
13626TIP3   OH262368   4.612   5.089  14.410 -0.1093 -0.3568  0.7130
13626TIP3    H162369   4.613   5.118  14.501 -0.1180  0.0008  0.5982
13626TIP3    H262370   4.633   4.995  14.415  0.7068 -0.1611  1.0125
13627TIP3   OH262371   5.863   6.369   6.514 -0.4138  0.3399 -0.1821
13627TIP3    H162372   5.951   6.406   6.521  0.0401 -0.8662  0.9273
13627TIP3    H262373   5.826   6.377   6.602 -0.9513 -0.2344 -0.3413
13628TIP3   OH262374   0.807   2.505  11.789  0.1151 -0.7248 -0.0111
13628TIP3    H162375   0.785   2.591  11.827  0.9062 -0.9163  0.9245
13628TIP3    H262376   0.722   2.468  11.764 -0.6607 -1.1824  2.9122
13629TIP3   OH262377   1.341   4.080  10.822  0.4720  0.5233 -0.2366
13629TIP3    H162378   1.294   4.093  10.905  1.2788  1.9977  0.0416
13629TIP3    H262379   1.273   4.059  10.759 -0.9585  4.2159 -0.2151
13630TIP3   OH262380   2.042   0.573   5.395  0.8665 -0.0299  0.2563
13630TIP3    H162381   2.021   0.482   5.417  2.2840 -0.3010  0.5645
13630TIP3    H262382   2.031   0.621   5.477  1.8433 -0.2524  0.5278
13631TIP3   OH262383   5.792   6.564  11.865  0.7400  0.2657  0.3583
13631TIP3    H162384   5.718   6.589  11.810 -0.3586 -2.7620  0.3044
13631TIP3    H262385   5.764   6.585  11.954  0.0681 -0.2314  0.2710
13632TIP3   OH262386   2.895   6.388   3.545  0.1771 -0.5380  0.1206
13632TIP3    H162387   2.935   6.454   3.602 -1.7110 -0.5766  1.5854
13632TIP3    H262388   2.871   6.317   3.604 -0.5073 -1.2326 -0.9757
13633TIP3   OH262389   5.235   5.534  16.472  0.4243 -0.4577  0.4328
13633TIP3    H162390   5.205   5.576  16.552  0.0241 -1.1788  0.6688
13633TIP3    H262391   5.240   5.606  16.408  0.0558  0.0014  0.9064
13634TIP3   OH262392   6.047   5.151   0.295 -0.3759  0.4680 -0.0326
13634TIP3    H162393   5.996   5.142   0.214  1.7953 -1.0419 -1.3263
13634TIP3    H262394   6.102   5.228   0.280 -0.2092  0.3893  0.1816
13635TIP3   OH262395   5.134   4.723   6.291  0.0830  0.1535  0.2441
13635TIP3    H162396   5.136   4.659   6.362  1.5372 -0.5011 -0.3389
13635TIP3    H262397   5.095   4.801   6.331  0.6477 -0.2662  1.7173
13636TIP3   OH262398   3.651   5.793   4.619  0.3006  0.2486  0.3772
13636TIP3    H162399   3.701   5.872   4.637 -1.6105  1.5990  0.1438
13636TIP3    H262400   3.692   5.755   4.542  1.6136  0.6685  0.8471
13637TIP3   OH262401   5.941   6.026  15.607  0.4322 -0.0858  0.5391
13637TIP3    H162402   5.933   5.948  15.552 -0.6579  0.3198  0.0868
13637TIP3    H262403   6.018   6.072  15.572  0.3030 -0.3021 -0.0438
13638TIP3   OH262404   0.188   3.939   3.662 -0.0655 -0.2646 -0.2320
13638TIP3    H162405   0.118   3.939   3.598 -0.2707 -3.7932 -0.1991
13638TIP3    H262406   0.148   3.904   3.742  0.7732  1.7144  1.1274
13639TIP3   OH262407   4.685   4.955   5.437  0.5733 -0.1682  0.1301
13639TIP3    H162408   4.659   4.879   5.490  0.3695  0.3546  0.7889
13639TIP3    H262409   4.619   5.021   5.456  1.3088  0.5197  0.3229
13640TIP3   OH262410   1.527   2.659  14.128 -0.3118  0.3801 -0.4719
13640TIP3    H162411   1.608   2.707  14.146  0.0126 -0.3151 -0.0240
13640TIP3    H262412   1.528   2.646  14.034  0.2819  0.0702 -0.4315
13641TIP3   OH262413   5.874   0.561   4.726  0.0130  0.1579 -0.8053
13641TIP3    H162414   5.872   0.657   4.718 -0.5200  0.2210  0.0341
13641TIP3    H262415   5.824   0.530   4.650  0.9765  0.4988 -1.6060
13642TIP3   OH262416   0.439   1.083   3.649 -0.6028 -0.6340 -0.1301
13642TIP3    H162417   0.347   1.076   3.625 -0.7466 -0.2360  0.2999
13642TIP3    H262418   0.451   1.016   3.717 -0.3993 -1.1734 -0.6851
13643TIP3   OH262419   1.136   4.774   5.510  0.1893  0.4049 -0.1792
13643TIP3    H162420   1.220   4.728   5.516 -0.5185 -1.5639 -3.0482
13643TIP3    H262421   1.071   4.707   5.532 -0.7197  1.3065 -0.0336
13644TIP3   OH262422   3.455   4.236  16.450 -0.7455  0.7932  0.3721
13644TIP3    H162423   3.454   4.160  16.392 -0.8243  1.4167 -0.4787
13644TIP3    H262424   3.540   4.278  16.433 -0.3976  0.5131  1.3619
13645TIP3   OH262425   0.390   6.263   0.036 -0.3487 -0.0185  0.3521
13645TIP3    H162426   0.389   6.220   0.121  1.8052  0.2577  0.5782
13645TIP3    H262427   0.464   6.324   0.041 -0.3887  0.2551 -1.6043
13646TIP3   OH262428   4.564   0.727  16.725  0.0468 -0.5049  0.2127
13646TIP3    H162429   4.642   0.675  16.708 -0.0686 -0.0691 -1.8565
13646TIP3    H262430   4.596   0.816  16.738  0.0078 -0.5947  0.9864
13647TIP3   OH262431   5.650   6.702  14.750  0.5409 -0.3234  0.5787
13647TIP3    H162432   5.725   6.704  14.690 -0.0065 -1.9293 -0.2381
13647TIP3    H262433   5.666   6.626  14.806 -0.7441 -1.0755 -0.0210
13648TIP3   OH262434   0.788   5.995  12.499  0.0204 -0.2524 -0.1817
13648TIP3    H162435   0.723   5.958  12.559  0.2375 -1.6984 -0.7982
13648TIP3    H262436   0.735   6.032  12.428 -0.1764 -1.7557 -0.8709
13649TIP3   OH262437   0.317   0.762  15.579  0.1206  0.0041 -0.3924
13649TIP3    H162438   0.336   0.750  15.672  0.1526 -0.2411 -0.4303
13649TIP3    H262439   0.313   0.673  15.543  0.3748  0.1082 -0.6803
13650TIP3   OH262440   3.873   2.526  16.476  0.4436  0.0251  0.8087
13650TIP3    H162441   3.907   2.525  16.387  1.0654  0.6453  1.0273
13650TIP3    H262442   3.934   2.581  16.525  0.3720 -0.6809  1.7279
13651TIP3   OH262443   3.044   1.501   5.677 -0.2917  0.4967 -0.7898
13651TIP3    H162444   2.985   1.517   5.751  1.2374  3.0824  0.0090
13651TIP3    H262445   2.999   1.541   5.602 -0.0882  1.4498 -0.4158
13652TIP3   OH262446   1.052   6.797   0.216  0.1479  0.2031  0.0172
13652TIP3    H162447   1.129   6.779   0.162 -2.2684 -3.0954 -2.7729
13652TIP3    H262448   1.021   6.711   0.243 -2.6023  1.3717  0.9393
13653TIP3   OH262449   1.974   3.235  15.193 -0.5151  0.1520 -0.1308
13653TIP3    H162450   2.052   3.189  15.221 -1.0094 -1.2927 -1.0033
13653TIP3    H262451   1.993   3.328  15.209  0.7790 -0.2849  1.0291
13654TIP3   OH262452   0.765   3.653  15.828 -0.0409  0.2063  0.0912
13654TIP3    H162453   0.783   3.696  15.745  2.2319  0.4577  0.6617
13654TIP3    H262454   0.818   3.574  15.826  2.5053  1.7039  2.4747
13655TIP3   OH262455   6.820   1.604   0.531  0.5642  0.0050  0.1185
13655TIP3    H162456   6.797   1.512   0.538  2.3619 -0.4457  0.8478
13655TIP3    H262457   6.876   1.620   0.607 -1.0996  2.1725  0.9914
13656TIP3   OH262458   6.520   3.822   1.109  0.7518  0.0967 -0.4393
13656TIP3    H162459   6.564   3.779   1.036  0.4423 -0.5942 -0.2245
13656TIP3    H262460   6.454   3.759   1.138 -0.1703  0.9828 -0.5611
13657TIP3   OH262461   2.845   0.120  16.505 -0.2245  0.7482 -0.1915
13657TIP3    H162462   2.922   0.173  16.484  0.2967  0.1807  0.2490
13657TIP3    H262463   2.773   0.165  16.461  0.3562  1.2760 -0.6313
13658TIP3   OH262464   3.657   4.574  13.031 -0.0996  0.3728 -0.4579
13658TIP3    H162465   3.736   4.557  13.083 -0.5767  1.5104  0.6866
13658TIP3    H262466   3.625   4.486  13.009  0.6202 -0.1319  0.3971
13659TIP3   OH262467   5.660   5.158  11.664 -0.1032 -0.1415  0.1008
13659TIP3    H162468   5.623   5.233  11.618 -0.2078  1.2047  2.2529
13659TIP3    H262469   5.746   5.189  11.694 -0.2068 -0.8183  1.1319
13660TIP3   OH262470   6.276   4.937   3.209  0.3545 -0.2461  0.3032
13660TIP3    H162471   6.284   5.023   3.251  0.4993 -0.1706  0.1192
13660TIP3    H262472   6.311   4.876   3.273  0.8108 -0.1035  0.1917
13661TIP3   OH262473   0.621   2.644  11.128  0.0913 -0.8457  0.1233
13661TIP3    H162474   0.540   2.695  11.134  0.1917 -0.7845  1.0487
13661TIP3    H262475   0.689   2.704  11.157  0.3677 -1.1411  0.0840
13662TIP3   OH262476   1.352   2.744  10.786  0.0101  0.1497  0.3585
13662TIP3    H162477   1.399   2.665  10.813  0.8383 -0.4917 -2.6731
13662TIP3    H262478   1.260   2.717  10.786  0.1318 -0.2992  0.8724
13663TIP3   OH262479   0.076   0.076  15.514 -0.1662 -0.0344 -0.8641
13663TIP3    H162480   0.058   0.169  15.533 -1.0848 -0.1145 -1.2653
13663TIP3    H262481   0.142   0.078  15.445  1.6668  0.2774  0.8138
13664TIP3   OH262482   0.137   3.720  11.815  0.1552  0.4084 -0.1081
13664TIP3    H162483   0.166   3.633  11.839 -0.5564 -0.5430 -2.4584
13664TIP3    H262484   0.042   3.718  11.827  0.2022  1.1146  0.4982
13665TIP3   OH262485   1.176   3.038   2.657 -0.1638  0.0914 -0.5323
13665TIP3    H162486   1.263   3.017   2.690 -0.4740 -1.4373 -0.6185
13665TIP3    H262487   1.161   2.976   2.586 -1.3961  0.2059 -0.3970
13666TIP3   OH262488   5.960   0.657   1.460  0.3658  0.4496  0.1426
13666TIP3    H162489   5.998   0.603   1.390  1.6320  0.6825  0.6259
13666TIP3    H262490   5.894   0.600   1.500 -0.2400  0.2413 -1.0829
13667TIP3   OH262491   1.750   6.063   0.978  0.0783 -0.4490  0.1594
13667TIP3    H162492   1.722   5.985   1.026 -0.4717 -0.5164 -0.2551
13667TIP3    H262493   1.841   6.075   1.003  0.3132 -1.4961 -0.1301
13668TIP3   OH262494   0.439   2.903   5.253  0.2262  0.1535  0.6999
13668TIP3    H162495   0.463   2.968   5.187  0.2268 -0.4964  0.0425
13668TIP3    H262496   0.516   2.894   5.308 -0.3224  1.9032  1.8167
13669TIP3   OH262497   6.011   6.671   3.150  0.2959 -0.3235 -0.2223
13669TIP3    H162498   6.021   6.660   3.244 -0.8377 -3.8050 -0.3403
13669TIP3    H262499   5.917   6.686   3.138  0.7644  2.6525 -0.7297
13670TIP3   OH262500   6.131   3.686  17.045 -0.2763  0.2589  0.1632
13670TIP3    H162501   6.066   3.631  17.087  0.2224 -1.5415 -1.2750
13670TIP3    H262502   6.082   3.761  17.012 -1.5199 -0.7442 -0.3447
13671TIP3   OH262503   2.486   3.715  12.692 -0.6820 -0.1574 -0.3202
13671TIP3    H162504   2.581   3.717  12.695 -0.6525 -1.3133  0.2552
13671TIP3    H262505   2.461   3.792  12.640  0.6419 -0.9164 -2.2003
13672TIP3   OH262506   1.663   3.155  14.757  0.3738  0.1203 -0.0689
13672TIP3    H162507   1.700   3.133  14.842 -1.1767  1.4601  1.0128
13672TIP3    H262508   1.651   3.250  14.760 -1.6953 -0.0722 -0.9478
13673TIP3   OH262509   0.007   3.815   4.555 -0.4140 -0.2475  0.3290
13673TIP3    H162510  -0.069   3.801   4.498 -0.5120  0.5684  0.2502
13673TIP3    H262511   0.077   3.765   4.513 -0.0295  1.6796 -1.5099
13674TIP3   OH262512   2.350   6.019  13.031  0.5476  0.5881 -0.0068
13674TIP3    H162513   2.302   6.016  13.113  0.9851 -2.6496  0.2467
13674TIP3    H262514   2.286   6.047  12.966 -0.6029  0.2021  0.9346
13675TIP3   OH262515   0.715   0.574  15.820  0.1604  0.4696 -0.2139
13675TIP3    H162516   0.792   0.563  15.764 -0.1730  1.4710 -0.8764
13675TIP3    H262517   0.745   0.632  15.890  0.6239 -0.9099  0.7706
13676TIP3   OH262518   1.157   5.838  13.927 -0.7132 -0.2265  0.1954
13676TIP3    H162519   1.249   5.862  13.914 -0.8101  0.1280  0.1532
13676TIP3    H262520   1.160   5.764  13.988 -0.2888 -1.4311 -1.2203
13677TIP3   OH262521   0.197   0.608   1.127 -0.4553  0.1211 -0.1210
13677TIP3    H162522   0.281   0.653   1.114 -0.8652  0.3466 -2.2233
13677TIP3    H262523   0.198   0.583   1.220  2.9440 -1.8830 -0.5280
13678TIP3   OH262524   5.560   3.026  12.907 -0.6364  0.4319 -0.3413
13678TIP3    H162525   5.566   2.954  12.970 -0.2909  0.0856 -0.7631
13678TIP3    H262526   5.490   3.082  12.940 -1.3960 -0.4709 -0.3958
13679TIP3   OH262527   1.890   2.815   0.328 -0.0835 -0.2538  0.6939
13679TIP3    H162528   1.854   2.727   0.324 -0.4132 -0.0674 -1.0980
13679TIP3    H262529   1.854   2.852   0.409 -2.0196 -0.8887  0.1737
13680TIP3   OH262530   5.832   6.752   1.271  0.5139  0.1227 -0.5382
13680TIP3    H162531   5.741   6.723   1.281  0.6291 -0.7808 -1.7971
13680TIP3    H262532   5.884   6.672   1.279  0.9523  0.1244 -2.6429
13681TIP3   OH262533   0.489   6.084  10.397 -0.1269  0.1910  0.6831
13681TIP3    H162534   0.542   6.047  10.467  1.3114  0.1580 -0.3708
13681TIP3    H262535   0.471   6.174  10.424 -1.4845 -0.4746  2.0895
13682TIP3   OH262536   2.659   0.776  16.228  0.0567  0.5106 -0.3844
13682TIP3    H162537   2.722   0.711  16.199  0.0207 -0.2489  1.1409
13682TIP3    H262538   2.712   0.845  16.268  0.0453  1.0444 -1.2690
13683TIP3   OH262539   6.450   1.238   3.797  0.4436 -1.1287 -0.6347
13683TIP3    H162540   6.428   1.195   3.715 -0.7931 -0.3334 -0.7541
13683TIP3    H262541   6.382   1.209   3.858  1.7062 -2.2154  0.3116
13684TIP3   OH262542   2.899   3.630  11.432 -0.2165  0.4437  1.0355
13684TIP3    H162543   2.834   3.560  11.438 -1.2827  1.4446  1.5731
13684TIP3    H262544   2.864   3.700  11.488  0.2408  1.8587 -0.3852
13685TIP3   OH262545   3.346   0.885  15.029 -0.1171  0.2177  0.2022
13685TIP3    H162546   3.297   0.891  15.111 -1.6354  0.7611 -0.7150
13685TIP3    H262547   3.438   0.886  15.056 -0.5812 -0.5411  1.9495
13686TIP3   OH262548   1.054   5.238  16.826 -0.0886 -0.2294 -0.0483
13686TIP3    H162549   1.011   5.318  16.856  0.6272 -0.0851  0.6310
13686TIP3    H262550   1.137   5.237  16.873  0.1166 -1.1281 -0.4176
13687TIP3   OH262551   3.852   0.219   6.285  0.1481  0.4864 -0.2477
13687TIP3    H162552   3.793   0.147   6.308 -0.4242  0.5400 -1.4589
13687TIP3    H262553   3.871   0.262   6.368 -0.1252 -0.5894  0.3908
13688TIP3   OH262554   0.059   5.874  14.524  0.2079  0.0721  0.1707
13688TIP3    H162555  -0.004   5.901  14.590 -2.4014 -2.9273 -0.8769
13688TIP3    H262556   0.114   5.810  14.568 -1.4970 -1.8860 -0.4115
13689TIP3   OH262557   0.992   6.727  17.011  0.1058 -0.1248  0.2403
13689TIP3    H162558   1.079   6.687  17.019  0.5744  0.2661 -2.2577
13689TIP3    H262559   0.972   6.723  16.918 -2.1690  0.6658  0.6363
13690TIP3   OH262560   0.342   5.587   0.412  0.2587  0.2514  0.1790
13690TIP3    H162561   0.253   5.553   0.421  0.4199 -0.1809  0.1674
13690TIP3    H262562   0.334   5.681   0.429 -0.3425  0.3683 -0.6453
13691TIP3   OH262563   5.442   5.342   3.494 -0.0357  0.3113 -0.0190
13691TIP3    H162564   5.478   5.399   3.426  0.0616 -1.2673 -1.3379
13691TIP3    H262565   5.514   5.282   3.516 -0.4878 -0.0405  0.5201
13692TIP3   OH262566   0.834   5.498   5.700  0.7209 -0.0088  0.3518
13692TIP3    H162567   0.892   5.430   5.733 -0.5086 -0.0534  2.6616
13692TIP3    H262568   0.780   5.521   5.775 -2.5406 -0.2596 -1.7323
13693TIP3   OH262569   6.235   5.099  16.960  0.4192  0.3803 -0.8618
13693TIP3    H162570   6.186   5.058  16.889 -0.3429  1.4691 -0.9996
13693TIP3    H262571   6.265   5.027  17.015 -0.8212 -0.3444 -1.1182
13694TIP3   OH262572   4.869   3.617  16.069  0.0570 -0.0679 -0.0256
13694TIP3    H162573   4.781   3.581  16.058 -0.2751  0.8461 -0.4422
13694TIP3    H262574   4.925   3.540  16.077 -0.8652 -0.6682  1.0444
13695TIP3   OH262575   3.956   1.375  14.961 -0.8059  0.0874 -0.0825
13695TIP3    H162576   3.978   1.467  14.943 -2.0368  0.5236  0.4970
13695TIP3    H262577   3.958   1.333  14.875  2.1323  0.0701 -0.0950
13696TIP3   OH262578   3.433   1.061   4.483  0.3838  0.3975  0.6193
13696TIP3    H162579   3.497   1.020   4.541  0.8836  0.6072  0.2269
13696TIP3    H262580   3.486   1.119   4.427 -0.0399 -0.0513 -0.2665
13697TIP3   OH262581   5.832   3.710  13.764  0.4568  0.8163  0.2460
13697TIP3    H162582   5.750   3.663  13.751 -0.0694  2.1439 -1.6201
13697TIP3    H262583   5.897   3.640  13.777 -0.5064 -0.4118 -1.1021
13698TIP3   OH262584   2.016   1.919  14.516  0.4188 -0.1485  0.2590
13698TIP3    H162585   1.957   1.875  14.455 -1.3646  0.3861  1.4988
13698TIP3    H262586   1.986   1.892  14.603  2.8907 -0.8933  0.9526
13699TIP3   OH262587   0.608   6.737  12.200  0.0324 -0.0594 -0.3740
13699TIP3    H162588   0.565   6.790  12.132  0.8890  0.0272 -0.8735
13699TIP3    H262589   0.697   6.725  12.166  1.2583  2.0041  1.8032
13700TIP3   OH262590   5.948   5.895   4.609 -0.0363  0.2644  0.4597
13700TIP3    H162591   5.925   5.949   4.534  0.0576 -2.4220 -1.6389
13700TIP3    H262592   5.884   5.918   4.676 -2.6402  0.0178 -1.8099
13701TIP3   OH262593   5.813   3.985  15.488 -0.2811  0.4286  0.0941
13701TIP3    H162594   5.823   3.892  15.467 -0.9244  0.1602  0.9081
13701TIP3    H262595   5.792   4.026  15.405  1.0779  0.0275 -0.4835
13702TIP3   OH262596   6.844   1.169  16.545 -0.3581  0.5586 -0.0818
13702TIP3    H162597   6.837   1.182  16.640  0.4011 -0.4629  0.1293
13702TIP3    H262598   6.771   1.113  16.522 -0.1303  0.2131  0.0281
13703TIP3   OH262599   1.550   5.690  11.684 -0.1961 -0.6088 -0.6571
13703TIP3    H162600   1.637   5.692  11.723  0.3762 -0.8727 -1.8763
13703TIP3    H262601   1.500   5.631  11.740  0.4231 -0.5022  0.0202
13704TIP3   OH262602   3.149   4.196  15.881 -0.2366  0.6432  0.1040
13704TIP3    H162603   3.203   4.206  15.959 -0.9276  0.4772  0.6119
13704TIP3    H262604   3.212   4.198  15.808  0.3189  1.7919  0.5939
13705TIP3   OH262605   1.354   0.040  12.150  0.4181 -0.2537 -0.0065
13705TIP3    H162606   1.375   0.123  12.106 -2.5058 -0.7328 -2.7122
13705TIP3    H262607   1.391  -0.027  12.093  0.5784 -0.8779  0.8166
13706TIP3   OH262608   3.186   0.342   0.030  0.1430 -0.4631 -0.3563
13706TIP3    H162609   3.189   0.368   0.122  0.4806 -2.7553  0.3543
13706TIP3    H262610   3.189   0.424  -0.019 -1.8988  0.9305  1.6693
13707TIP3   OH262611   0.738   0.978  13.257 -0.4838  0.2843  0.2538
13707TIP3    H162612   0.730   0.910  13.324 -2.4418  1.4216  1.2922
13707TIP3    H262613   0.656   0.973  13.208  0.4208  0.2794 -1.2978
13708TIP3   OH262614   5.997   6.247   5.978 -0.4096 -0.2944  0.6002
13708TIP3    H162615   5.926   6.286   5.927  0.1447  1.0234  0.8125
13708TIP3    H262616   5.971   6.259   6.069 -1.6326 -3.0696  0.7372
13709TIP3   OH262617   1.655   5.991   4.498 -0.4305  0.6401  0.3220
13709TIP3    H162618   1.575   6.030   4.533 -1.4502  0.0585 -1.2638
13709TIP3    H262619   1.723   6.056   4.515 -1.2040  1.1203  1.7656
13710TIP3   OH262620   4.485   4.288   3.193  0.4983  0.1898  0.3645
13710TIP3    H162621   4.452   4.322   3.276 -0.0176  1.2322 -0.2344
13710TIP3    H262622   4.548   4.220   3.217  1.1585  1.2027  1.6358
13711TIP3   OH262623   3.324   5.015   3.877 -0.2335  0.1003 -0.2778
13711TIP3    H162624   3.327   5.076   3.950 -0.8395 -0.2963  0.0904
13711TIP3    H262625   3.297   5.068   3.802 -2.0789  0.0544  0.3110
13712TIP3   OH262626   2.990   0.969   2.479  0.5106  0.1956  0.0749
13712TIP3    H162627   3.031   1.053   2.458  0.3864  0.4957  0.9573
13712TIP3    H262628   2.911   0.993   2.527 -0.2749 -0.3983 -0.8871
13713TIP3   OH262629   2.887   1.826  16.642  0.2257 -0.0849  0.1772
13713TIP3    H162630   2.792   1.833  16.632  0.0800 -0.5472  1.1127
13713TIP3    H262631   2.915   1.914  16.668 -0.2027 -0.3682  1.6969
13714TIP3   OH262632   0.288   0.459  13.615  0.1040  0.0732 -0.1712
13714TIP3    H162633   0.219   0.422  13.559  2.5137 -2.8932 -1.5049
13714TIP3    H262634   0.265   0.430  13.703 -0.9341  0.1112 -0.4130
13715TIP3   OH262635   1.203   3.113   1.427 -0.3526  0.6498  0.2313
13715TIP3    H162636   1.197   3.020   1.447 -0.0266  0.0200 -2.2798
13715TIP3    H262637   1.297   3.133   1.436 -0.4996  0.9304  1.3592
13716TIP3   OH262638   2.222   4.401  13.819 -0.2350  0.1829  0.3558
13716TIP3    H162639   2.315   4.405  13.842 -0.5751  1.2317  1.6708
13716TIP3    H262640   2.178   4.374  13.899 -1.2132  1.2701  0.2236
13717TIP3   OH262641   4.362   0.493   3.083 -0.9247 -0.4595  0.2464
13717TIP3    H162642   4.396   0.408   3.055  1.0016  0.1206  0.7268
13717TIP3    H262643   4.279   0.502   3.035 -0.6741 -2.1530 -0.5728
13718TIP3   OH262644   5.000   3.716   3.595 -0.3647  0.7083 -0.1487
13718TIP3    H162645   5.015   3.747   3.506  0.0603 -0.3504 -0.4535
13718TIP3    H262646   4.998   3.621   3.588  0.7053  0.5680  1.1277
13719TIP3   OH262647   4.371   1.504  14.496  0.1667  0.0508 -0.2368
13719TIP3    H162648   4.354   1.559  14.420 -0.6348 -0.3821 -0.3790
13719TIP3    H262649   4.465   1.512  14.510  0.4298 -0.2890 -1.6171
13720TIP3   OH262650   5.578   0.578   2.691 -0.0371  0.1004  0.2974
13720TIP3    H162651   5.485   0.561   2.708 -0.3085  1.9493  0.9631
13720TIP3    H262652   5.623   0.546   2.769 -0.3010  0.4914  0.6188
13721TIP3   OH262653   1.667   3.400  15.925  0.8978 -0.1674  0.7760
13721TIP3    H162654   1.697   3.357  15.845 -1.4483  0.1251 -0.3812
13721TIP3    H262655   1.686   3.493  15.910 -4.0097  0.8066 -2.0805
13722TIP3   OH262656   4.199   2.211  14.226  0.2472 -0.2032  0.2347
13722TIP3    H162657   4.280   2.254  14.253  1.2269 -1.4710 -0.5661
13722TIP3    H262658   4.195   2.224  14.131 -1.7288  1.8310  0.5111
13723TIP3   OH262659   6.526   6.013  15.439 -0.6727 -0.6018  0.0929
13723TIP3    H162660   6.611   5.971  15.427 -0.4833 -0.0147 -0.7265
13723TIP3    H262661   6.480   5.958  15.503 -0.0238 -1.4293 -0.1388
13724TIP3   OH262662   2.549   1.958   5.538  0.2818 -0.9186 -0.5321
13724TIP3    H162663   2.604   1.881   5.556  0.0169 -0.8818  0.5263
13724TIP3    H262664   2.601   2.011   5.479  2.3318  0.0949  2.0064
13725TIP3   OH262665   1.812   0.272   1.707  0.0932 -0.2423 -0.3480
13725TIP3    H162666   1.811   0.350   1.763 -1.1083 -0.5877  0.1396
13725TIP3    H262667   1.729   0.275   1.660 -0.5623 -1.8802  0.6354
13726TIP3   OH262668   2.417   2.798  12.254  0.1203  0.1493  0.0120
13726TIP3    H162669   2.501   2.785  12.211  0.4058 -0.1905  0.6526
13726TIP3    H262670   2.352   2.772  12.189  0.5355 -0.1857 -0.2726
13727TIP3   OH262671   1.748   2.841  14.566 -0.5295 -0.1013  0.3931
13727TIP3    H162672   1.788   2.895  14.634  0.5876 -2.3560  1.6588
13727TIP3    H262673   1.693   2.779  14.613 -0.0393 -1.4752 -0.7408
13728TIP3   OH262674   6.204   0.484  13.575  0.6034 -0.1698  0.1659
13728TIP3    H162675   6.282   0.536  13.593  0.1849  0.6443 -0.3357
13728TIP3    H262676   6.198   0.423  13.649  3.1842 -2.0671 -1.0162
13729TIP3   OH262677   5.291   5.879  12.378  0.5214  0.4061  0.1620
13729TIP3    H162678   5.380   5.897  12.407  0.4150  0.0561  0.7023
13729TIP3    H262679   5.246   5.964  12.384  0.8501  0.6129 -0.2457
13730TIP3   OH262680   3.548   4.072  15.791 -0.2030 -0.4481  0.3857
13730TIP3    H162681   3.559   4.049  15.883  0.6655  1.1560  0.7221
13730TIP3    H262682   3.629   4.118  15.768 -0.3486 -0.9508 -1.2253
13731TIP3   OH262683   0.085   5.045  11.873 -0.3268 -0.7082 -0.8536
13731TIP3    H162684   0.137   4.971  11.903  1.3435  0.5423 -0.4943
13731TIP3    H262685   0.025   5.064  11.945  2.5887  1.3011  1.2743
13732TIP3   OH262686   3.066   5.199  16.671  0.5251  0.2182 -0.1512
13732TIP3    H162687   3.104   5.112  16.665  1.9978  0.8500 -0.3057
13732TIP3    H262688   3.082   5.227  16.761 -2.0805 -0.5710  0.6526
13733TIP3   OH262689   0.668   5.757   2.497  0.3280 -0.4266  0.0109
13733TIP3    H162690   0.581   5.795   2.509  0.4068 -0.2584  0.0512
13733TIP3    H262691   0.714   5.819   2.440  1.4717  1.1362  2.4582
13734TIP3   OH262692   4.406   3.735  11.217  0.1785  0.3787  0.8517
13734TIP3    H162693   4.469   3.768  11.152  1.0513 -0.5638  1.1944
13734TIP3    H262694   4.334   3.798  11.214  1.8030  2.3868  1.5366
13735TIP3   OH262695   0.056   2.479  14.522  0.1685  0.3434 -0.4324
13735TIP3    H162696   0.059   2.505  14.615 -0.6787  1.1589 -0.6195
13735TIP3    H262697   0.045   2.384  14.524 -0.1296  0.3868  0.3109
13736TIP3   OH262698   0.204   2.242   2.809  0.2308  0.3212  0.3617
13736TIP3    H162699   0.118   2.210   2.835  0.8311  0.2562  2.4405
13736TIP3    H262700   0.235   2.178   2.744 -1.2579  0.3559 -0.4272
13737TIP3   OH262701   5.586   5.799   3.507 -0.3717  0.0201  0.0889
13737TIP3    H162702   5.555   5.875   3.459 -0.2657 -0.3560 -0.5834
13737TIP3    H262703   5.535   5.800   3.589  0.1004  1.1798  0.3954
13738TIP3   OH262704   1.442   0.585  10.508  0.1262  0.1688  0.6930
13738TIP3    H162705   1.354   0.556  10.531 -0.4580  0.6917 -0.7683
13738TIP3    H262706   1.433   0.678  10.488  0.9666  0.1939  0.3540
13739TIP3   OH262707   4.377   1.014  13.190  0.4846 -0.5286 -0.0928
13739TIP3    H162708   4.470   1.036  13.181 -0.0628  4.4601  2.8944
13739TIP3    H262709   4.371   0.969  13.275  0.0558  0.3395  0.3416
13740TIP3   OH262710   6.502   2.292  15.746 -0.1975 -0.4117 -0.6386
13740TIP3    H162711   6.562   2.238  15.798 -0.6584 -0.6745 -0.3721
13740TIP3    H262712   6.415   2.259  15.768 -0.4946  0.4628 -0.4413
13741TIP3   OH262713   5.518   4.268   5.455  0.5663  0.6538  0.0873
13741TIP3    H162714   5.442   4.283   5.399  0.1785  2.7048  1.0493
13741TIP3    H262715   5.481   4.236   5.537  1.0046 -0.8968 -0.2863
13742TIP3   OH262716   2.581   2.742   0.908 -0.1832  0.5771 -0.1074
13742TIP3    H162717   2.665   2.696   0.896 -0.8909 -1.5564  2.2175
13742TIP3    H262718   2.581   2.768   1.000 -1.9655  0.8052 -0.1468
13743TIP3   OH262719   0.948   3.353  14.327  0.4213 -0.4812  0.2889
13743TIP3    H162720   1.043   3.339  14.318  0.9525  2.2949  0.6582
13743TIP3    H262721   0.923   3.298  14.401  1.5547 -1.8538 -0.2913
13744TIP3   OH262722   0.036   3.875   1.728 -0.1364  0.2964 -0.5521
13744TIP3    H162723   0.061   3.967   1.739  1.6129  0.1587 -2.7354
13744TIP3    H262724  -0.029   3.875   1.658 -0.3359 -0.1130 -0.3705
13745TIP3   OH262725   2.937   2.028  11.456 -0.1388 -0.5306  0.2589
13745TIP3    H162726   2.990   1.950  11.470  1.0389  0.1558 -0.3097
13745TIP3    H262727   2.981   2.097  11.506 -1.3285 -0.2768  1.0022
13746TIP3   OH262728   3.417   6.255   3.661 -0.2386  0.6715  0.6082
13746TIP3    H162729   3.369   6.217   3.587  0.3013 -0.6293  0.8860
13746TIP3    H262730   3.509   6.246   3.636 -0.0347  4.5782 -0.6360
13747TIP3   OH262731   0.129   0.566   3.836 -0.0867  0.2311 -0.0088
13747TIP3    H162732   0.085   0.514   3.903 -0.0620 -0.0322 -0.1985
13747TIP3    H262733   0.221   0.563   3.861 -0.2356  1.3318  0.7707
13748TIP3   OH262734   6.397   4.335  11.595  0.1043 -0.0717 -0.0822
13748TIP3    H162735   6.435   4.249  11.614 -0.7541 -0.2403  0.9818
13748TIP3    H262736   6.427   4.391  11.666 -0.8247  0.0353  0.2375
13749TIP3   OH262737   3.254   5.520   3.247 -0.0445  0.1698 -0.2895
13749TIP3    H162738   3.347   5.535   3.229  1.0158 -3.1953  1.5426
13749TIP3    H262739   3.219   5.484   3.166  1.6679 -3.4029  0.3698
13750TIP3   OH262740   1.046   1.421  13.302  0.2615  0.3247 -0.0364
13750TIP3    H162741   0.994   1.468  13.367 -0.4774  1.8171 -1.5945
13750TIP3    H262742   1.012   1.453  13.218  0.9652 -1.7353 -1.1650
13751TIP3   OH262743   3.337   0.787   3.415 -0.3737  0.0568  0.3523
13751TIP3    H162744   3.273   0.838   3.465  0.5945  0.1055  1.5937
13751TIP3    H262745   3.335   0.700   3.454 -0.9110 -0.4512 -0.7528
13752TIP3   OH262746   5.597   5.783   4.475 -0.1229  0.0158  0.1467
13752TIP3    H162747   5.525   5.770   4.413  0.6458 -1.5977 -0.4755
13752TIP3    H262748   5.670   5.733   4.438  1.4687  1.9292  0.5538
13753TIP3   OH262749   3.108   5.107   5.130 -0.5049  0.2882 -0.1499
13753TIP3    H162750   3.195   5.084   5.097  0.0042 -0.0318  1.3388
13753TIP3    H262751   3.077   5.027   5.173 -0.3599  1.1887  1.7045
13754TIP3   OH262752   6.642   5.282  13.524  0.2872  0.0674  0.2490
13754TIP3    H162753   6.700   5.276  13.448  2.2089  0.4131  1.5997
13754TIP3    H262754   6.630   5.376  13.539  0.2957  0.0111  0.6298
13755TIP3   OH262755   2.803   1.605  16.410 -0.0728 -0.4544  0.1288
13755TIP3    H162756   2.849   1.635  16.488 -0.3523  0.1723  0.0614
13755TIP3    H262757   2.713   1.589  16.440 -0.2045 -0.1168 -0.0834
13756TIP3   OH262758   4.228   4.723  11.330  0.7008 -0.4900  0.0854
13756TIP3    H162759   4.147   4.773  11.324  0.9759  0.0504  0.7215
13756TIP3    H262760   4.206   4.637  11.295 -0.0074 -0.1868 -0.2312
13757TIP3   OH262761   2.470   4.600   2.518  0.1596 -0.4815 -0.5183
13757TIP3    H162762   2.513   4.539   2.459  0.7298 -0.4415 -0.1523
13757TIP3    H262763   2.408   4.547   2.567  0.9748 -0.8679  0.1217
13758TIP3   OH262764   4.358   3.739  16.353 -0.3842  0.2440 -0.4527
13758TIP3    H162765   4.367   3.645  16.344  1.2170  0.0150  2.3704
13758TIP3    H262766   4.289   3.763  16.290  1.2635 -2.2635 -3.4860
13759TIP3   OH262767   5.363   2.873  15.105 -0.1759 -0.3061 -0.1983
13759TIP3    H162768   5.329   2.874  15.194 -0.4536  2.1620 -0.2465
13759TIP3    H262769   5.287   2.888  15.050  0.2446  0.0762 -0.6867
13760TIP3   OH262770   2.179   0.368   4.893 -0.4566 -0.0749  0.2517
13760TIP3    H162771   2.237   0.423   4.945  2.0993  0.2815 -2.6656
13760TIP3    H262772   2.204   0.278   4.916 -1.0906  0.0308  1.3832
13761TIP3   OH262773   3.110   1.194   4.506 -0.2313 -0.0789  0.2870
13761TIP3    H162774   3.190   1.197   4.558  0.4181 -1.7273 -0.5523
13761TIP3    H262775   3.130   1.135   4.433 -1.5574  1.0878 -1.0870
13762TIP3   OH262776   2.904   3.368  13.748  0.0574  0.6409 -0.0363
13762TIP3    H162777   2.967   3.416  13.694  0.2214  0.5660  0.0907
13762TIP3    H262778   2.889   3.425  13.823  1.3717 -0.1434  0.8636
13763TIP3   OH262779   5.163   1.676   5.721  0.6842  0.2875 -0.1041
13763TIP3    H162780   5.149   1.621   5.798 -1.9756 -0.3015 -0.9325
13763TIP3    H262781   5.123   1.759   5.743  2.6971  1.2329  0.2643
13764TIP3   OH262782   3.994   6.171   5.836  0.2263  0.0149  0.1786
13764TIP3    H162783   4.046   6.207   5.764 -1.8197  0.1171 -1.3491
13764TIP3    H262784   3.994   6.239   5.903  0.2328  0.9127 -0.7166
13765TIP3   OH262785   1.805   0.114  11.084 -0.0621 -0.4418  0.1543
13765TIP3    H162786   1.898   0.127  11.099 -0.4109  1.0238  1.2723
13765TIP3    H262787   1.778   0.189  11.032 -0.6367 -0.8245 -0.1159
13766TIP3   OH262788   3.010   2.923  10.515 -0.1399 -1.1474 -0.1041
13766TIP3    H162789   2.970   3.009  10.525 -0.6213 -1.6239  2.8084
13766TIP3    H262790   3.098   2.941  10.482 -0.9438  0.2474 -1.6501
13767TIP3   OH262791   3.153   2.786  16.465  0.2028  0.7570  0.1283
13767TIP3    H162792   3.213   2.791  16.390  1.8460  3.2192  1.4673
13767TIP3    H262793   3.211   2.775  16.540 -1.4272 -1.9360  1.1144
13768TIP3   OH262794   3.084   4.061   5.907 -0.0431  0.4185  0.0051
13768TIP3    H162795   3.100   3.968   5.889 -0.5008  0.6018 -1.4950
13768TIP3    H262796   3.009   4.061   5.966  0.5399 -0.1781  0.7780
13769TIP3   OH262797   5.366   0.398   5.833 -1.0639 -0.2448 -0.3459
13769TIP3    H162798   5.321   0.377   5.915  1.4062  0.9160  1.4445
13769TIP3    H262799   5.438   0.456   5.859 -0.4204  0.5256 -3.4210
13770TIP3   OH262800   0.713   1.183   4.339 -0.2527  0.2274 -0.0875
13770TIP3    H162801   0.669   1.228   4.267 -0.7543 -0.6890 -0.3667
13770TIP3    H262802   0.669   1.216   4.418  0.2279  1.1527 -0.1877
13771TIP3   OH262803   5.352   0.034   0.695  0.3550 -0.0018  0.3246
13771TIP3    H162804   5.270   0.078   0.673  0.3366  0.1052  0.5989
13771TIP3    H262805   5.342  -0.055   0.659 -0.3030 -0.3149  1.2359
13772TIP3   OH262806   6.862   5.356   4.306 -1.0432 -0.6134  0.0212
13772TIP3    H162807   6.848   5.262   4.319 -0.1346 -0.7151  0.3511
13772TIP3    H262808   6.787   5.397   4.348 -1.2475 -1.1843  0.2283
13773TIP3   OH262809   4.462   3.986  12.075  0.4994  1.1670 -0.6419
13773TIP3    H162810   4.493   3.985  11.984  2.6708 -1.8746 -0.0084
13773TIP3    H262811   4.385   3.929  12.075  1.0094  0.4694 -0.4484
13774TIP3   OH262812   4.163   4.549  15.743 -0.0368  0.3900  0.5770
13774TIP3    H162813   4.179   4.501  15.662  1.3865  1.1645  0.3818
13774TIP3    H262814   4.130   4.483  15.803 -0.8511 -0.2531 -0.5348
13775TIP3   OH262815   0.049   4.587  16.250 -0.0437  0.5292  0.1212
13775TIP3    H162816   0.032   4.545  16.335 -0.5072 -0.6967 -0.5526
13775TIP3    H262817   0.114   4.530  16.209 -1.4835 -0.1892 -1.2639
13776TIP3   OH262818   3.804   2.639   3.367  0.1568 -0.0085 -0.6477
13776TIP3    H162819   3.740   2.609   3.303  0.4135 -0.1430 -0.8417
13776TIP3    H262820   3.889   2.613   3.332  0.6271  2.8207 -1.9290
13777TIP3   OH262821   6.676   0.839   3.299  0.1409 -0.3010 -0.3889
13777TIP3    H162822   6.604   0.776   3.300  1.5352 -1.9365 -0.0052
13777TIP3    H262823   6.705   0.841   3.208  0.9125 -1.1881 -0.1693
13778TIP3   OH262824   1.982   1.840  13.349 -0.3094 -0.0289  0.9962
13778TIP3    H162825   2.017   1.882  13.270 -0.1039 -0.1233  1.0372
13778TIP3    H262826   1.903   1.795  13.319 -0.4541  0.2710  0.9243
13779TIP3   OH262827   6.771   3.325  11.057 -0.0336  0.5277  0.0724
13779TIP3    H162828   6.686   3.324  11.100  0.3855 -0.2382  0.9111
13779TIP3    H262829   6.752   3.308  10.965 -0.8808  1.4785  0.0556
13780TIP3   OH262830   3.921   1.067  15.471  0.4751 -0.5022  0.5611
13780TIP3    H162831   3.930   0.982  15.514 -0.9702 -1.2397 -0.5090
13780TIP3    H262832   3.934   1.048  15.378 -0.4978  0.3383  0.2404
13781TIP3   OH262833   6.269   4.022  14.165 -0.0797  0.0240  0.1356
13781TIP3    H162834   6.355   3.992  14.193 -0.7551 -2.0407  0.2458
13781TIP3    H262835   6.260   3.988  14.075 -0.9929 -0.3711  0.3593
13782TIP3   OH262836   5.889   2.610  15.299  0.0849  0.0954 -0.0009
13782TIP3    H162837   5.833   2.598  15.222  0.3146 -0.4463 -0.0919
13782TIP3    H262838   5.868   2.534  15.354 -1.9390  1.7448  1.6553
13783TIP3   OH262839   3.448   1.408  12.191  0.3156  0.3369  0.2068
13783TIP3    H162840   3.526   1.390  12.243 -0.7835 -1.2324  1.4063
13783TIP3    H262841   3.479   1.414  12.101  1.8727  0.2149  0.7103
13784TIP3   OH262842   4.785   3.442  13.371  0.4180  0.3691  0.2298
13784TIP3    H162843   4.790   3.471  13.280 -0.3440  2.4700  0.8146
13784TIP3    H262844   4.870   3.401  13.387  0.2399 -0.8687 -1.6572
13785TIP3   OH262845   5.699   1.262   2.778  0.3442 -0.6726 -0.1738
13785TIP3    H162846   5.679   1.353   2.755  0.8873 -0.4047  0.3755
13785TIP3    H262847   5.646   1.210   2.718 -1.6902  0.0017  0.9418
13786TIP3   OH262848   4.777   5.356  10.760 -0.3267  0.2640 -0.0160
13786TIP3    H162849   4.826   5.347  10.678 -0.3863 -1.3913  0.0970
13786TIP3    H262850   4.685   5.362  10.733 -0.2542  0.9613 -0.1183
13787TIP3   OH262851   6.778   4.164  16.071  0.0364 -0.2215 -0.1165
13787TIP3    H162852   6.826   4.082  16.058 -0.3662 -0.1835 -2.2728
13787TIP3    H262853   6.802   4.218  15.996 -0.8017  1.0876  0.5181
13788TIP3   OH262854   0.101   5.422   4.941 -0.9260 -0.2897 -0.1157
13788TIP3    H162855   0.085   5.426   5.035  0.3465  1.2766  0.0693
13788TIP3    H262856   0.188   5.459   4.930 -0.7816 -1.0746 -1.8580
13789TIP3   OH262857   6.348   2.311  14.294  0.2431  0.0820  0.0609
13789TIP3    H162858   6.309   2.283  14.211  0.1469 -0.4622  0.2858
13789TIP3    H262859   6.357   2.230  14.345  3.4974 -0.1976 -0.7293
13790TIP3   OH262860   5.272   5.999  16.492  0.2810  0.3665 -0.4546
13790TIP3    H162861   5.277   5.942  16.415 -0.2556 -2.4875  1.4689
13790TIP3    H262862   5.185   6.039  16.485 -0.6596 -1.5120 -0.3565
13791TIP3   OH262863   1.475   0.490   3.028 -0.6312 -0.8688 -0.2161
13791TIP3    H162864   1.382   0.479   3.006 -0.9898 -1.0713  1.2585
13791TIP3    H262865   1.480   0.577   3.068  0.0576 -0.3543 -1.3768
13792TIP3   OH262866   3.477   0.254  11.468  0.5465 -0.2262 -0.3462
13792TIP3    H162867   3.492   0.175  11.417 -3.4272  0.2187 -2.6200
13792TIP3    H262868   3.541   0.317  11.436 -0.0259 -0.8261 -2.8452
13793TIP3   OH262869   6.559   0.391   2.350 -0.1046 -0.5401 -0.4782
13793TIP3    H162870   6.537   0.328   2.281  2.1196  0.9701 -2.7260
13793TIP3    H262871   6.654   0.383   2.361 -0.3217 -0.4517  2.2316
13794TIP3   OH262872   4.857   3.034  11.349  0.1369  0.3930 -0.1768
13794TIP3    H162873   4.851   2.956  11.293  1.6311  0.6013 -0.6808
13794TIP3    H262874   4.878   3.105  11.288  0.0200  0.9566  0.4377
13795TIP3   OH262875   2.922   2.494   2.150 -0.1839 -0.1435  0.2097
13795TIP3    H162876   2.906   2.520   2.059  1.8444 -1.2372 -0.5245
13795TIP3    H262877   2.976   2.565   2.185  0.2962 -0.4331  0.0706
13796TIP3   OH262878   0.301   1.776   1.879 -0.4137 -0.1962  0.2591
13796TIP3    H162879   0.306   1.712   1.808 -0.0259 -0.8635  0.8694
13796TIP3    H262880   0.293   1.722   1.958 -0.6112  0.5287  0.7388
13797TIP3   OH262881   6.671   1.108   6.160 -0.4488 -0.3826 -0.1785
13797TIP3    H162882   6.577   1.099   6.143 -0.8238  2.7097 -0.2587
13797TIP3    H262883   6.701   1.171   6.094  1.2648  0.1525  1.0616
13798TIP3   OH262884   5.333   2.427  16.211  0.0745 -0.7261 -0.3670
13798TIP3    H162885   5.420   2.419  16.173  0.3125 -0.0554  0.0176
13798TIP3    H262886   5.297   2.339  16.209  1.4771 -1.3686  1.1456
13799TIP3   OH262887   0.171   2.091  11.024  0.3109  0.3710 -0.4519
13799TIP3    H162888   0.187   2.185  11.013 -2.1399  0.8117 -0.8223
13799TIP3    H262889   0.227   2.066  11.098  0.6540  2.2372 -0.0233
13800TIP3   OH262890   5.723   4.853   0.963  0.5934 -0.3690  0.3796
13800TIP3    H162891   5.722   4.774   0.910 -1.0497 -1.3390  1.7656
13800TIP3    H262892   5.708   4.924   0.900  0.0878 -1.3499 -0.6456
13801TIP3   OH262893   3.252   4.854  16.368  0.0908  0.0484 -0.1921
13801TIP3    H162894   3.259   4.946  16.391  0.2975  0.1109 -0.4972
13801TIP3    H262895   3.199   4.815  16.438  0.5482  0.2659  0.2838
13802TIP3   OH262896   5.222   0.078   5.766 -0.0473 -0.3080  0.4364
13802TIP3    H162897   5.142   0.070   5.818 -0.9864 -1.8308 -1.1643
13802TIP3    H262898   5.292   0.054   5.827 -0.6877  1.3996  1.9753
13803TIP3   OH262899   1.325   2.403   4.401 -0.2839 -0.1469 -0.1631
13803TIP3    H162900   1.420   2.398   4.417 -0.2777  0.1388 -0.1036
13803TIP3    H262901   1.318   2.412   4.306 -0.2251  0.3841 -0.1213
13804TIP3   OH262902   0.676   3.241   4.254  0.2377 -0.2064 -0.2683
13804TIP3    H162903   0.605   3.242   4.189  0.1186 -1.2128 -0.1640
13804TIP3    H262904   0.699   3.149   4.262  1.1434  0.0549  0.1614
13805TIP3   OH262905   0.822   2.279  15.741  0.2581  0.3983 -0.1019
13805TIP3    H162906   0.849   2.369  15.723  1.0258  0.3057  0.5381
13805TIP3    H262907   0.825   2.272  15.837 -1.8628  0.3224  0.0048
13806TIP3   OH262908   0.166   2.079   2.231  0.0634  0.7559 -0.8383
13806TIP3    H162909   0.111   2.078   2.153 -2.5488  3.4038  0.8000
13806TIP3    H262910   0.119   2.026   2.295  2.4066 -1.7822 -1.0179
13807TIP3   OH262911   2.126   4.779   4.573 -1.0828 -0.1833  0.7218
13807TIP3    H162912   2.055   4.758   4.634 -1.7032 -0.6175 -0.1219
13807TIP3    H262913   2.152   4.693   4.537 -0.0347 -0.0432  1.1267
13808TIP3   OH262914   3.193   3.427  16.150 -0.2029 -0.1255  0.4323
13808TIP3    H162915   3.201   3.469  16.235  1.8083 -1.1976  0.8428
13808TIP3    H262916   3.232   3.489  16.088 -0.1398 -0.0435  0.5548
13809TIP3   OH262917   4.312   5.805  14.079 -0.6372 -0.0033 -0.8448
13809TIP3    H162918   4.270   5.725  14.048 -2.5789  0.6084  0.0487
13809TIP3    H262919   4.248   5.844  14.138  0.9344  1.3824  0.0197
13810TIP3   OH262920   3.248   3.358   1.894  0.1899 -0.0964 -0.2679
13810TIP3    H162921   3.271   3.431   1.951  0.7945 -1.4478  1.3238
13810TIP3    H262922   3.332   3.323   1.865 -0.0062 -1.2293  0.4573
13811TIP3   OH262923   5.443   2.846   5.156 -0.2221 -0.5564 -0.0578
13811TIP3    H162924   5.369   2.898   5.187  0.2991  0.2748 -0.1572
13811TIP3    H262925   5.485   2.901   5.090  1.6420 -0.0976  1.3854
13812TIP3   OH262926   2.826   6.314  13.596  0.6648 -0.5591  0.3097
13812TIP3    H162927   2.904   6.262  13.578  0.6914 -0.5882  0.5125
13812TIP3    H262928   2.754   6.264  13.558  0.5558 -1.2483  1.4050
13813TIP3   OH262929   1.951   3.688   1.548 -0.1534  0.2533  0.5537
13813TIP3    H162930   1.911   3.665   1.632 -1.0446 -0.5763 -0.0867
13813TIP3    H262931   1.880   3.683   1.484  0.5604  0.6528 -0.2971
13814TIP3   OH262932   2.778   4.053   2.009  0.1829 -0.4122  0.5942
13814TIP3    H162933   2.815   3.969   2.033 -0.1295 -1.0488 -1.0086
13814TIP3    H262934   2.709   4.069   2.073  0.9881 -0.8136  1.5815
13815TIP3   OH262935   0.109   3.318   0.630 -0.3903  0.2273  0.1016
13815TIP3    H162936   0.056   3.239   0.628  0.6362 -0.4892  0.2694
13815TIP3    H262937   0.059   3.380   0.683 -0.6644 -0.7179  0.9744
13816TIP3   OH262938   3.956   3.519   1.143  0.2058  0.0486 -0.1993
13816TIP3    H162939   3.971   3.522   1.048  0.3321 -0.0512 -0.1828
13816TIP3    H262940   3.943   3.426   1.162  0.5533  0.0292 -0.0615
13817TIP3   OH262941   1.176   5.031   2.963  0.5974  0.1201  0.2784
13817TIP3    H162942   1.201   5.119   2.989  1.4750  0.2687 -0.9635
13817TIP3    H262943   1.226   4.973   3.021  0.1990  0.4226  0.9367
13818TIP3   OH262944   2.380   2.378   0.298  0.0214 -0.5217  0.0470
13818TIP3    H162945   2.429   2.439   0.242 -0.3283 -0.4577 -0.1978
13818TIP3    H262946   2.289   2.388   0.269 -0.1384 -0.6314  0.4981
13819TIP3   OH262947   1.787   1.788   6.121 -0.2119 -0.2550  0.0604
13819TIP3    H162948   1.806   1.879   6.142  3.5073 -0.6246 -0.9026
13819TIP3    H262949   1.788   1.743   6.205  1.2470  0.1644  0.2868
13820TIP3   OH262950   4.596   2.990  14.716 -0.2444 -0.1158  0.5856
13820TIP3    H162951   4.592   3.047  14.639 -0.7657  1.5210  1.7685
13820TIP3    H262952   4.678   3.014  14.759 -0.2151 -0.6489  0.8325
13821TIP3   OH262953   6.144   0.527   4.809 -0.2148 -0.3049  0.6152
13821TIP3    H162954   6.090   0.570   4.876  0.5750 -2.7324  2.9884
13821TIP3    H262955   6.097   0.446   4.788 -0.0437  0.0411 -1.2744
13822TIP3   OH262956   4.228   2.381   4.975 -0.4019  0.2436  0.0803
13822TIP3    H162957   4.196   2.466   4.946 -2.0327 -0.1931  0.4690
13822TIP3    H262958   4.310   2.399   5.020  0.0464  1.4146 -1.1619
13823TIP3   OH262959   1.335   3.975  11.205 -0.0865  0.1458 -0.2390
13823TIP3    H162960   1.357   4.044  11.267  0.1793  0.3724 -0.5802
13823TIP3    H262961   1.268   4.014  11.149 -0.8261 -0.2901  0.3281
13824TIP3   OH262962   0.505   6.767   3.634  0.4593 -0.0566 -0.0619
13824TIP3    H162963   0.572   6.758   3.701  0.3079  0.4736  0.1588
13824TIP3    H262964   0.492   6.677   3.602 -0.1528 -0.4582  1.2719
13825TIP3   OH262965   4.823   4.218   1.144  0.3349  0.9229  0.0848
13825TIP3    H162966   4.800   4.273   1.069  0.2596  1.1798  0.2951
13825TIP3    H262967   4.880   4.272   1.197 -0.5467  1.1722  0.8015
13826TIP3   OH262968   4.739   3.783   5.061 -0.0812  0.1704 -0.5750
13826TIP3    H162969   4.777   3.786   5.149 -0.3128 -0.6604 -0.4379
13826TIP3    H262970   4.799   3.836   5.008  0.7194 -0.2934 -0.1599
13827TIP3   OH262971   1.385   0.884   0.059 -0.0012 -0.8169  0.0153
13827TIP3    H162972   1.414   0.803   0.016  1.7968  1.1545 -2.8204
13827TIP3    H262973   1.465   0.934   0.073 -0.9945  0.2919  2.2728
13828TIP3   OH262974   4.643   4.629   0.285 -0.0170 -0.5522  0.0644
13828TIP3    H162975   4.671   4.653   0.196  0.1231 -0.5364  0.1128
13828TIP3    H262976   4.715   4.659   0.341  0.7998 -2.3079  0.0064
13829TIP3   OH262977   0.503   4.680   6.104  0.3765 -0.5812 -0.6601
13829TIP3    H162978   0.506   4.768   6.142 -0.5898 -0.5971 -0.5306
13829TIP3    H262979   0.452   4.629   6.166  1.8514 -1.5203 -0.1891
13830TIP3   OH262980   0.900   1.871   0.748  0.0790 -0.0065 -0.3428
13830TIP3    H162981   0.810   1.892   0.722 -0.4527 -0.0143  1.4109
13830TIP3    H262982   0.939   1.836   0.668 -1.9925 -1.6493 -0.7332
13831TIP3   OH262983   6.443   2.294   2.469 -0.3564 -0.3440 -0.3271
13831TIP3    H162984   6.443   2.389   2.474  0.6214 -0.2880 -1.0940
13831TIP3    H262985   6.369   2.273   2.412 -0.4971 -0.0404 -0.2559
13832TIP3   OH262986   5.875   6.603  16.799 -0.1491  0.3496  0.0620
13832TIP3    H162987   5.928   6.591  16.878  1.5238  2.1270 -0.6951
13832TIP3    H262988   5.908   6.537  16.737 -0.6413 -0.2540  0.4303
13833TIP3   OH262989   2.356   6.424   3.729  0.0538 -0.1538 -0.8383
13833TIP3    H162990   2.417   6.497   3.716 -0.5848  0.5460 -0.0052
13833TIP3    H262991   2.311   6.415   3.645  0.2493  0.2991 -0.9927
13834TIP3   OH262992   5.827   5.995   6.506 -0.8965 -0.2239 -0.3588
13834TIP3    H162993   5.800   6.069   6.451  0.3759 -0.2798 -1.1032
13834TIP3    H262994   5.757   5.930   6.494 -0.7035 -0.1965 -1.8673
13835TIP3   OH262995   0.597   0.360  13.637  0.1605  0.8429  0.0964
13835TIP3    H162996   0.582   0.380  13.545 -1.4364  2.2719  0.6009
13835TIP3    H262997   0.522   0.307  13.663  0.2508  1.0063  0.7177
13836TIP3   OH262998   5.815   5.043   6.474  0.4211  0.7823 -0.5333
13836TIP3    H162999   5.888   5.068   6.531  0.1384 -0.1460  0.2710
13836TIP3    H263000   5.756   5.118   6.477  1.0634  1.3089 -0.7283
13837TIP3   OH263001   1.295   2.516  15.215  0.0292 -0.3011 -0.2894
13837TIP3    H163002   1.317   2.600  15.256 -0.2265 -0.9841  1.3413
13837TIP3    H263003   1.378   2.483  15.181  0.3029  0.1863 -0.1051
13838TIP3   OH263004   2.452   4.337   2.710 -0.3591 -0.1746  0.1028
13838TIP3    H163005   2.382   4.387   2.750  0.3402  1.2997 -0.4403
13838TIP3    H263006   2.511   4.315   2.782 -0.4390  0.1876  0.2802
13839TIP3   OH263007   0.382   3.491  16.050 -0.4338 -0.0721  0.7862
13839TIP3    H163008   0.375   3.516  15.958 -2.3997 -1.9534  0.3302
13839TIP3    H263009   0.475   3.482  16.066 -0.0418  0.5771 -0.9328
13840TIP3   OH263010   5.118   0.262  12.048 -0.0486 -0.2976 -0.1790
13840TIP3    H163011   5.114   0.179  12.095 -2.3367  0.8273  1.8329
13840TIP3    H263012   5.080   0.326  12.108  2.1318  2.3780 -1.4209
13841TIP3   OH263013   0.439   6.564  15.075 -0.2122  0.6952  0.0883
13841TIP3    H163014   0.472   6.588  15.161 -0.0445 -0.1030  0.2615
13841TIP3    H263015   0.430   6.468  15.079 -2.3467  0.8459 -0.0262
13842TIP3   OH263016   2.370   1.856   4.884  0.0715 -0.2548  0.0504
13842TIP3    H163017   2.429   1.918   4.926 -0.7052 -1.3356  3.0086
13842TIP3    H263018   2.423   1.778   4.869  0.1313 -0.1698 -0.1881
13843TIP3   OH263019   5.162   0.205   1.824 -0.1060  0.3998 -0.2208
13843TIP3    H163020   5.155   0.170   1.913  0.2071  1.0486  0.0633
13843TIP3    H263021   5.072   0.210   1.792 -0.3806  1.8071  0.7063
13844TIP3   OH263022   5.009   1.330  14.097 -0.6093  0.4093  0.0411
13844TIP3    H163023   5.037   1.421  14.088  2.0232 -0.4017 -0.9728
13844TIP3    H263024   5.032   1.306  14.187  0.7263  0.1869 -0.3325
13845TIP3   OH263025   1.368   2.809   3.632  0.6806  0.7850  0.0244
13845TIP3    H163026   1.390   2.783   3.543  1.0848 -0.1839  0.3859
13845TIP3    H263027   1.327   2.894   3.623  1.5122  1.1030 -1.0070
13846TIP3   OH263028   1.813   3.180  14.157  0.4160 -0.4592  0.3578
13846TIP3    H163029   1.808   3.220  14.070 -1.3640 -0.6301  0.3331
13846TIP3    H263030   1.906   3.178  14.177  0.7986  0.4976 -1.1190
13847TIP3   OH263031   1.430   2.862   5.913  0.5760 -0.1139  0.1371
13847TIP3    H163032   1.363   2.836   5.849 -0.7091  0.1884  1.3187
13847TIP3    H263033   1.437   2.957   5.901  1.1092 -0.2031 -0.2728
13848TIP3   OH263034   0.331   4.200  16.172 -0.0651 -0.2351 -0.2503
13848TIP3    H163035   0.262   4.139  16.146 -0.2522  0.2452 -0.9343
13848TIP3    H263036   0.411   4.148  16.172 -0.1891 -0.4372 -1.0326
13849TIP3   OH263037   4.335   1.205   3.324 -0.4122 -0.2744  0.2776
13849TIP3    H163038   4.360   1.145   3.394  0.6374  0.4541  0.5446
13849TIP3    H263039   4.339   1.153   3.244  1.8614 -0.2604  0.3159
13850TIP3   OH263040   3.258   1.634   3.688  0.3974  0.0235 -0.1382
13850TIP3    H163041   3.237   1.702   3.624  1.2501 -0.2312 -0.6978
13850TIP3    H263042   3.265   1.682   3.771 -0.4911  0.3829 -0.2492
13851TIP3   OH263043   6.643   0.736   2.731  0.7486 -0.0072  0.3465
13851TIP3    H163044   6.551   0.759   2.719  0.9333  1.7709  1.9183
13851TIP3    H263045   6.672   0.705   2.645 -1.0376  0.3723 -0.4263
13852TIP3   OH263046   5.220   1.802   0.981 -0.4902  0.2566  0.5012
13852TIP3    H163047   5.185   1.877   1.029  0.8359  1.0022  0.3636
13852TIP3    H263048   5.180   1.726   1.024 -2.1630  1.0268  0.3891
13853TIP3   OH263049   5.711   5.465  14.266  0.0617 -0.6178 -0.3043
13853TIP3    H163050   5.698   5.385  14.215 -2.2897 -1.8068  1.9061
13853TIP3    H263051   5.650   5.456  14.339  0.7942  2.5570  0.8365
13854TIP3   OH263052   4.261   1.970  14.447  0.0399 -0.0190  0.3861
13854TIP3    H163053   4.246   2.027  14.372 -0.6502 -0.7149 -0.0236
13854TIP3    H263054   4.335   2.009  14.493  0.0550  0.7771 -0.2954
13855TIP3   OH263055   5.180   6.491  15.235 -1.2521 -0.0140  0.1647
13855TIP3    H163056   5.140   6.421  15.286 -1.5678  0.4637  0.5895
13855TIP3    H263057   5.265   6.505  15.276 -1.7131  0.7225  0.9186
13856TIP3   OH263058   3.638   1.496  13.256  0.1321 -0.1756 -0.4354
13856TIP3    H163059   3.686   1.434  13.311  0.2274 -0.6790 -1.0814
13856TIP3    H263060   3.696   1.514  13.182  0.2553  0.9666 -0.0892
13857TIP3   OH263061   3.709   6.512  15.022 -0.0575 -0.8655  0.7151
13857TIP3    H163062   3.652   6.588  15.031  0.6257  0.4449 -3.5267
13857TIP3    H263063   3.792   6.540  15.062 -0.1607  0.2849  0.1962
13858TIP3   OH263064   4.030   3.893  10.656  0.1639 -0.0441  0.0623
13858TIP3    H163065   4.090   3.925  10.724 -1.5739  0.6639  1.3666
13858TIP3    H263066   4.025   3.965  10.593  0.2848  0.1257  0.2448
13859TIP3   OH263067   1.107   3.087   3.311 -0.5646  0.0057 -0.5114
13859TIP3    H163068   1.052   3.043   3.247 -0.6352 -0.5471 -0.0755
13859TIP3    H263069   1.194   3.047   3.299 -0.3534  0.5727 -0.9069
13860TIP3   OH263070   2.846   6.007  11.027  0.6548 -0.3210  0.0719
13860TIP3    H163071   2.885   5.921  11.008  0.3329 -0.5722  0.5314
13860TIP3    H263072   2.849   6.054  10.944  0.5800 -0.8805 -0.2500
13861TIP3   OH263073   0.971   1.645  14.474  0.8845 -0.5001 -0.1022
13861TIP3    H163074   0.951   1.646  14.381  0.6086 -2.1836 -0.1065
13861TIP3    H263075   0.891   1.610  14.515  0.8032  0.7029  0.8378
13862TIP3   OH263076   5.522   6.358  11.928  0.3018 -0.2854 -0.1399
13862TIP3    H163077   5.498   6.432  11.873  1.4196  0.5314  0.4191
13862TIP3    H263078   5.616   6.345  11.912  0.7913  0.3304  1.9122
13863TIP3   OH263079   0.837   1.402   4.132 -0.2181  0.3118 -0.1167
13863TIP3    H163080   0.749   1.423   4.164  0.0035 -0.1011  0.7861
13863TIP3    H263081   0.885   1.374   4.210  1.0496  1.5889 -0.3921
13864TIP3   OH263082   0.993   5.322   1.515 -0.5163  0.2171  0.1401
13864TIP3    H163083   0.913   5.280   1.484  0.9270 -2.6664 -0.0173
13864TIP3    H263084   0.978   5.336   1.609 -1.9652  1.7936 -0.2741
13865TIP3   OH263085   4.799   6.845  11.462  0.1612  0.2230 -0.0163
13865TIP3    H163086   4.820   6.836  11.369  1.4421  0.0891  0.2717
13865TIP3    H263087   4.704   6.857  11.464  0.2568  1.5059 -1.4272
13866TIP3   OH263088   3.844   1.612   4.553  0.2623 -0.0484  0.0827
13866TIP3    H163089   3.810   1.701   4.551  2.9711  1.0675 -0.1043
13866TIP3    H263090   3.805   1.574   4.632 -2.4461  0.5765 -0.8522
13867TIP3   OH263091   1.349   5.975   3.051 -0.2513 -0.0312 -0.0807
13867TIP3    H163092   1.358   5.893   3.099 -0.6111 -0.9869 -1.5751
13867TIP3    H263093   1.353   6.043   3.118  0.0559 -1.2644  1.1901
13868TIP3   OH263094   0.131   5.990   4.658  0.2301 -0.1984 -0.3017
13868TIP3    H163095   0.078   6.066   4.634 -1.6584 -1.4714 -0.3404
13868TIP3    H263096   0.083   5.948   4.729  0.3450 -2.2260 -1.3321
13869TIP3   OH263097   5.915   1.586   1.590 -0.1038  0.4069  0.4474
13869TIP3    H163098   5.831   1.583   1.544  0.1455  1.1036 -0.0662
13869TIP3    H263099   5.981   1.583   1.521  0.2714  2.2938  0.6739
13870TIP3   OH263100   3.644   0.628  12.595  0.5514 -0.4503 -0.4705
13870TIP3    H163101   3.725   0.656  12.638  0.0107 -0.3277  0.4836
13870TIP3    H263102   3.666   0.628  12.502  1.8575 -1.0918 -0.1898
13871TIP3   OH263103   1.923   1.254   4.235  0.1791 -0.1240 -0.3965
13871TIP3    H163104   2.012   1.233   4.263  0.9071  0.8134 -1.8684
13871TIP3    H263105   1.928   1.257   4.139 -1.3061  0.5186 -0.4872
13872TIP3   OH263106   6.255   1.230   6.210 -0.2324  0.4767  0.8723
13872TIP3    H163107   6.328   1.241   6.149 -1.5110  2.5515 -0.4212
13872TIP3    H263108   6.211   1.315   6.209 -2.8125 -0.7644  1.3706
13873TIP3   OH263109   3.850   2.279  12.824 -0.1293  0.3289 -0.3624
13873TIP3    H163110   3.834   2.322  12.908  1.2417  2.3933 -1.0877
13873TIP3    H263111   3.775   2.304  12.770 -0.9456 -0.8915  0.1596
13874TIP3   OH263112   4.475   0.617   2.740 -0.0163  0.9128  0.0694
13874TIP3    H163113   4.525   0.698   2.753 -0.0863  1.2621 -1.6075
13874TIP3    H263114   4.511   0.579   2.660  1.3796 -1.8034  1.8583
13875TIP3   OH263115   4.278   5.134   3.544  0.2711 -0.1864 -0.3170
13875TIP3    H163116   4.273   5.219   3.501  3.7664 -0.0042 -0.6954
13875TIP3    H263117   4.338   5.148   3.618 -1.3530 -1.7250  1.3957
13876TIP3   OH263118   6.284   2.115  15.714 -0.2721  0.0151  0.1303
13876TIP3    H163119   6.302   2.149  15.626  0.2938  0.3134  0.3541
13876TIP3    H263120   6.280   2.020  15.703 -1.7314  0.1242 -0.4845
13877TIP3   OH263121   1.346   3.134  13.519  0.1582  0.2006 -0.2092
13877TIP3    H163122   1.254   3.156  13.502 -0.1950 -2.2857 -2.0314
13877TIP3    H263123   1.392   3.164  13.440  0.4638 -0.8558 -0.4424
13878TIP3   OH263124   3.295   5.202   5.782 -0.8724 -0.4682  0.0223
13878TIP3    H163125   3.348   5.168   5.853  1.3923 -0.2105 -1.4352
13878TIP3    H263126   3.338   5.171   5.702 -2.4693  0.4397 -1.2664
13879TIP3   OH263127   6.370   6.602   0.205  0.2892 -0.6521  0.6655
13879TIP3    H163128   6.457   6.609   0.166 -0.2676  0.1307 -0.4987
13879TIP3    H263129   6.321   6.677   0.170 -0.1397  0.4011  3.2567
13880TIP3   OH263130   6.479   4.898  11.508 -0.5946 -0.4269 -0.1324
13880TIP3    H163131   6.533   4.822  11.487  1.4042  0.4404  1.5579
13880TIP3    H263132   6.496   4.960  11.437  0.8104 -0.0979  0.4683
13881TIP3   OH263133   2.261   3.460   4.203  0.3504 -0.0507 -0.1003
13881TIP3    H163134   2.212   3.466   4.121 -0.1201  0.3582  0.2073
13881TIP3    H263135   2.346   3.501   4.184  0.7979 -1.2232 -0.7868
13882TIP3   OH263136   0.932   6.523  14.069  0.8283 -0.0306 -0.1714
13882TIP3    H163137   0.985   6.444  14.075  1.5670  0.1700 -2.9528
13882TIP3    H263138   0.855   6.504  14.123  1.0648 -2.5628 -0.6049
13883TIP3   OH263139   5.591   0.001   0.355 -0.0665  0.8438  0.8133
13883TIP3    H163140   5.664  -0.026   0.411 -0.2524  0.3436  0.8189
13883TIP3    H263141   5.630   0.011   0.268 -0.1901 -0.4941  0.5813
13884TIP3   OH263142   5.128   6.009   3.243 -0.3390 -0.1340  0.0059
13884TIP3    H163143   5.164   5.955   3.173  0.5321  1.6255 -0.9725
13884TIP3    H263144   5.159   6.098   3.224 -1.1504  0.6281  1.9092
13885TIP3   OH263145   2.457   4.050   1.254  0.1249 -0.5433  0.1158
13885TIP3    H163146   2.482   4.056   1.346 -0.3498 -0.5003  0.2454
13885TIP3    H263147   2.484   3.962   1.227 -1.0350 -1.1021  0.6987
13886TIP3   OH263148   2.503   4.747   0.519  0.2274  0.3193 -0.5884
13886TIP3    H163149   2.573   4.682   0.508  1.7931  1.7896  0.1402
13886TIP3    H263150   2.518   4.783   0.606 -0.5181  1.7179 -1.0138
13887TIP3   OH263151   1.999   2.149  15.166 -0.3114 -0.4631  0.1593
13887TIP3    H163152   2.081   2.100  15.156 -1.0320 -1.6816 -0.0534
13887TIP3    H263153   2.023   2.226  15.216  0.7259 -1.4929  1.3190
13888TIP3   OH263154   4.895   6.613   3.579  0.2010  0.2510  0.1131
13888TIP3    H163155   4.957   6.541   3.573  1.0982  1.0636 -0.8202
13888TIP3    H263156   4.921   6.660   3.659 -0.3832 -0.4318  0.7190
13889TIP3   OH263157   0.426   5.777  15.144 -0.3492 -0.1442 -0.2698
13889TIP3    H163158   0.437   5.850  15.084  0.3254  0.3308  0.4046
13889TIP3    H263159   0.488   5.710  15.114 -0.8861 -0.4014 -0.8192
13890TIP3   OH263160   1.721   2.853   1.356  0.0083 -0.6721 -0.0909
13890TIP3    H163161   1.714   2.758   1.356  0.7156 -0.7525  1.3094
13890TIP3    H263162   1.800   2.871   1.407  0.1697  0.6570 -0.7635
13891TIP3   OH263163   2.372   2.801  15.448  0.1439  0.0906  0.2085
13891TIP3    H163164   2.279   2.787  15.466  0.1713  0.1759  0.4118
13891TIP3    H263165   2.402   2.717  15.411 -0.1111  0.2009 -0.2534
13892TIP3   OH263166   3.096   5.136  12.093 -0.6774  0.1298 -0.1468
13892TIP3    H163167   3.025   5.197  12.076 -1.8532 -0.5467  1.9464
13892TIP3    H263168   3.058   5.070  12.151  1.5412 -0.4710  0.7457
13893TIP3   OH263169   1.020   5.108  16.012  0.3216 -0.5445 -0.0276
13893TIP3    H163170   0.956   5.047  16.047  1.1438 -2.1139 -1.1674
13893TIP3    H263171   1.075   5.056  15.954  1.3195  1.1930 -0.7372
13894TIP3   OH263172   2.263   2.993   0.378  0.2175  0.0485 -0.1107
13894TIP3    H163173   2.222   3.037   0.452 -0.3607 -0.3561 -0.1813
13894TIP3    H263174   2.234   3.043   0.301  2.1341  1.4702  0.0308
13895TIP3   OH263175   3.868   4.915  11.001 -0.3805 -0.1046 -0.2578
13895TIP3    H163176   3.899   4.904  10.911 -1.3731  0.5555 -0.6964
13895TIP3    H263177   3.911   4.995  11.031 -0.3247 -0.1324 -0.2631
13896TIP3   OH263178   2.214   0.580  14.222  0.1353  0.1203 -0.4074
13896TIP3    H163179   2.201   0.670  14.251  0.5472  0.1874 -0.4229
13896TIP3    H263180   2.285   0.585  14.157  1.6420 -0.4774  1.1202
13897TIP3   OH263181   0.849   5.952   2.533 -0.8911  0.5773 -0.5447
13897TIP3    H163182   0.829   5.953   2.627 -0.5932  1.3356 -0.4796
13897TIP3    H263183   0.805   6.030   2.499 -0.0132  0.9577 -0.8186
13898TIP3   OH263184   1.855   0.686  11.400 -0.3355  0.5236 -0.3365
13898TIP3    H163185   1.903   0.631  11.462 -0.0304  0.1712 -0.8773
13898TIP3    H263186   1.802   0.744  11.455  0.8929  1.0938  0.2785
13899TIP3   OH263187   1.714   6.073  15.420  0.2513 -0.1222 -0.2685
13899TIP3    H163188   1.622   6.079  15.396  0.3417 -0.7391 -0.7946
13899TIP3    H263189   1.726   6.141  15.486 -0.5510  0.0399 -0.2808
13900TIP3   OH263190   2.158   3.403  16.530 -0.5457 -0.0007  0.3505
13900TIP3    H163191   2.205   3.480  16.560  0.1338  0.1244 -0.9346
13900TIP3    H263192   2.211   3.329  16.562 -0.4204  0.1035  0.3869
13901TIP3   OH263193   0.405   6.821   4.171 -0.3706  0.4270 -0.7744
13901TIP3    H163194   0.375   6.760   4.239 -0.6606  1.1042 -0.2833
13901TIP3    H263195   0.477   6.868   4.212 -1.3053  1.6677 -0.4908
13902TIP3   OH263196   0.189   3.343   4.132  0.1539 -0.5754 -1.0129
13902TIP3    H163197   0.106   3.302   4.109  0.0275 -1.2232  0.4813
13902TIP3    H263198   0.232   3.280   4.190  0.2084  1.1280  0.9098
13903TIP3   OH263199   0.274   1.463  16.962  0.0859  0.3709  0.1818
13903TIP3    H163200   0.197   1.484  17.016  0.5017  1.0713  0.5080
13903TIP3    H263201   0.245   1.388  16.908 -0.9923  0.9360 -0.0627
13904TIP3   OH263202   1.518   3.296  14.024  0.3208  0.0788  0.4518
13904TIP3    H163203   1.481   3.352  13.955 -0.4087 -2.4620 -1.3879
13904TIP3    H263204   1.611   3.288  14.002  0.2923  0.0575  0.3380
13905TIP3   OH263205   0.852   1.560  14.839  0.4008  0.3553 -0.1072
13905TIP3    H163206   0.895   1.474  14.842  0.4009  0.3456 -0.3450
13905TIP3    H263207   0.808   1.561  14.754 -1.2385 -0.2067  0.6963
13906TIP3   OH263208   4.198   2.593  10.633 -0.6228  0.2283 -0.7254
13906TIP3    H163209   4.251   2.575  10.711 -0.1973 -0.2594 -1.1226
13906TIP3    H263210   4.234   2.536  10.565  0.5826  2.3495 -1.9653
13907TIP3   OH263211   4.591   4.981  16.498  0.0607 -0.0795  0.4501
13907TIP3    H163212   4.556   5.063  16.463 -1.1545 -0.0620  1.6285
13907TIP3    H263213   4.549   4.913  16.446 -0.0608  0.0074  0.4334
13908TIP3   OH263214   6.090   4.025  12.404  0.7349  0.0667  0.1561
13908TIP3    H163215   6.016   3.968  12.380 -0.9342  1.9252  0.6124
13908TIP3    H263216   6.119   4.062  12.321 -0.4857  1.1700  0.1820
13909TIP3   OH263217   3.308   3.838   4.700 -0.3966  0.1019  0.0231
13909TIP3    H163218   3.311   3.918   4.753 -0.1417  0.6810 -0.8409
13909TIP3    H263219   3.339   3.769   4.758  1.2079  0.9541  0.2188
13910TIP3   OH263220   2.906   4.819  13.544  0.1720  0.3654  0.6190
13910TIP3    H163221   2.882   4.910  13.528  0.5158  0.3403 -0.0331
13910TIP3    H263222   2.821   4.773  13.550 -0.0034  0.2855 -1.6581
13911TIP3   OH263223   3.829   4.615   2.514  0.1325  0.0184 -0.1343
13911TIP3    H163224   3.825   4.709   2.499  1.5286  0.3726  1.4483
13911TIP3    H263225   3.745   4.593   2.555  0.0267  0.6769  0.0018
13912TIP3   OH263226   0.861   0.279   5.768  0.1749 -0.2625 -0.6977
13912TIP3    H163227   0.805   0.228   5.709  0.4418 -1.0312 -0.2940
13912TIP3    H263228   0.832   0.370   5.755  0.4808 -0.3523 -2.3002
13913TIP3   OH263229   5.927   5.747   4.908 -0.1116  0.8238  0.3598
13913TIP3    H163230   5.922   5.703   4.992 -0.3615  1.2444  0.5722
13913TIP3    H263231   5.880   5.830   4.922 -1.3389  0.3195 -0.5481
13914TIP3   OH263232   4.400   4.767   3.875 -0.3781 -0.1327 -0.3385
13914TIP3    H163233   4.437   4.745   3.961 -0.2334 -0.4130 -0.4710
13914TIP3    H263234   4.342   4.693   3.855  0.9079 -0.9434 -1.2656
13915TIP3   OH263235   5.508   0.860   2.659 -0.1797  0.4449 -0.4195
13915TIP3    H163236   5.581   0.807   2.628  0.5486  0.6477  0.8670
13915TIP3    H263237   5.467   0.806   2.727 -0.6805  0.7050 -0.5113
13916TIP3   OH263238   3.140   1.257  11.239  0.1590 -0.2595 -0.5440
13916TIP3    H163239   3.117   1.317  11.310  1.5457 -0.2507 -0.0762
13916TIP3    H263240   3.070   1.269  11.174 -0.6833  0.3379  0.4450
13917TIP3   OH263241   1.810   1.375  12.273 -0.5261  0.3611 -0.1955
13917TIP3    H163242   1.763   1.431  12.211 -0.4763  2.5908  1.6548
13917TIP3    H263243   1.791   1.412  12.359 -0.4641 -2.5248  1.1784
13918TIP3   OH263244   5.862   6.381   3.268 -0.0825  0.7536 -0.6160
13918TIP3    H163245   5.904   6.443   3.328 -1.3144  2.3346 -1.3211
13918TIP3    H263246   5.804   6.435   3.214  0.1932 -0.7566 -2.5345
13919TIP3   OH263247   2.239   4.648  14.943 -0.6567  0.2276 -0.0021
13919TIP3    H163248   2.157   4.694  14.929 -0.7844 -0.2718 -0.9209
13919TIP3    H263249   2.263   4.613  14.858  0.1401 -0.2497  0.4007
13920TIP3   OH263250   1.039   4.270  12.845  0.1194  0.0046 -0.0539
13920TIP3    H163251   0.978   4.274  12.919  1.2443  1.6105  0.8381
13920TIP3    H263252   1.011   4.342  12.788  0.3454 -0.1128 -0.3134
13921TIP3   OH263253   4.472   3.995  13.018 -0.2137 -0.0245  0.4124
13921TIP3    H163254   4.439   4.082  13.042 -0.4740  0.0063 -0.0501
13921TIP3    H263255   4.439   3.938  13.088 -1.9654 -0.1305 -0.4336
13922TIP3   OH263256   3.239   0.371  11.409  0.2700 -0.4276  0.1096
13922TIP3    H163257   3.325   0.330  11.401  0.1122 -0.7355 -0.0232
13922TIP3    H263258   3.177   0.302  11.385  0.0176 -0.0081 -0.4564
13923TIP3   OH263259   3.090   5.509   0.080  0.1740  0.0808 -0.1534
13923TIP3    H163260   3.051   5.432   0.120 -0.1482  0.2912 -0.0671
13923TIP3    H263261   3.018   5.571   0.070  0.2613  0.0647 -0.9820
13924TIP3   OH263262   4.309   0.621   3.586  0.5609  0.2261 -0.4176
13924TIP3    H163263   4.365   0.549   3.614 -0.4946 -1.8160 -3.1760
13924TIP3    H263264   4.367   0.697   3.586  2.3216 -1.0468  0.4149
13925TIP3   OH263265   6.655   0.994   2.632  0.5620  0.0233 -0.5232
13925TIP3    H163266   6.580   0.952   2.674  0.5367  0.0415 -0.5499
13925TIP3    H263267   6.706   0.922   2.597 -0.9517  0.0860 -3.1230
13926TIP3   OH263268   4.718   2.005   5.311  0.2185  0.2734  0.5561
13926TIP3    H163269   4.693   2.071   5.375  3.6471  0.9271  1.4423
13926TIP3    H263270   4.701   2.046   5.226 -0.9132  0.8731  1.0529
13927TIP3   OH263271   1.213   6.528  14.701  0.6024 -0.1377  0.1360
13927TIP3    H163272   1.280   6.522  14.634  1.9675 -1.3546  1.5375
13927TIP3    H263273   1.166   6.610  14.681  2.3849  0.6664 -0.9817
13928TIP3   OH263274   0.919   3.346  13.713 -0.2145  0.0073 -0.2267
13928TIP3    H163275   0.968   3.428  13.714  2.7516 -1.6111 -1.7014
13928TIP3    H263276   0.886   3.339  13.624 -2.0417  0.3698  0.3714
13929TIP3   OH263277   0.750   2.002   1.536 -0.2629  0.3443 -0.0919
13929TIP3    H163278   0.730   1.965   1.622  2.0759 -0.0460  0.3474
13929TIP3    H263279   0.827   1.953   1.506  0.5069  2.1865 -1.2684
13930TIP3   OH263280   5.452   2.456   4.639 -0.5549 -0.1683 -0.0568
13930TIP3    H163281   5.400   2.478   4.716  0.8029  0.7032  0.6509
13930TIP3    H263282   5.468   2.541   4.597 -0.3027 -0.5085 -0.6527
13931TIP3   OH263283   5.607   0.118  14.512  0.1494  0.2342 -0.1768
13931TIP3    H163284   5.572   0.124  14.600  0.0718  1.4878 -0.2753
13931TIP3    H263285   5.586   0.029  14.483  3.6228 -1.6919  2.4564
13932TIP3   OH263286   6.283   5.329  11.259  0.1242 -0.2164  0.3872
13932TIP3    H163287   6.198   5.346  11.298  0.4071 -1.5615  1.6977
13932TIP3    H263288   6.296   5.399  11.196 -1.4254  0.6720  1.0230
13933TIP3   OH263289   4.515   5.765  17.009 -0.1653  0.2573  0.4255
13933TIP3    H163290   4.573   5.840  17.003  0.7948 -0.2143  2.8807
13933TIP3    H263291   4.455   5.786  17.080 -1.5448 -0.2696 -0.5254
13934TIP3   OH263292   1.270   0.566   0.234 -0.2252  0.3475 -0.6106
13934TIP3    H163293   1.239   0.505   0.301  0.5745  1.3580  0.7232
13934TIP3    H263294   1.192   0.613   0.206 -0.4103  0.6532  0.3958
13935TIP3   OH263295   6.352   0.259   2.525  0.4134  0.6146 -0.0778
13935TIP3    H163296   6.381   0.322   2.458 -0.7930 -0.6747 -1.8734
13935TIP3    H263297   6.264   0.288   2.549  0.2809  0.2386 -0.1077
13936TIP3   OH263298   6.065   6.763  12.311 -0.5852 -0.0656  0.1125
13936TIP3    H163299   6.037   6.812  12.233  0.8654  1.2756  0.4049
13936TIP3    H263300   6.146   6.805  12.338 -0.8666 -0.7534  2.1490
13937TIP3   OH263301   1.811   2.871  12.794  0.1939  0.2122 -0.3242
13937TIP3    H163302   1.739   2.922  12.830  0.4019  1.9519 -2.2321
13937TIP3    H263303   1.884   2.888  12.853 -0.3757  0.0744  0.4507
13938TIP3   OH263304   0.797   0.750  15.992 -0.7814 -0.0781 -0.5538
13938TIP3    H163305   0.739   0.801  16.049 -1.4287 -1.5785  0.1813
13938TIP3    H263306   0.874   0.730  16.045 -0.1219  0.8498 -1.1260
13939TIP3   OH263307   5.473   3.115   4.371  0.1346 -0.4198 -0.6737
13939TIP3    H163308   5.403   3.100   4.308 -0.5309  0.7341 -0.2390
13939TIP3    H263309   5.494   3.208   4.362  0.4814 -0.3903  0.3395
13940TIP3   OH263310   0.496   0.908  14.290  0.3415 -0.1845  0.3053
13940TIP3    H163311   0.581   0.868  14.271  1.0052  1.8396 -1.3161
13940TIP3    H263312   0.433   0.846  14.255  1.2577 -0.5824 -0.7095
13941TIP3   OH263313   4.084   0.520   1.233  0.0708 -0.0901 -0.0655
13941TIP3    H163314   4.027   0.568   1.172  0.8097 -1.4902 -1.9300
13941TIP3    H263315   4.151   0.584   1.258 -1.6103  1.2411  1.2927
13942TIP3   OH263316   2.799   0.980   1.919 -0.4916  0.4905 -0.0715
13942TIP3    H163317   2.810   0.949   1.829 -1.4726 -0.2700  0.0558
13942TIP3    H263318   2.884   0.963   1.959 -0.6507 -1.0476 -0.3243
13943TIP3   OH263319   6.599   4.358  13.027 -0.0712 -0.1523 -0.3992
13943TIP3    H163320   6.606   4.398  13.113  1.5575  0.6215 -0.8603
13943TIP3    H263321   6.505   4.342  13.015 -0.4745  1.1141  0.8824
13944TIP3   OH263322   2.020   6.838  15.472  0.2241 -0.0812  0.5384
13944TIP3    H163323   2.112   6.828  15.494  0.7981 -0.0249 -1.6214
13944TIP3    H263324   1.994   6.919  15.515  1.3639  0.2567  0.6235
13945TIP3   OH263325   4.477   4.515  13.484  0.1707  0.1165 -0.0393
13945TIP3    H163326   4.506   4.499  13.394 -1.0485 -0.6678 -0.3070
13945TIP3    H263327   4.438   4.602  13.481 -1.3685 -0.5665 -0.6742
13946TIP3   OH263328   5.797   2.296  10.915 -0.1448 -0.6594  0.3004
13946TIP3    H163329   5.734   2.287  10.844 -0.4861 -0.2274  0.5389
13946TIP3    H263330   5.878   2.259  10.881 -0.3767 -0.6965 -0.2154
13947TIP3   OH263331   5.353   4.883   2.281 -0.6901  0.6060  0.2026
13947TIP3    H163332   5.367   4.807   2.336 -0.9535 -0.6248 -1.3726
13947TIP3    H263333   5.260   4.902   2.288 -0.8372  0.0849 -0.2411
13948TIP3   OH263334   1.658   1.515  12.094 -1.0167 -0.3877  0.4492
13948TIP3    H163335   1.729   1.535  12.034 -2.2510  0.9507 -0.6589
13948TIP3    H263336   1.632   1.600  12.129 -1.0907 -1.0234  2.0161
13949TIP3   OH263337   2.195   1.632   3.431 -0.2696  0.2684 -0.3199
13949TIP3    H163338   2.118   1.622   3.376  0.1548 -0.9816 -0.7319
13949TIP3    H263339   2.232   1.544   3.437  1.2088  0.8527 -0.2609
13950TIP3   OH263340   0.368   6.124  15.861 -0.3766  0.3095  0.6498
13950TIP3    H163341   0.323   6.056  15.911  1.3983 -1.0405  0.5014
13950TIP3    H263342   0.319   6.129  15.779  0.2032 -1.8203  0.0949
13951TIP3   OH263343   0.821   0.543   5.714 -0.1702 -0.1139 -0.0950
13951TIP3    H163344   0.884   0.577   5.776  0.7093  0.7802 -1.4351
13951TIP3    H263345   0.766   0.618   5.691  1.0600  0.2132 -2.2052
13952TIP3   OH263346   0.410   2.395   1.447 -0.3675 -0.1608  0.3131
13952TIP3    H163347   0.349   2.417   1.518 -0.3034  0.4016  0.1990
13952TIP3    H263348   0.474   2.466   1.447  1.3220 -1.6031  1.5527
13953TIP3   OH263349   4.038   0.072   2.954  0.1709  0.5858  0.3951
13953TIP3    H163350   4.065   0.131   3.025 -0.9614  0.7326  0.7123
13953TIP3    H263351   4.045  -0.016   2.991  0.0882  0.6296  0.5139
13954TIP3   OH263352   6.257   4.881  12.243 -0.6278 -0.1914 -0.8704
13954TIP3    H163353   6.297   4.908  12.161 -1.3782  0.5800 -0.9937
13954TIP3    H263354   6.217   4.796  12.223  1.2212 -1.1764 -0.6339
13955TIP3   OH263355   5.475   0.999   0.418 -0.2698  0.7400 -0.0533
13955TIP3    H163356   5.564   0.968   0.432 -1.3698 -1.8371  2.4496
13955TIP3    H263357   5.425   0.919   0.401 -2.4812  1.7490  1.2344
13956TIP3   OH263358   3.619   4.385  15.546  0.0086  0.2084  0.5199
13956TIP3    H163359   3.598   4.410  15.637  0.3498 -0.0518  0.6706
13956TIP3    H263360   3.713   4.372  15.546 -0.1397 -0.9393  0.4079
13957TIP3   OH263361   0.873   4.461   0.728  0.2652 -0.2892  0.3391
13957TIP3    H163362   0.849   4.481   0.818  0.1670  0.8522  0.0789
13957TIP3    H263363   0.958   4.418   0.735  0.4210  0.1041  0.9549
13958TIP3   OH263364   1.288   4.854   0.544 -0.2890  0.5395  0.6845
13958TIP3    H163365   1.243   4.830   0.625 -0.1781  1.1847  0.9393
13958TIP3    H263366   1.287   4.950   0.543 -0.2195  0.5422 -0.0381
13959TIP3   OH263367   1.985   0.173   1.245  0.1037 -0.0173 -0.3542
13959TIP3    H163368   2.005   0.180   1.339  0.3087  1.1638 -0.4677
13959TIP3    H263369   1.916   0.108   1.240  1.5874 -1.7497  0.3906
13960TIP3   OH263370   5.747   2.338  12.458 -0.0116 -0.5781  0.5215
13960TIP3    H163371   5.842   2.336  12.451 -0.0473  0.5047 -0.5441
13960TIP3    H263372   5.718   2.260  12.411  0.2813  0.3991 -1.3989
13961TIP3   OH263373   3.287   0.985  13.926 -0.7333 -0.2680 -0.3433
13961TIP3    H163374   3.307   0.968  14.018 -3.4867  2.5783  0.9683
13961TIP3    H263375   3.337   1.064  13.905 -0.3071 -0.7666 -1.2415
13962TIP3   OH263376   5.441   2.862  12.183  0.1736  0.2540 -0.7677
13962TIP3    H163377   5.467   2.776  12.151 -0.7184  0.1241 -1.1710
13962TIP3    H263378   5.346   2.857  12.193  0.2365  0.8360  0.2881
13963TIP3   OH263379   6.265   6.712   1.945  0.0320  0.3763 -0.1913
13963TIP3    H163380   6.343   6.758   1.975 -0.2977  1.1883 -0.5336
13963TIP3    H263381   6.226   6.771   1.880 -1.0719  0.1559  0.2500
13964TIP3   OH263382   1.785   1.137  12.106 -0.3920  0.0908  0.4399
13964TIP3    H163383   1.789   1.202  12.176 -0.8851  0.4792  0.1210
13964TIP3    H263384   1.853   1.163  12.045 -3.1661  2.8952 -1.8159
13965TIP3   OH263385   4.505   0.429   1.808 -0.0442 -0.3749  0.2094
13965TIP3    H163386   4.548   0.499   1.759  1.2671  0.4498  2.4127
13965TIP3    H263387   4.415   0.460   1.820  0.0592  0.1290 -0.2786
13966TIP3   OH263388   1.470   3.950  12.384  0.2644  0.5355 -0.6552
13966TIP3    H163389   1.450   3.856  12.383 -2.5617  1.0328 -0.5427
13966TIP3    H263390   1.508   3.966  12.297  2.4869 -0.9369 -0.0487
13967TIP3   OH263391   6.063   2.284  12.688 -0.4064  0.0401 -0.0147
13967TIP3    H163392   6.109   2.240  12.758  0.7201  0.1486 -0.6669
13967TIP3    H263393   6.029   2.214  12.633 -2.1486 -0.0726  1.1356
13968TIP3   OH263394   6.179   4.201  14.343  0.5982  0.1283  0.4100
13968TIP3    H163395   6.205   4.184  14.433 -2.3517 -1.9655  0.9943
13968TIP3    H263396   6.224   4.134  14.291  1.2729  0.5132  0.4918
13969TIP3   OH263397   0.747   4.688  16.975 -0.3604 -0.6811 -0.5021
13969TIP3    H163398   0.775   4.676  16.885  1.2904  0.0634 -0.1223
13969TIP3    H263399   0.750   4.600  17.013  0.1870 -0.8111 -0.8409
13970TIP3   OH263400   4.417   0.916   1.858  0.2131 -0.2342  0.0388
13970TIP3    H163401   4.449   0.941   1.772 -1.2093 -0.5415 -0.6083
13970TIP3    H263402   4.439   0.990   1.915  2.0720 -0.4659 -0.3375
13971TIP3   OH263403   1.248   2.650  14.122  0.6649 -0.3112  0.8759
13971TIP3    H163404   1.221   2.619  14.035  0.5031 -0.0094  0.8169
13971TIP3    H263405   1.343   2.644  14.121  0.7438  0.8329  0.2420
13972TIP3   OH263406   5.496   2.962  10.880  0.1846  0.3382 -0.5859
13972TIP3    H163407   5.499   2.908  10.801 -1.0117  0.7934 -0.9664
13972TIP3    H263408   5.468   2.902  10.949  0.1239  0.1860 -0.7427
13973TIP3   OH263409   4.113   4.532  11.890 -0.3085 -0.4608 -1.0387
13973TIP3    H163410   4.200   4.509  11.858  0.8215  0.2402  1.3268
13973TIP3    H263411   4.069   4.447  11.903 -0.1628 -0.8083 -2.5301
13974TIP3   OH263412   0.097   4.007  15.712  0.0129  0.1510  0.8412
13974TIP3    H163413   0.052   3.977  15.791  2.6856 -0.2062  2.3212
13974TIP3    H263414   0.066   3.947  15.644 -1.0611 -0.6229  1.9560
13975TIP3   OH263415   5.313   5.149   0.610 -0.6547  0.2881  0.1897
13975TIP3    H163416   5.327   5.201   0.531 -1.7562 -1.0383 -0.9374
13975TIP3    H263417   5.246   5.197   0.659  1.5277  2.2536  1.4799
13976TIP3   OH263418   4.448   5.371   1.806 -0.4920  0.6679  0.0037
13976TIP3    H163419   4.493   5.314   1.869  0.7191  1.4578 -0.1110
13976TIP3    H263420   4.465   5.331   1.721 -0.2562  0.8053 -0.0137
13977TIP3   OH263421   5.521   4.209   1.627 -0.0348  0.1380 -0.5100
13977TIP3    H163422   5.472   4.230   1.707  0.6331  1.1722 -0.3517
13977TIP3    H263423   5.501   4.117   1.610 -2.9089  0.7474 -1.0489
13978TIP3   OH263424   3.740   3.948   1.660  0.6275  0.0302 -0.0021
13978TIP3    H163425   3.833   3.936   1.676  0.5980  1.2381  1.3821
13978TIP3    H263426   3.731   4.040   1.636 -0.1378 -0.2411 -0.8245
13979TIP3   OH263427   3.439   3.520   0.916 -0.2309  0.3710 -0.4464
13979TIP3    H163428   3.484   3.460   0.975 -1.1776  0.5508  0.4850
13979TIP3    H263429   3.353   3.532   0.955 -0.9687  0.3237 -1.9934
13980TIP3   OH263430   6.203   1.639   4.256 -0.1796 -0.1780  0.3339
13980TIP3    H163431   6.268   1.570   4.266 -1.1465 -0.9423  1.4494
13980TIP3    H263432   6.249   1.707   4.206  1.1647 -1.0964  0.2663
13981TIP3   OH263433   4.584   6.093  16.883 -0.0697 -0.2368 -0.1720
13981TIP3    H163434   4.669   6.073  16.922 -0.3158  0.6405  0.8300
13981TIP3    H263435   4.602   6.099  16.789  1.0387  0.2696  0.0601
13982TIP3   OH263436   0.617   5.436  12.895 -0.1904  0.5496 -0.6374
13982TIP3    H163437   0.624   5.343  12.917  2.4171  0.3550 -1.9919
13982TIP3    H263438   0.523   5.455  12.900 -0.5315 -1.1948  3.2842
13983TIP3   OH263439   0.492   5.482  10.331  0.3864  0.4073  0.2497
13983TIP3    H163440   0.495   5.387  10.321  0.6274  0.5673 -1.5617
13983TIP3    H263441   0.480   5.496  10.425  0.2117 -1.4058  0.5359
13984TIP3   OH263442   0.085   2.650   5.989  0.1632 -0.2948  0.3137
13984TIP3    H163443   0.163   2.596   6.000  1.1364  0.6266 -1.5395
13984TIP3    H263444   0.073   2.693   6.074  0.4504 -1.9673  1.2361
13985TIP3   OH263445   2.713   5.928   2.788  0.3073 -0.4957  0.3322
13985TIP3    H163446   2.684   5.842   2.817 -1.7837  0.0202 -0.0523
13985TIP3    H263447   2.663   5.990   2.843  2.4641  0.5124  1.2749
13986TIP3   OH263448   0.958   0.724   5.869 -0.4642 -0.2269  0.4014
13986TIP3    H163449   0.994   0.776   5.941  0.1256 -0.0904  0.0153
13986TIP3    H263450   0.864   0.743   5.870 -0.2270  0.9994  0.1353
13987TIP3   OH263451   1.084   3.716  15.138  0.2253  0.1524  0.2062
13987TIP3    H163452   1.129   3.740  15.057  0.1653 -1.7136 -0.4356
13987TIP3    H263453   1.141   3.650  15.178 -0.5290 -0.1221  0.8621
13988TIP3   OH263454   5.504   6.753   1.329  0.5322 -0.8541 -0.1702
13988TIP3    H163455   5.428   6.703   1.357  0.5934 -0.5309  0.6127
13988TIP3    H263456   5.469   6.826   1.278  0.2003 -0.0751  1.1059
13989TIP3   OH263457   5.271   5.019  13.934 -0.1285 -0.2573 -0.4014
13989TIP3    H163458   5.211   4.955  13.895 -0.3322  0.1533 -0.7779
13989TIP3    H263459   5.213   5.082  13.976 -0.0092  0.5589 -1.4108
13990TIP3   OH263460   2.004   4.635  13.625  0.2284 -0.1021  0.1131
13990TIP3    H163461   1.981   4.712  13.677 -1.6738 -0.7962  0.4030
13990TIP3    H263462   2.099   4.628  13.632  0.5847  2.7995 -0.7939
13991TIP3   OH263463   0.128   2.852  13.977 -0.1355 -0.3110 -0.3529
13991TIP3    H163464   0.186   2.840  14.052  0.6272  0.9222 -0.7238
13991TIP3    H263465   0.183   2.891  13.909 -1.5415  1.6299 -0.4711
13992TIP3   OH263466   1.913   0.034   4.975 -0.0682 -0.5117 -0.6900
13992TIP3    H163467   1.869   0.032   5.060 -0.5581 -0.4628 -0.9392
13992TIP3    H263468   1.975  -0.039   4.978  0.8703  0.2973  0.2076
13993TIP3   OH263469   2.614   0.263  16.421 -0.2849  0.3409 -0.1311
13993TIP3    H163470   2.571   0.300  16.498 -3.2410  1.1205 -1.9741
13993TIP3    H263471   2.564   0.185  16.400  1.9487 -1.2249  0.0038
13994TIP3   OH263472   2.358   6.122  14.735 -0.0724  0.1590 -0.0286
13994TIP3    H163473   2.288   6.164  14.684 -0.1703 -0.9159 -0.8000
13994TIP3    H263474   2.437   6.170  14.711  0.0349 -0.8471 -1.8869
13995TIP3   OH263475   1.809   4.543  12.544  0.7352  0.1753  0.3237
13995TIP3    H163476   1.782   4.570  12.457 -0.2203 -0.8534  0.2703
13995TIP3    H263477   1.898   4.576  12.554  1.8537 -1.8217 -2.0430
13996TIP3   OH263478   0.561   3.918   4.833 -0.0174  0.4076 -0.0628
13996TIP3    H163479   0.650   3.948   4.815 -0.1481  1.1767  0.5180
13996TIP3    H263480   0.505   3.988   4.799 -0.4182 -0.2528 -0.7756
13997TIP3   OH263481   2.848   0.456   0.555 -0.1971  0.4606 -0.4556
13997TIP3    H163482   2.772   0.475   0.611  0.1333  0.3815  0.0313
13997TIP3    H263483   2.904   0.400   0.609 -0.1490 -0.1115 -1.0895
13998TIP3   OH263484   2.878   5.003   6.335  0.6398 -0.0360 -0.3822
13998TIP3    H163485   2.841   5.091   6.341  2.0781  0.5426  0.7119
13998TIP3    H263486   2.804   4.945   6.353 -0.2003  0.9703 -0.4832
13999TIP3   OH263487   4.239   0.119  14.240  0.3488  0.6145 -0.0585
13999TIP3    H163488   4.254   0.070  14.159  1.0506  1.5035 -0.4852
13999TIP3    H263489   4.293   0.074  14.306 -1.8762 -1.4645  0.5176
14000TIP3   OH263490   0.947   6.490   0.804  0.3028  0.4065  0.3265
14000TIP3    H163491   0.927   6.572   0.850 -1.3844 -0.0160  0.4141
14000TIP3    H263492   1.027   6.458   0.845  0.2152  1.3181  1.2448
14001TIP3   OH263493   3.654   3.710   1.752  0.2633  0.3983  0.0678
14001TIP3    H163494   3.665   3.798   1.717 -1.9421  0.8252  0.3328
14001TIP3    H263495   3.672   3.652   1.678 -2.8734  1.2529 -1.5046
14002TIP3   OH263496   0.576   1.498  12.196 -0.0941 -0.1051 -0.2998
14002TIP3    H163497   0.501   1.440  12.211  0.0632  0.1428  1.8560
14002TIP3    H263498   0.626   1.456  12.126 -0.5432 -2.0429  0.4732
14003TIP3   OH263499   2.754   5.284   6.345  0.5474 -0.4964  0.6244
14003TIP3    H163500   2.772   5.286   6.251 -1.3936  2.3057  0.1640
14003TIP3    H263501   2.663   5.254   6.351  1.0082 -1.7556  1.7407
14004TIP3   OH263502   0.103   0.298   4.621  0.2616  0.6404 -0.1021
14004TIP3    H163503   0.051   0.360   4.571  2.3942  1.0727 -1.9590
14004TIP3    H263504   0.130   0.346   4.699 -0.2229  1.1569 -0.2466
14005TIP3   OH263505   4.674   3.455  11.753  0.4627  0.0212 -0.1320
14005TIP3    H163506   4.604   3.408  11.798  1.2103 -0.1018  0.9454
14005TIP3    H263507   4.696   3.400  11.678 -0.6960  0.1519 -0.5896
14006TIP3   OH263508   3.967   6.428  12.584 -0.3265  0.1550 -0.8881
14006TIP3    H163509   3.875   6.408  12.571 -0.5998  0.6607  0.2006
14006TIP3    H263510   3.980   6.514  12.543 -0.2461 -0.0731 -1.3518
14007TIP3   OH263511   3.508   1.952   1.801 -0.2220 -0.4031  0.7042
14007TIP3    H163512   3.577   1.927   1.863  0.3342 -2.5379 -0.6787
14007TIP3    H263513   3.549   1.945   1.715 -2.0634 -1.3976 -0.1497
14008TIP3   OH263514   6.569   6.335   4.019 -0.0133 -0.1059 -0.0277
14008TIP3    H163515   6.559   6.344   4.114  0.1539 -0.9003  0.0772
14008TIP3    H263516   6.585   6.241   4.006  0.4260  0.0681 -0.8021
14009TIP3   OH263517   3.927   2.165   6.476  0.1707 -0.1251 -0.0191
14009TIP3    H163518   3.976   2.247   6.475  0.8419 -0.5064 -1.8588
14009TIP3    H263519   3.851   2.181   6.421 -1.3114  0.1451  2.0173
14010TIP3   OH263520   2.476   5.200  13.868  0.5821  0.0577 -0.3562
14010TIP3    H163521   2.457   5.132  13.932 -2.6826  0.2142 -0.9890
14010TIP3    H263522   2.565   5.229  13.889  0.7221 -1.9033  2.1882
14011TIP3   OH263523   5.779   0.985  17.033  0.2345  0.2008 -0.1958
14011TIP3    H163524   5.822   0.957  16.952 -3.2087 -0.3470 -2.0177
14011TIP3    H263525   5.712   1.046  17.005  0.4079  1.8401  2.5900
14012TIP3   OH263526   6.328   5.972   2.263 -0.1389  0.3896 -0.6140
14012TIP3    H163527   6.300   5.922   2.339 -0.4306  0.7177 -0.4998
14012TIP3    H263528   6.408   5.929   2.233 -0.3462 -0.0979 -0.4771
14013TIP3   OH263529   0.284   5.155  11.703  0.7434 -0.5320  0.1102
14013TIP3    H163530   0.265   5.096  11.630 -0.8824  0.8306 -0.6414
14013TIP3    H263531   0.221   5.131  11.770 -0.5425  0.8486 -0.5384
14014TIP3   OH263532   0.896   3.805   0.577 -0.0782 -0.3043 -0.2327
14014TIP3    H163533   0.950   3.749   0.633 -0.7331 -0.2065  0.5217
14014TIP3    H263534   0.810   3.806   0.620 -0.0007  1.5107 -0.0295
14015TIP3   OH263535   6.666   4.666  12.687 -0.2002  0.2598 -0.1947
14015TIP3    H163536   6.664   4.758  12.660 -0.8333 -0.2086 -1.8825
14015TIP3    H263537   6.732   4.626  12.630 -3.2588 -1.2598 -2.9635
14016TIP3   OH263538   4.459   1.447   0.658 -0.4154 -0.3234 -0.1874
14016TIP3    H163539   4.458   1.487   0.745  0.8435 -1.4290  0.3729
14016TIP3    H263540   4.546   1.467   0.624  0.6586 -3.3545  0.5376
14017TIP3   OH263541   1.338   3.429   2.606  0.7667 -0.2454 -0.3917
14017TIP3    H163542   1.277   3.358   2.586 -1.2453  0.4799  2.3794
14017TIP3    H263543   1.308   3.503   2.552  1.7978 -0.9717 -2.0155
14018TIP3   OH263544   0.720   1.878  15.123  0.2795  0.0725 -0.1009
14018TIP3    H163545   0.761   1.817  15.185 -0.5771 -1.5489 -1.0507
14018TIP3    H263546   0.792   1.931  15.090  1.3810 -1.6301 -0.5468
14019TIP3   OH263547   6.487   4.699  10.945  0.4709  0.1146 -0.1565
14019TIP3    H163548   6.449   4.698  10.857 -0.5546  1.7605  0.2289
14019TIP3    H263549   6.567   4.751  10.936  0.2975  0.3921 -0.0811
14020TIP3   OH263550   6.482   2.053  14.680  0.0220 -0.2277  0.1387
14020TIP3    H163551   6.524   2.138  14.685  1.7159 -1.1081  2.4406
14020TIP3    H263552   6.423   2.050  14.755 -1.1488 -0.5627 -0.7555
14021TIP3   OH263553   0.010   1.662  11.921  0.4178 -0.1852 -0.1572
14021TIP3    H163554  -0.069   1.616  11.894 -1.0196  0.8955  1.9210
14021TIP3    H263555   0.014   1.739  11.864  0.9579 -1.0987 -1.3930
14022TIP3   OH263556   3.609   3.882  15.130  0.2360  0.1378  0.1498
14022TIP3    H163557   3.535   3.859  15.074 -0.4768  1.0174  0.7078
14022TIP3    H263558   3.683   3.834  15.092 -0.3591  0.1774 -1.1380
14023TIP3   OH263559   0.539   3.611   5.260 -0.3264 -0.5842  0.1782
14023TIP3    H163560   0.611   3.641   5.315  0.3617 -0.5289 -0.7471
14023TIP3    H263561   0.511   3.528   5.301  0.0692 -0.4631  0.6978
14024TIP3   OH263562   2.089   1.518  15.286  0.7659  0.8037  0.3039
14024TIP3    H163563   2.116   1.428  15.304 -1.7831 -0.2065 -0.4467
14024TIP3    H263564   2.044   1.546  15.366 -0.2381  0.6116 -0.1690
14025TIP3   OH263565   0.159   3.989   1.220 -0.1058 -0.2115 -0.0953
14025TIP3    H163566   0.118   3.905   1.241  1.6560 -1.4922 -1.4512
14025TIP3    H263567   0.115   4.052   1.276 -3.1627 -1.6251 -0.6966
14026TIP3   OH263568   3.785   0.934  15.958 -1.0808  0.6089 -0.5987
14026TIP3    H163569   3.864   0.935  16.011 -1.0737 -0.9530 -0.5338
14026TIP3    H263570   3.778   0.844  15.927 -1.6070  1.2417 -2.4795
14027TIP3   OH263571   1.348   1.747   2.829 -0.4228 -0.3212 -0.1320
14027TIP3    H163572   1.411   1.677   2.850 -0.3131  0.0569  0.8749
14027TIP3    H263573   1.334   1.792   2.912 -0.8688  0.5550 -0.6657
14028TIP3   OH263574   1.289   4.021  15.153 -0.0703 -0.0855 -0.8037
14028TIP3    H163575   1.340   3.950  15.192 -0.8639 -0.1815  0.0890
14028TIP3    H263576   1.199   3.990  15.155 -0.9697  2.1294  2.6502
14029TIP3   OH263577   6.711   1.270   2.750 -0.6800  0.5995 -0.0810
14029TIP3    H163578   6.639   1.323   2.785  0.2697  1.0467  1.2913
14029TIP3    H263579   6.671   1.186   2.728 -1.8411  1.2437 -0.4914
14030TIP3   OH263580   4.128   0.820  13.256  0.1338 -0.3623  0.0812
14030TIP3    H163581   4.176   0.802  13.176 -0.9941 -0.0754 -0.6891
14030TIP3    H263582   4.193   0.857  13.316  0.4767  2.1719 -1.7073
14031TIP3   OH263583   0.418   4.915  14.275  0.6820  0.6380  0.3221
14031TIP3    H163584   0.428   4.954  14.188  1.5140 -0.9186 -0.3359
14031TIP3    H263585   0.475   4.968  14.332  1.4314  0.6696 -0.4409
14032TIP3   OH263586   6.850   1.998   2.006 -0.1093 -0.0941 -0.3957
14032TIP3    H163587   6.812   1.918   1.970  1.6756 -0.5042 -1.4355
14032TIP3    H263588   6.842   2.063   1.936 -0.1043  0.1915 -0.1360
14033TIP3   OH263589   4.589   1.219  16.809  0.0634  0.0110  0.2465
14033TIP3    H163590   4.636   1.152  16.759 -0.0970  0.0753  0.0130
14033TIP3    H263591   4.573   1.290  16.746  0.3126  0.3121  0.5128
14034TIP3   OH263592   6.557   4.862   2.094  0.6370 -0.0609  0.2642
14034TIP3    H163593   6.567   4.923   2.021 -1.3945  0.3845  0.2914
14034TIP3    H263594   6.514   4.785   2.055  0.3858 -0.1964  0.7960
14035TIP3   OH263595   5.508   1.215   3.629  0.2738  0.0603  0.2028
14035TIP3    H163596   5.565   1.257   3.694 -0.1123 -0.9767  1.2398
14035TIP3    H263597   5.453   1.155   3.680 -0.1258 -0.6913 -1.0679
14036TIP3   OH263598   5.229   5.468  14.368  0.6040 -0.1858  0.8087
14036TIP3    H163599   5.187   5.423  14.442 -2.0919  1.3310  0.3498
14036TIP3    H263600   5.208   5.561  14.382  1.7763  0.3697 -0.8208
14037TIP3   OH263601   2.383   4.039  11.167 -0.5278 -0.9136  0.0421
14037TIP3    H163602   2.328   4.081  11.101 -0.6930 -0.0143  0.7227
14037TIP3    H263603   2.404   4.110  11.229 -0.0738 -1.6450  0.7465
14038TIP3   OH263604   6.230   5.888  15.900  0.6355 -0.0131  0.3466
14038TIP3    H163605   6.279   5.836  15.963  0.3842 -0.1572  0.4259
14038TIP3    H263606   6.140   5.857  15.908  0.8421 -1.1435 -1.1927
14039TIP3   OH263607   5.556   1.563   4.224  0.1816  0.0068 -0.1023
14039TIP3    H163608   5.517   1.486   4.182  1.4307 -0.0148 -1.3236
14039TIP3    H263609   5.587   1.531   4.308 -1.1132 -0.3129  0.2733
14040TIP3   OH263610   0.321   2.325  16.279  0.2380  0.4828  0.1791
14040TIP3    H163611   0.372   2.369  16.211 -1.9478 -0.4392 -2.2427
14040TIP3    H263612   0.253   2.388  16.302  0.7852  0.6700  1.3428
14041TIP3   OH263613   3.070   4.931  11.901  0.0811  0.0256 -0.4714
14041TIP3    H163614   3.068   5.002  11.965  1.4455  0.2432 -0.6453
14041TIP3    H263615   3.102   4.972  11.821  0.2822 -0.6555 -0.7442
14042TIP3   OH263616   2.434   2.561   2.208  0.3340 -0.1107 -0.2337
14042TIP3    H163617   2.407   2.498   2.275  1.6784  0.5322  0.9692
14042TIP3    H263618   2.386   2.535   2.130 -2.4053 -0.0554  1.2942
14043TIP3   OH263619   1.147   6.188   4.282 -0.2467  0.1184 -0.1969
14043TIP3    H163620   1.132   6.105   4.326  3.8497 -1.1266 -0.7867
14043TIP3    H263621   1.159   6.165   4.190  3.5600  0.8226 -0.0072
14044TIP3   OH263622   1.000   0.932   5.325  0.1416  0.1063  0.0058
14044TIP3    H163623   0.951   0.893   5.252  2.0712 -2.1939 -0.1864
14044TIP3    H263624   0.986   0.872   5.398  2.4233 -0.5369 -0.0098
14045TIP3   OH263625   6.746   5.428  12.278  0.3514  0.2406  0.2709
14045TIP3    H163626   6.801   5.351  12.291  0.3261  0.0257 -0.7670
14045TIP3    H263627   6.758   5.480  12.357  2.1826  0.2777  0.0147
14046TIP3   OH263628   2.523   1.570   1.742  0.6417  0.1684  0.4200
14046TIP3    H163629   2.573   1.534   1.815  1.3074 -0.7953 -0.4780
14046TIP3    H263630   2.445   1.514   1.736 -0.2046  1.1989  1.3360
14047TIP3   OH263631   0.654   3.784  14.503  1.0379  0.3455 -0.0486
14047TIP3    H163632   0.565   3.817  14.495  0.5298 -1.0932 -0.4579
14047TIP3    H263633   0.701   3.854  14.550 -0.2385  1.1945  0.0064
14048TIP3   OH263634   5.686   0.483  16.493  0.4298 -0.0713  0.5517
14048TIP3    H163635   5.724   0.485  16.405  0.1916 -2.5108  0.3413
14048TIP3    H263636   5.720   0.562  16.535  1.0346  0.8389 -1.5145
14049TIP3   OH263637   4.087   2.248   6.131 -0.0949  0.2347  0.2159
14049TIP3    H163638   3.993   2.238   6.146 -0.3891 -0.1133 -1.6229
14049TIP3    H263639   4.114   2.318   6.191 -1.1508 -0.8426  2.0175
14050TIP3   OH263640   6.696   4.192   0.458  0.0126  0.0731  0.2225
14050TIP3    H163641   6.747   4.123   0.501  0.2657  0.2234  0.1630
14050TIP3    H263642   6.756   4.266   0.452 -0.1004  0.1306 -0.1808
14051TIP3   OH263643   5.445   1.690   4.861  0.2687 -0.4363 -0.0657
14051TIP3    H163644   5.523   1.657   4.905  1.3778  2.8038  0.6181
14051TIP3    H263645   5.475   1.716   4.774 -0.3900 -0.4346 -0.2985
14052TIP3   OH263646   1.668   1.130  14.864 -0.2165 -0.2018  0.4258
14052TIP3    H163647   1.615   1.210  14.862  1.7990  1.2261  0.9026
14052TIP3    H263648   1.732   1.142  14.794  0.4615 -1.1341  0.8730
14053TIP3   OH263649   4.613   0.084  16.423  0.1259 -0.2017 -0.1198
14053TIP3    H163650   4.566   0.155  16.467 -2.1301 -1.2507 -0.6761
14053TIP3    H263651   4.659   0.127  16.351 -0.0155  0.8696  0.4059
14054TIP3   OH263652   2.941   3.408  16.070  0.1979 -0.2102 -0.1248
14054TIP3    H163653   2.937   3.463  15.992  0.3680  0.6633  0.4608
14054TIP3    H263654   3.025   3.430  16.110  0.5356 -1.3523 -0.1979
14055TIP3   OH263655   2.623   2.401  16.159 -0.3357  0.6210 -0.0930
14055TIP3    H163656   2.578   2.454  16.093 -0.3628  1.1140  0.3200
14055TIP3    H263657   2.716   2.409  16.136 -0.4372 -0.3291 -0.8953
14056TIP3   OH263658   1.081   1.542   3.143 -0.5214 -0.2390  0.0327
14056TIP3    H163659   1.041   1.456   3.152 -3.2590  0.5490 -2.7929
14056TIP3    H263660   1.136   1.535   3.065 -1.0328  0.6001 -0.4247
14057TIP3   OH263661   3.086   5.852   4.571  0.3080 -0.3257  0.0501
14057TIP3    H163662   3.070   5.877   4.480  1.9743  0.9620  0.0589
14057TIP3    H263663   3.158   5.789   4.566 -0.1812 -0.9314  0.4387
14058TIP3   OH263664   1.957   1.864   0.914  0.1845 -0.3745 -0.1900
14058TIP3    H163665   1.975   1.770   0.902  0.7028 -0.3922  0.6571
14058TIP3    H263666   1.948   1.897   0.825  2.5807 -0.7604 -0.6667
14059TIP3   OH263667   2.950   1.679   4.886  0.2127  0.0766 -0.2374
14059TIP3    H163668   2.879   1.687   4.950 -0.2466 -0.0971 -0.7171
14059TIP3    H263669   3.024   1.724   4.927  0.9029 -2.6269  1.8191
14060TIP3   OH263670   3.828   3.097   5.749 -0.0112 -0.4960  0.3141
14060TIP3    H163671   3.733   3.097   5.740  0.0014 -2.3537 -0.2886
14060TIP3    H263672   3.857   3.171   5.695 -0.9965 -1.5012 -1.7354
14061TIP3   OH263673   4.958   2.344   5.070  0.3146 -0.4678  0.5120
14061TIP3    H163674   4.975   2.438   5.066  1.2460 -0.6488 -1.0077
14061TIP3    H263675   5.017   2.312   5.138  0.0923  0.0351  0.9408
14062TIP3   OH263676   1.176   5.151   4.753  0.0150  0.2328 -0.1426
14062TIP3    H163677   1.265   5.182   4.772 -0.3234  1.2395 -0.1688
14062TIP3    H263678   1.121   5.229   4.760 -0.4325  0.3482 -3.3884
14063TIP3   OH263679   6.507   6.309   2.063  0.3313 -0.1168  0.4477
14063TIP3    H163680   6.555   6.245   2.010  1.0726  0.8126 -0.0159
14063TIP3    H263681   6.443   6.347   2.003 -0.0225 -0.3224  0.6899
14064TIP3   OH263682   2.485   2.908   0.709 -0.1457  0.0287  0.2135
14064TIP3    H163683   2.397   2.889   0.675 -0.1168  0.2015  0.0400
14064TIP3    H263684   2.499   2.841   0.776  0.2305 -1.0093 -0.8581
14065TIP3   OH263685   1.718   2.378   0.709  0.2910 -0.2064 -0.2760
14065TIP3    H163686   1.731   2.468   0.739 -0.1725  0.1069 -0.9750
14065TIP3    H263687   1.652   2.385   0.640 -1.5981 -1.3803  1.3057
14066TIP3   OH263688   2.069   4.165  15.722  0.5742 -0.0940  0.1298
14066TIP3    H163689   2.036   4.112  15.795 -0.5031 -0.1968 -0.4185
14066TIP3    H263690   2.080   4.103  15.650 -2.7491  0.6844 -1.1871
14067TIP3   OH263691   4.920   4.815   3.144  0.3146  1.0502 -0.8080
14067TIP3    H163692   4.906   4.887   3.205 -0.0500  1.8818 -1.8460
14067TIP3    H263693   4.915   4.855   3.057  2.9065  0.2821 -1.4001
14068TIP3   OH263694   4.881   2.833   4.708 -0.4476 -0.5431 -0.0849
14068TIP3    H163695   4.871   2.928   4.720  2.1598 -0.2544  0.3641
14068TIP3    H263696   4.819   2.812   4.638 -0.7817  1.5940 -0.5279
14069TIP3   OH263697   3.695   0.639   2.623 -0.4259 -0.1057 -0.0660
14069TIP3    H163698   3.752   0.687   2.683 -1.7152  1.4563 -0.0289
14069TIP3    H263699   3.620   0.613   2.676 -0.9176  0.0650 -0.6623
14070TIP3   OH263700   0.667   1.176  12.693 -0.3132  0.0455  0.0195
14070TIP3    H163701   0.704   1.198  12.779  0.2053  0.7113 -0.3627
14070TIP3    H263702   0.593   1.236  12.683 -0.3786 -0.0380  0.0022
14071TIP3   OH263703   5.997   0.520  12.434 -0.6673 -0.0781  0.0662
14071TIP3    H163704   5.962   0.433  12.452  0.6318 -1.2431 -2.4631
14071TIP3    H263705   5.949   0.550  12.357 -1.7732  1.9279  1.4596
14072TIP3   OH263706   4.490   0.324  14.206 -0.4928 -0.6458  0.5549
14072TIP3    H163707   4.473   0.234  14.233  0.1947 -0.7761  0.5648
14072TIP3    H263708   4.422   0.342  14.140 -0.8902 -1.0231  0.8532
14073TIP3   OH263709   6.150   4.798  10.738  0.2123 -0.4338  0.1187
14073TIP3    H163710   6.242   4.773  10.731  0.1722 -0.9534  1.2367
14073TIP3    H263711   6.116   4.790  10.649  1.1507 -0.6073 -0.2337
14074TIP3   OH263712   3.379   6.211  15.103  0.2179  0.0951  0.4316
14074TIP3    H163713   3.286   6.191  15.099 -0.0272  1.3681 -0.8923
14074TIP3    H263714   3.412   6.187  15.016  0.8935  0.7389  0.5034
14075TIP3   OH263715   1.248   5.764  15.509 -0.0862 -0.0687 -0.6915
14075TIP3    H163716   1.343   5.762  15.520 -0.2213  1.2953  1.0922
14075TIP3    H263717   1.214   5.764  15.598 -1.6226  2.9057 -1.1659
14076TIP3   OH263718   2.066   6.844   1.036  0.1328  0.4878  0.1307
14076TIP3    H163719   2.150   6.866   0.995 -0.3003 -0.1156 -1.1410
14076TIP3    H263720   2.063   6.899   1.114  0.6402  2.3333 -1.0711
14077TIP3   OH263721   1.588   1.159  13.707  0.7350  0.0463  0.1252
14077TIP3    H163722   1.587   1.148  13.612 -0.8751  2.0956 -0.1540
14077TIP3    H263723   1.495   1.165  13.731  1.0430 -1.6894  2.0321
14078TIP3   OH263724   4.496   3.586   3.990  0.6689  0.5324  0.5042
14078TIP3    H163725   4.418   3.618   3.945 -0.5943 -1.1594  1.3342
14078TIP3    H263726   4.564   3.581   3.923 -0.6534 -0.2778 -0.8237
14079TIP3   OH263727   3.115   0.305  15.290  0.0683 -0.4863  0.0906
14079TIP3    H163728   3.129   0.213  15.268  0.7743 -0.7105  1.3904
14079TIP3    H263729   3.020   0.315  15.294 -0.0054 -1.4826  1.1761
14080TIP3   OH263730   1.732   3.260   4.362  0.1670 -0.4736  0.4398
14080TIP3    H163731   1.754   3.196   4.294 -2.2100 -0.1073 -0.8001
14080TIP3    H263732   1.784   3.337   4.339  1.4669 -1.2373  0.7150
14081TIP3   OH263733   3.200   0.655  15.445  0.2629  0.2120 -0.1068
14081TIP3    H163734   3.121   0.619  15.406 -0.6475  1.2384  0.7467
14081TIP3    H263735   3.203   0.746  15.416  1.1942  0.1557 -0.2212
14082TIP3   OH263736   4.959   3.557   3.874 -0.4414 -0.2796  0.1761
14082TIP3    H163737   4.930   3.644   3.847 -0.7981 -0.4171  0.1119
14082TIP3    H263738   5.036   3.539   3.820 -0.1984  0.1063  0.3829
14083TIP3   OH263739   4.173   3.904   3.699 -0.7255  0.0383 -0.2476
14083TIP3    H163740   4.094   3.943   3.662 -0.7479 -0.3573 -0.6250
14083TIP3    H263741   4.204   3.844   3.631  0.6411  1.1594 -0.6475
14084TIP3   OH263742   3.316   1.885  14.472 -0.1654  0.2506  0.7222
14084TIP3    H163743   3.286   1.920  14.556 -0.9373 -1.9867  1.4591
14084TIP3    H263744   3.274   1.941  14.407  0.1451  1.8068  1.7865
14085TIP3   OH263745   1.874   6.854  11.735 -0.0389 -0.0105  0.3817
14085TIP3    H163746   1.932   6.787  11.772 -1.4643 -0.0211  2.7634
14085TIP3    H263747   1.824   6.887  11.809 -1.1860  1.9235 -1.1519
14086TIP3   OH263748   0.069   0.105  14.104 -0.3464  0.3680 -0.2132
14086TIP3    H163749   0.011   0.150  14.165 -0.8860 -0.8934  0.2527
14086TIP3    H263750   0.149   0.088  14.155 -2.1036 -4.0531  1.6523
14087TIP3   OH263751   6.680   4.743   0.680  0.0216  0.2658 -0.5328
14087TIP3    H163752   6.599   4.794   0.678 -0.7855 -0.9999 -1.1827
14087TIP3    H263753   6.705   4.741   0.773 -2.0311 -1.3255  0.0671
14088TIP3   OH263754   2.327   0.434   1.085 -0.7123 -0.5961  0.2725
14088TIP3    H163755   2.384   0.358   1.069 -0.8523 -0.8109  0.7836
14088TIP3    H263756   2.387   0.508   1.089 -0.5804 -0.6679 -0.3034
14089TIP3   OH263757   2.407   1.352  11.019  0.1557  0.4742  0.0708
14089TIP3    H163758   2.411   1.358  11.115  2.3915  1.4088 -0.0221
14089TIP3    H263759   2.452   1.270  10.998 -1.7405 -0.5691 -0.1679
14090TIP3   OH263760   4.583   1.818   3.648 -0.0747 -0.1682  0.3192
14090TIP3    H163761   4.589   1.832   3.554 -2.0811 -1.8334 -0.1408
14090TIP3    H263762   4.660   1.765   3.670  0.2484 -0.0105 -0.4285
14091TIP3   OH263763   1.397   2.347  14.588  0.1366  0.0682 -0.0003
14091TIP3    H163764   1.435   2.424  14.545 -0.7784  1.0365  0.8877
14091TIP3    H263765   1.326   2.320  14.531  0.9704 -0.6511 -0.7371
14092TIP3   OH263766   0.212   0.110  16.206  0.4747 -0.5109  0.1260
14092TIP3    H163767   0.299   0.114  16.167  0.7163  1.7722  0.7678
14092TIP3    H263768   0.161   0.057  16.145  1.5679  0.5434 -1.8002
14093TIP3   OH263769   5.491   5.073  10.606 -0.4492 -0.2321 -0.1312
14093TIP3    H163770   5.541   5.096  10.528 -1.7871  0.3379 -0.8521
14093TIP3    H263771   5.443   5.153  10.628 -2.0793 -1.1304 -0.2779
14094TIP3   OH263772   1.363   4.443  16.791  0.7891  0.2001 -0.6911
14094TIP3    H163773   1.388   4.457  16.700  1.1495  0.0690 -0.6148
14094TIP3    H263774   1.385   4.351  16.807  0.9234  0.2809 -0.4114
14095TIP3   OH263775   6.354   4.334   1.535  0.0387  0.0250 -0.0366
14095TIP3    H163776   6.263   4.332   1.503  0.1420  0.2516 -0.3592
14095TIP3    H263777   6.364   4.255   1.587 -0.6782  0.5445  0.9205
14096TIP3   OH263778   5.319   1.909  15.736  0.1618 -1.1042 -0.4573
14096TIP3    H163779   5.266   1.961  15.676  0.2614 -0.3734  0.0694
14096TIP3    H263780   5.262   1.838  15.765 -0.0307 -1.1967 -1.0576
14097TIP3   OH263781   1.377   5.712   0.234  0.0201  0.8709 -0.2864
14097TIP3    H163782   1.457   5.686   0.189 -0.1054 -0.9459  0.4353
14097TIP3    H263783   1.404   5.779   0.297  0.8863  0.6418 -0.4094
14098TIP3   OH263784   4.086   1.379  14.529  0.2626 -1.0040  0.1060
14098TIP3    H163785   4.166   1.415  14.489 -1.2672  1.4481 -0.9914
14098TIP3    H263786   4.040   1.456  14.564 -1.3421 -2.4120  1.2283
14099TIP3   OH263787   2.886   4.626  16.311 -0.5930 -0.9088 -0.2291
14099TIP3    H163788   2.908   4.718  16.293 -2.5241  0.0441  1.8242
14099TIP3    H263789   2.822   4.604  16.243 -1.1449 -0.2656  0.0673
14100TIP3   OH263790   5.151   4.464   0.757  0.1464 -0.5195  0.1150
14100TIP3    H163791   5.132   4.398   0.824  0.7739 -0.2738  0.5434
14100TIP3    H263792   5.071   4.468   0.704 -0.1693 -1.0864  0.5336
14101TIP3   OH263793   0.779   4.794   0.885  0.2979 -0.4862 -0.0424
14101TIP3    H163794   0.792   4.844   0.966 -0.0287 -0.7050  0.1424
14101TIP3    H263795   0.684   4.789   0.874  0.3092 -1.6776  0.3132
14102TIP3   OH263796   5.158   5.990  12.133 -0.2180 -0.1276 -0.1974
14102TIP3    H163797   5.236   6.005  12.185  0.0729  1.3228 -0.9982
14102TIP3    H263798   5.176   6.033  12.049 -1.7023 -0.1345 -0.5560
14103TIP3   OH263799   0.559   4.470   5.929  0.2565 -0.4101 -0.0720
14103TIP3    H163800   0.594   4.559   5.934  0.5435 -0.5795  1.2716
14103TIP3    H263801   0.559   4.439   6.019 -0.5969 -1.4945 -0.4240
14104TIP3   OH263802   2.343   0.153   2.052  0.1177  0.3455  0.0675
14104TIP3    H163803   2.348   0.239   2.011  0.8925 -0.3462 -1.3951
14104TIP3    H263804   2.391   0.162   2.134 -0.1677  1.4010  0.1304
14105TIP3   OH263805   5.860   0.144   5.830 -0.1622  0.0440  0.2138
14105TIP3    H163806   5.802   0.093   5.774  0.5552 -1.1762  0.5249
14105TIP3    H263807   5.822   0.231   5.833 -1.4953 -0.5050 -0.2690
14106TIP3   OH263808   6.536   2.114   4.083 -0.0326  0.8252 -0.0631
14106TIP3    H163809   6.541   2.210   4.075  0.1670  0.9237  1.0838
14106TIP3    H263810   6.588   2.082   4.009  2.0510  1.6488  0.9736
14107TIP3   OH263811   2.462   5.127  12.048 -0.6362  0.4341 -0.3663
14107TIP3    H163812   2.511   5.084  11.978  0.0725 -0.7781  0.8230
14107TIP3    H263813   2.454   5.061  12.117 -0.3212  1.9057  1.1669
14108TIP3   OH263814   1.542   0.032  15.076 -0.5914 -0.0886  0.7612
14108TIP3    H163815   1.532   0.018  14.982 -0.2358 -1.6785  0.9353
14108TIP3    H263816   1.564  -0.054  15.111  0.2881  0.6681  2.1661
14109TIP3   OH263817   1.162   2.441   2.871  0.1947 -0.2229 -0.6140
14109TIP3    H163818   1.096   2.417   2.936  1.2090 -1.2773  0.0776
14109TIP3    H263819   1.139   2.389   2.793 -0.1847 -0.0627 -0.6091
14110TIP3   OH263820   2.934   1.013   6.311  0.4342  0.0888 -0.3038
14110TIP3    H163821   2.991   0.952   6.358  0.2328  0.0250 -0.1442
14110TIP3    H263822   2.856   0.962   6.290  0.8507 -0.1247 -1.4139
14111TIP3   OH263823   0.909   2.887   2.197 -0.7016  0.5100 -0.7941
14111TIP3    H163824   1.002   2.864   2.199 -0.6411  0.8109  0.1344
14111TIP3    H263825   0.866   2.812   2.155 -0.0152  0.4879 -1.4872
14112TIP3   OH263826   1.965   3.466  11.231 -0.2647  0.8939  0.3348
14112TIP3    H163827   1.911   3.427  11.300  0.6342  1.0411  1.1582
14112TIP3    H263828   1.911   3.463  11.153 -0.7509 -0.6878  0.7031
14113TIP3   OH263829   4.402   2.948  11.491  0.3877 -0.2572 -0.5313
14113TIP3    H163830   4.451   3.020  11.452  0.4126  0.9139  1.4942
14113TIP3    H263831   4.467   2.881  11.508  1.1733  0.8826  1.2152
14114TIP3   OH263832   3.342   4.250   3.971  0.1634  0.4224 -0.2378
14114TIP3    H163833   3.335   4.345   3.960 -2.1707  0.2606 -0.5176
14114TIP3    H263834   3.398   4.239   4.048  0.0944  2.0310  0.0737
14115TIP3   OH263835   3.083   2.869  11.269 -0.2948  0.4417 -0.2229
14115TIP3    H163836   3.027   2.929  11.219 -2.8003 -1.0718  0.6238
14115TIP3    H263837   3.052   2.782  11.246  0.8218 -0.4194  1.3599
14116TIP3   OH263838   5.334   5.804   3.331  0.0796  0.0377  0.3880
14116TIP3    H163839   5.390   5.788   3.256 -0.2704  1.1210 -0.1286
14116TIP3    H263840   5.394   5.814   3.405  0.3468 -2.7501  0.6339
14117TIP3   OH263841   1.103   0.439   4.561  0.3027 -0.3965 -0.1058
14117TIP3    H163842   1.010   0.420   4.545  0.5840  0.0918 -2.8536
14117TIP3    H263843   1.111   0.533   4.545  1.4547 -0.6372 -1.0353
14118TIP3   OH263844   2.381   4.578   0.898 -0.2310  0.0884  0.1277
14118TIP3    H163845   2.375   4.486   0.871  0.6341  0.1217 -0.2023
14118TIP3    H263846   2.407   4.574   0.990 -0.4384  0.0108  0.1860
14119TIP3   OH263847   1.422   0.387   4.986 -0.3487 -0.0349 -1.2225
14119TIP3    H163848   1.344   0.437   5.010 -1.0322 -0.9724 -1.4318
14119TIP3    H263849   1.431   0.322   5.056  1.4408  1.2951 -0.1077
14120TIP3   OH263850   6.271   6.331   0.144  0.2648  0.3679 -0.0852
14120TIP3    H163851   6.275   6.423   0.171  0.5028  0.9751 -2.0726
14120TIP3    H263852   6.351   6.293   0.180  0.9002  1.3088 -0.4568
14121TIP3   OH263853   3.583   0.620   5.817  0.1582  0.2153  0.1394
14121TIP3    H163854   3.573   0.528   5.843 -0.0388  0.4651  0.9915
14121TIP3    H263855   3.590   0.667   5.900  1.5930  0.8258 -0.2951
14122TIP3   OH263856   0.740   0.613   6.658 -0.2275  0.4758 -0.6335
14122TIP3    H163857   0.665   0.602   6.716  0.8449 -0.9037  0.5589
14122TIP3    H263858   0.721   0.557   6.583  0.4354 -1.4816  0.5743
14123TIP3   OH263859   4.447   1.678   3.238 -0.0896 -0.4790 -0.1178
14123TIP3    H163860   4.361   1.703   3.203 -0.3747 -0.9964  0.1814
14123TIP3    H263861   4.426   1.621   3.313  0.5106  0.0326  0.4512
14124TIP3   OH263862   5.207   4.004   3.554 -0.1112  0.5454  0.0760
14124TIP3    H163863   5.200   4.097   3.530 -1.2281  0.7068  0.9370
14124TIP3    H263864   5.185   4.002   3.647 -0.1083 -0.5892  0.0580
14125TIP3   OH263865   1.089   3.869   5.405  0.5100 -0.3211 -0.2667
14125TIP3    H163866   1.115   3.910   5.487 -0.3702 -0.9022  0.3262
14125TIP3    H263867   1.071   3.778   5.429  0.6389 -0.5935 -1.1821
14126TIP3   OH263868   5.384   4.634  14.187 -0.2453 -0.0527  0.1355
14126TIP3    H163869   5.309   4.664  14.238 -0.2762  0.8038 -0.4041
14126TIP3    H263870   5.457   4.688  14.217 -0.3662  0.7982 -1.0606
14127TIP3   OH263871   2.299   3.567   2.569  0.0843  0.2180 -0.9356
14127TIP3    H163872   2.305   3.472   2.571 -0.5193  0.1697 -0.9915
14127TIP3    H263873   2.244   3.589   2.644  0.3429  0.5344 -0.8369
14128TIP3   OH263874   4.460   3.805   3.671 -0.5013 -0.0992 -0.5947
14128TIP3    H163875   4.445   3.884   3.723 -2.0336  0.4027 -1.7295
14128TIP3    H263876   4.554   3.807   3.652 -0.4647  1.3125 -0.3731
14129TIP3   OH263877   1.530   0.193   5.219 -0.1563 -0.4060  0.1191
14129TIP3    H163878   1.623   0.188   5.241  0.0280  0.0065 -0.5521
14129TIP3    H263879   1.519   0.135   5.145 -0.3856 -0.2660  0.0411
14130TIP3   OH263880   1.883   2.156  10.723 -0.0984 -0.1409  0.2121
14130TIP3    H163881   1.893   2.081  10.665  0.0598  0.2005 -0.2046
14130TIP3    H263882   1.858   2.118  10.807 -0.7115 -0.6094 -0.1732
14131TIP3   OH263883   2.827   0.844   5.431 -0.3582 -0.0536  0.2205
14131TIP3    H163884   2.845   0.752   5.413  0.0479  0.2477 -1.0313
14131TIP3    H263885   2.736   0.846   5.461 -0.2356 -0.8985  0.6818
14132TIP3   OH263886   6.451   0.846  14.316  0.0075 -1.5199 -0.1667
14132TIP3    H163887   6.369   0.896  14.313 -0.5963 -2.5277 -0.7857
14132TIP3    H263888   6.428   0.764  14.360  1.1829 -0.9632  1.6210
14133TIP3   OH263889   4.717   4.869  13.531  0.6515 -0.3234  0.1855
14133TIP3    H163890   4.660   4.912  13.595  2.9649  0.9589  1.5405
14133TIP3    H263891   4.679   4.891  13.446 -1.2258 -0.1471  1.0157
14134TIP3   OH263892   3.257   3.263  11.892  0.0114  0.1775  0.7831
14134TIP3    H163893   3.274   3.201  11.821 -2.4391  1.1632 -0.8116
14134TIP3    H263894   3.344   3.291  11.920  1.1118 -1.8886 -0.3167
14135TIP3   OH263895   1.493   5.434  15.335 -0.1565  0.1473 -0.5836
14135TIP3    H163896   1.547   5.499  15.289 -1.0950  0.8549 -0.7239
14135TIP3    H263897   1.556   5.379  15.381  0.6604  1.4426 -0.0963
14136TIP3   OH263898   2.813   0.056  13.080  0.4503 -0.1771  0.0140
14136TIP3    H163899   2.728   0.021  13.052  0.6130 -0.2781 -0.3584
14136TIP3    H263900   2.791   0.131  13.134  0.0862 -1.0561  1.1199
14137TIP3   OH263901   6.485   3.421  12.412 -0.1540 -0.2732  0.1825
14137TIP3    H163902   6.474   3.332  12.380 -1.1222 -0.4102  0.8398
14137TIP3    H263903   6.500   3.410  12.506  1.6026  0.1703 -0.0115
14138TIP3   OH263904   3.003   3.346   0.110 -0.0220 -0.6961  0.7130
14138TIP3    H163905   2.970   3.292   0.182  0.3481 -0.5041  1.0297
14138TIP3    H263906   2.937   3.337   0.041 -0.9015 -0.0620  1.4446
14139TIP3   OH263907   1.069   6.565  14.345  0.2382 -0.0536 -0.0414
14139TIP3    H163908   1.105   6.629  14.406  1.6357 -0.0526 -0.8401
14139TIP3    H263909   1.038   6.617  14.271 -0.3014 -0.1707  0.0919
14140TIP3   OH263910   3.856   1.044   1.499 -0.1718 -0.2460  0.4768
14140TIP3    H163911   3.873   0.960   1.455 -1.1098 -1.1479  1.7833
14140TIP3    H263912   3.867   1.025   1.592 -0.9566  0.9473  0.8336
14141TIP3   OH263913   5.082   2.731   2.285  0.2498  0.7726  0.5339
14141TIP3    H163914   5.094   2.760   2.194 -2.5353  2.1886  0.4950
14141TIP3    H263915   5.083   2.635   2.280 -0.9691  0.8031 -1.2069
14142TIP3   OH263916   2.637   0.533  11.297  0.2220 -0.4097 -0.0365
14142TIP3    H163917   2.705   0.584  11.341  1.6288 -2.3469  0.1679
14142TIP3    H263918   2.647   0.445  11.333 -2.5230 -0.7588  0.1084
14143TIP3   OH263919   2.889   2.926   3.113 -0.4307  0.0424 -0.2534
14143TIP3    H163920   2.966   2.948   3.062 -0.2352 -0.5285 -0.2122
14143TIP3    H263921   2.832   2.879   3.052 -0.4711 -0.0851 -0.1198
14144TIP3   OH263922   4.961   6.841  14.903  0.2249  0.5528  0.3174
14144TIP3    H163923   5.036   6.899  14.920  1.9768 -1.2309 -0.8784
14144TIP3    H263924   4.984   6.758  14.945 -1.5540  0.2316  0.7469
14145TIP3   OH263925   6.463   3.738  11.939 -0.1325 -0.0076 -0.7400
14145TIP3    H163926   6.483   3.645  11.954 -0.5995  0.3686  3.0758
14145TIP3    H263927   6.385   3.755  11.992  0.6976  2.8238 -0.2673
14146TIP3   OH263928   1.713   1.102  16.238 -0.1593 -0.3957 -0.1903
14146TIP3    H163929   1.769   1.025  16.249 -0.1959 -0.6312 -1.4637
14146TIP3    H263930   1.702   1.110  16.143 -1.8608 -0.0480 -0.0000
14147TIP3   OH263931   3.157   3.845  16.579  0.1023  0.4687 -0.2855
14147TIP3    H163932   3.158   3.753  16.606  0.4731 -0.0263 -1.8581
14147TIP3    H263933   3.248   3.873  16.586 -0.0874  0.8738  0.6557
14148TIP3   OH263934   3.751   4.909   0.609 -0.0249  0.5840 -0.3317
14148TIP3    H163935   3.825   4.926   0.668 -0.9782  0.7985  0.8512
14148TIP3    H263936   3.791   4.885   0.526  1.3746  0.3238  0.3880
14149TIP3   OH263937   4.003   4.683   3.364 -0.4051  0.5809  0.2397
14149TIP3    H163938   4.079   4.742   3.364 -0.7802  1.0759 -0.1026
14149TIP3    H263939   4.007   4.640   3.278 -0.5221  0.6305  0.2090
14150TIP3   OH263940   3.674   5.779  12.638 -0.0545 -0.4100 -0.0260
14150TIP3    H163941   3.766   5.771  12.614  0.5645  2.4798  0.9886
14150TIP3    H263942   3.655   5.697  12.684  1.5754 -1.6433 -1.4018
14151TIP3   OH263943   1.858   4.238   3.962 -0.7327  0.0888  0.5071
14151TIP3    H163944   1.909   4.313   3.992  0.9049 -0.7696 -0.0380
14151TIP3    H263945   1.851   4.250   3.867  0.9136 -1.2284  0.1916
14152TIP3   OH263946   2.682   3.976  11.814  0.1549  0.1501 -0.1419
14152TIP3    H163947   2.682   4.001  11.907  0.1162 -1.9625  0.4688
14152TIP3    H263948   2.752   4.029  11.776 -0.1639  1.4284  0.9732
14153TIP3   OH263949   0.414   6.681   5.225 -0.1065  0.0399 -0.0124
14153TIP3    H163950   0.407   6.762   5.275  2.2193 -0.4003  1.1732
14153TIP3    H263951   0.508   6.666   5.217 -0.4464 -2.6852  0.0796
14154TIP3   OH263952   0.655   2.655   2.925  0.0822 -0.2629  0.0063
14154TIP3    H163953   0.699   2.648   3.010  1.4090 -0.7985 -0.7003
14154TIP3    H263954   0.699   2.727   2.881  0.4443 -0.9651 -0.8111
14155TIP3   OH263955   3.852   0.569   4.552  0.1913  0.3473  0.3165
14155TIP3    H163956   3.836   0.659   4.527  1.0945  0.1629 -1.0624
14155TIP3    H263957   3.769   0.524   4.537  0.0493  0.7286 -0.0416
14156TIP3   OH263958   1.106   1.923   1.955  0.4090 -0.8176  0.2127
14156TIP3    H163959   1.115   1.829   1.966 -1.5081 -0.9131  1.3112
14156TIP3    H263960   1.172   1.961   2.013 -0.8486 -1.4801  2.1382
14157TIP3   OH263961   4.858   0.741   5.915  0.2894  0.4043 -0.6812
14157TIP3    H163962   4.872   0.674   5.982  0.2227  0.4453 -0.6255
14157TIP3    H263963   4.837   0.692   5.836 -0.5997  0.3785 -0.4378
14158TIP3   OH263964   2.175   5.023  16.899  0.3899  0.0964 -0.0670
14158TIP3    H163965   2.249   5.083  16.898 -0.3712  1.0520 -0.3911
14158TIP3    H263966   2.177   4.984  16.986  1.5352 -0.2400 -0.2279
14159TIP3   OH263967   5.001   3.078   1.467  0.5733 -0.4760 -0.3779
14159TIP3    H163968   5.069   3.014   1.489  2.0204  0.9240 -0.5692
14159TIP3    H263969   5.022   3.155   1.520 -0.7245  0.0922 -0.6396
14160TIP3   OH263970   4.740   5.993  16.170  0.2876  0.5527 -0.0949
14160TIP3    H163971   4.653   5.982  16.132  1.3193 -1.3489 -2.1586
14160TIP3    H263972   4.732   6.070  16.226 -1.9619  2.2648 -2.5225
14161TIP3   OH263973   1.537   1.328  12.661 -0.1269 -0.1133 -0.1251
14161TIP3    H163974   1.462   1.300  12.714  0.0307  0.5589  0.4718
14161TIP3    H263975   1.567   1.248  12.617 -0.1701 -0.7327  0.9337
14162TIP3   OH263976   6.637   1.355   3.986 -1.0520 -0.4491  0.2696
14162TIP3    H163977   6.586   1.372   4.065 -0.2177  0.3618  0.6553
14162TIP3    H263978   6.572   1.333   3.919 -2.0134  1.6820  0.4422
14163TIP3   OH263979   2.281   6.301  12.898  0.5064 -0.3882  0.0564
14163TIP3    H163980   2.271   6.302  12.994  0.1370  0.4696  0.0161
14163TIP3    H263981   2.362   6.252  12.883  1.1388  0.3757  0.8635
14164TIP3   OH263982   3.410   4.115   0.639  0.0509 -0.3838  0.3149
14164TIP3    H163983   3.481   4.095   0.578 -1.1262 -0.6006 -1.0379
14164TIP3    H263984   3.414   4.210   0.650  0.6554 -0.4175  0.3840
14165TIP3   OH263985   2.396   3.061  11.245 -0.3029  0.2281 -0.6870
14165TIP3    H163986   2.403   3.080  11.151  0.5724 -1.0032 -0.8933
14165TIP3    H263987   2.337   2.987  11.251 -2.4222  1.8775 -0.0174
14166TIP3   OH263988   5.407   3.136  15.906  0.4594  0.4245 -0.2400
14166TIP3    H163989   5.409   3.055  15.855  0.3515  1.0580 -1.2873
14166TIP3    H263990   5.455   3.116  15.987 -0.2814 -0.9224 -0.1042
14167TIP3   OH263991   4.699   3.343   2.795 -0.1079  0.5114 -0.1553
14167TIP3    H163992   4.763   3.310   2.732 -0.3333  1.5619 -0.9498
14167TIP3    H263993   4.742   3.418   2.836 -0.9495  1.4798 -0.9821
14168TIP3   OH263994   6.092   5.055  15.656  0.7360  0.4177  0.0204
14168TIP3    H163995   6.079   5.141  15.697  0.7144 -0.3141  1.6050
14168TIP3    H263996   6.166   5.068  15.596  1.3249  1.3219  0.9148
14169TIP3   OH263997   2.507   4.023  14.457 -0.4243 -0.2478 -0.6177
14169TIP3    H163998   2.419   4.037  14.422  0.0884  1.1191 -1.4715
14169TIP3    H263999   2.532   4.108  14.493  0.6657 -0.5244 -0.6811
14170TIP3   OH264000   2.831   6.448  11.650 -0.4234  0.1820  0.2182
14170TIP3    H164001   2.749   6.414  11.685 -1.3771  2.5675  0.4818
14170TIP3    H264002   2.806   6.497  11.572  0.9555 -0.2657 -0.5454
14171TIP3   OH264003   4.151   0.431  14.261  0.3360 -0.6084  0.1697
14171TIP3    H164004   4.186   0.461  14.177 -0.8599 -1.9678 -0.8853
14171TIP3    H264005   4.215   0.367  14.292  1.1698  0.4596  0.7080
14172TIP3   OH264006   0.039   5.817   6.120  0.4231 -0.4082  0.0145
14172TIP3    H164007   0.123   5.850   6.088  0.7707  0.5742  1.8198
14172TIP3    H264008   0.044   5.827   6.215 -2.0112  0.3007  0.1221
14173TIP3   OH264009   6.640   0.957  14.134 -0.2738 -0.4435  0.0040
14173TIP3    H164010   6.576   0.996  14.074 -0.8804 -0.3589  0.6957
14173TIP3    H264011   6.588   0.925  14.207  0.5538  0.4452  1.0175
14174TIP3   OH264012   0.659   3.779  14.189 -0.2000 -0.6132  0.2696
14174TIP3    H164013   0.731   3.719  14.170  0.5382 -0.4325  2.2435
14174TIP3    H264014   0.626   3.751  14.274 -0.6616  0.9667  0.6580
14175TIP3   OH264015   1.612   3.988  13.922 -0.1745 -0.5179  0.2334
14175TIP3    H164016   1.696   3.959  13.958  0.3552  0.0388 -0.5253
14175TIP3    H264017   1.619   4.083  13.920 -1.0119 -0.4407  0.5942
14176TIP3   OH264018   3.654   0.496  15.557 -0.1872 -0.5368 -0.6769
14176TIP3    H164019   3.566   0.483  15.591 -0.9723  2.5776 -1.2444
14176TIP3    H264020   3.646   0.485  15.463  0.0025 -0.1553 -0.7409
14177TIP3   OH264021   1.908   5.234  12.143  0.5331  0.1683 -0.9645
14177TIP3    H164022   1.958   5.253  12.063 -0.4417  1.3163 -1.3289
14177TIP3    H264023   1.888   5.320  12.180  0.3740 -0.3289  0.1539
14178TIP3   OH264024   1.152   5.051  16.379  0.0983 -0.3294  0.2128
14178TIP3    H164025   1.075   5.009  16.342 -0.2973 -0.7936  1.5075
14178TIP3    H264026   1.217   5.049  16.309 -0.5415 -1.3738 -0.3702
14179TIP3   OH264027   2.599   6.392   0.480  0.2729  0.2121  0.3704
14179TIP3    H164028   2.644   6.430   0.556  0.5580 -1.7856  1.2567
14179TIP3    H264029   2.669   6.378   0.415  0.5206 -0.5438  0.7846
14180TIP3   OH264030   4.393   0.815   4.081 -0.1872  0.5258  0.1097
14180TIP3    H164031   4.394   0.865   4.163 -1.5918  0.6629  0.0650
14180TIP3    H264032   4.446   0.738   4.099 -0.6442  0.4588  1.2269
14181TIP3   OH264033   5.109   5.645   3.303  0.5246 -0.8636  0.5739
14181TIP3    H164034   5.195   5.685   3.294  0.5229 -1.1626 -1.2374
14181TIP3    H264035   5.107   5.609   3.391  1.2373  1.4522  1.6050
14182TIP3   OH264036   6.527   4.972   1.859  0.0509  0.0373 -0.5173
14182TIP3    H164037   6.432   4.975   1.850 -0.0269  2.2711  0.5465
14182TIP3    H264038   6.559   5.050   1.813  1.5965 -1.6677 -2.5783
14183TIP3   OH264039   5.333   5.450   2.953  0.4808 -0.1329  0.2576
14183TIP3    H164040   5.281   5.524   2.985 -0.8822 -1.7941  2.1446
14183TIP3    H264041   5.268   5.387   2.921  1.4282 -1.4844  0.8965
14184TIP3   OH264042   5.462   2.932  14.792 -0.5358  0.1816  0.1422
14184TIP3    H164043   5.433   2.849  14.754 -0.1567  0.3259 -0.4753
14184TIP3    H264044   5.459   2.917  14.887 -1.3753 -0.2245  0.0625
14185TIP3   OH264045   0.983   1.919  11.744 -0.1731 -0.1427 -0.5868
14185TIP3    H164046   0.968   1.951  11.833  1.7632 -0.3220 -0.1549
14185TIP3    H264047   0.954   1.828  11.746  0.6714 -0.4087  0.1204
14186TIP3   OH264048   0.253   4.114  11.970  0.2782  0.3034 -0.0765
14186TIP3    H164049   0.238   4.049  11.902  1.4849  0.7735 -0.8215
14186TIP3    H264050   0.339   4.092  12.006  0.3780  1.0580  0.1562
14187TIP3   OH264051   2.291   6.266  16.522  0.3556 -0.8388  0.3720
14187TIP3    H164052   2.214   6.294  16.472  1.8748  1.4354 -0.8951
14187TIP3    H264053   2.256   6.208  16.589 -2.3026 -0.8199 -0.8579
14188TIP3   OH264054   1.166   5.234   5.330  0.3402  0.0320 -0.2234
14188TIP3    H164055   1.182   5.171   5.401  2.4268 -0.0926 -0.7486
14188TIP3    H264056   1.179   5.319   5.371 -1.4740  0.1202  0.2391
14189TIP3   OH264057   4.785   5.717   2.796 -0.0083 -0.5927 -0.1885
14189TIP3    H164058   4.878   5.714   2.820  0.0726  0.5954 -0.2994
14189TIP3    H264059   4.779   5.661   2.718  0.8073  0.0854 -0.7568
14190TIP3   OH264060   0.079   2.659   2.986 -0.3303  0.2443 -0.5439
14190TIP3    H164061   0.104   2.661   2.893  0.3687 -0.0040 -0.3711
14190TIP3    H264062   0.130   2.586   3.022 -1.2143 -0.1908 -0.1336
14191TIP3   OH264063   1.605   3.288   0.693 -0.4708 -0.1995 -0.2287
14191TIP3    H164064   1.663   3.228   0.740 -0.2337 -0.7516 -1.2018
14191TIP3    H264065   1.620   3.269   0.600 -1.1052  0.6969 -0.5337
14192TIP3   OH264066   3.307   2.462  16.624  0.3572 -0.5338  0.0037
14192TIP3    H164067   3.335   2.540  16.671  0.2867 -0.5751  0.1144
14192TIP3    H264068   3.323   2.482  16.532  2.9757 -1.4421  0.1942
14193TIP3   OH264069   3.947   0.616   6.687 -0.3029 -0.0884  0.3866
14193TIP3    H164070   3.932   0.691   6.629 -0.8262 -0.5112 -0.0354
14193TIP3    H264071   3.969   0.544   6.628  0.4096 -0.2253  0.8033
14194TIP3   OH264072   6.619   5.574  13.519  1.0745  0.3311 -0.6610
14194TIP3    H164073   6.614   5.622  13.436 -1.3883 -0.3496 -1.0160
14194TIP3    H264074   6.545   5.607  13.570  0.5353 -1.5798 -0.1059
14195TIP3   OH264075   4.047   3.568   0.263  0.3156 -0.1199  0.0190
14195TIP3    H164076   4.056   3.584   0.169 -0.4723 -0.6701 -0.1619
14195TIP3    H264077   3.967   3.615   0.288  0.6308  0.1943  0.4606
14196TIP3   OH264078   0.138   3.881  13.298  0.3829 -0.2317 -0.6636
14196TIP3    H164079   0.057   3.931  13.285  1.0057  0.6547 -1.3250
14196TIP3    H264080   0.166   3.903  13.386 -1.1265 -2.1393  0.3679
14197TIP3   OH264081   0.818   2.664   4.813  0.4843  0.0093 -0.4774
14197TIP3    H164082   0.776   2.664   4.727  0.1202  0.3993 -0.3088
14197TIP3    H264083   0.910   2.644   4.796 -0.3186 -4.6073 -0.5439
14198TIP3   OH264084   1.495   5.899  14.213  0.0893 -0.1046  0.5031
14198TIP3    H164085   1.434   5.967  14.240  0.9605  1.0409 -0.3229
14198TIP3    H264086   1.535   5.933  14.133  0.5918 -1.5681  0.1015
14199TIP3   OH264087   6.586   1.726  12.746  0.2018 -0.0817  0.0316
14199TIP3    H164088   6.676   1.744  12.773  0.3083 -2.0557  1.1424
14199TIP3    H264089   6.538   1.714  12.827 -0.8873  0.0340 -0.5713
14200TIP3   OH264090   3.990   6.859   1.561  0.4647  0.4344 -0.2579
14200TIP3    H164091   4.016   6.880   1.651  0.6542  0.2018 -0.2574
14200TIP3    H264092   4.073   6.856   1.513  0.5946 -1.7111  0.0282
14201TIP3   OH264093   0.110   4.959   0.847  0.3565 -0.1895  0.5917
14201TIP3    H164094   0.165   5.037   0.857 -0.1686  0.2342  0.2406
14201TIP3    H264095   0.109   4.919   0.934 -1.0506  1.3351  1.3470
14202TIP3   OH264096   1.510   4.058  11.852  0.0198  0.0136 -0.3443
14202TIP3    H164097   1.510   4.153  11.848 -1.3085  0.1151  1.1744
14202TIP3    H264098   1.535   4.030  11.764 -0.8565  1.7628 -1.1916
14203TIP3   OH264099   6.327   4.433   5.664  0.0290 -0.2073  0.1873
14203TIP3    H164100   6.316   4.343   5.694  3.0981 -0.5679  0.5603
14203TIP3    H264101   6.332   4.484   5.745  2.0800 -0.3125  0.1874
14204TIP3   OH264102   6.348   2.554  13.338  0.2722 -0.5595 -0.1572
14204TIP3    H164103   6.269   2.548  13.393  1.3876  0.3619  1.6272
14204TIP3    H264104   6.416   2.511  13.389  1.4786  0.7776 -0.5662
14205TIP3   OH264105   3.334   3.102  15.445  0.0725  0.3964 -0.0232
14205TIP3    H164106   3.345   3.093  15.540 -1.1736  0.2302  0.1134
14205TIP3    H264107   3.269   3.171  15.434  0.7078  0.8980 -0.7908
14206TIP3   OH264108   3.671   4.477   1.442 -0.1562 -0.2871  0.4032
14206TIP3    H164109   3.670   4.420   1.365  0.8091 -1.3370  1.1264
14206TIP3    H264110   3.747   4.534   1.428 -0.1756 -0.2565  0.4224
14207TIP3   OH264111   0.086   1.060  10.784  0.0368 -0.7026 -0.2029
14207TIP3    H164112   0.112   0.982  10.734 -1.6782  0.2431 -2.7825
14207TIP3    H264113   0.112   1.133  10.728 -0.6409  0.4880  0.9949
14208TIP3   OH264114   1.260   3.640   3.481 -0.0777 -0.1679  0.0371
14208TIP3    H164115   1.170   3.661   3.508  0.3584 -0.6434  2.0621
14208TIP3    H264116   1.251   3.607   3.392 -1.5808  2.1926 -0.8134
14209TIP3   OH264117   2.128   3.154   0.174  0.2052 -0.9474 -0.1329
14209TIP3    H164118   2.140   3.229   0.116 -0.5785 -1.3329 -0.8144
14209TIP3    H264119   2.087   3.190   0.253 -0.0827 -0.6484 -0.4199
14210TIP3   OH264120   4.927   0.244  15.206 -0.2983 -0.2783  0.3727
14210TIP3    H164121   4.990   0.218  15.273  0.6881  0.8366 -0.1001
14210TIP3    H264122   4.977   0.297  15.145 -1.6150  0.3115 -0.2241
14211TIP3   OH264123   2.733   2.164  11.315 -0.0159  0.5976 -0.1602
14211TIP3    H164124   2.676   2.105  11.265  0.9158  0.4957 -1.1398
14211TIP3    H264125   2.809   2.111  11.336 -0.0436  0.8883  0.6862
14212TIP3   OH264126   6.546   4.069  14.915  0.1158 -0.2288 -0.4625
14212TIP3    H164127   6.451   4.066  14.920  0.1382 -1.8229 -0.6216
14212TIP3    H264128   6.567   4.046  14.825  0.6414  0.6113 -0.5624
14213TIP3   OH264129   1.429   0.088   4.115 -0.4961 -0.6122 -0.2984
14213TIP3    H164130   1.449   0.027   4.185 -0.2725  1.2097  1.3133
14213TIP3    H264131   1.483   0.165   4.134 -2.6984  1.1260 -0.6921
14214TIP3   OH264132   5.332   0.090  16.882 -0.3390  0.6235  0.0417
14214TIP3    H164133   5.259   0.028  16.878  0.4659 -0.3453  0.0398
14214TIP3    H264134   5.326   0.138  16.799 -0.0340 -0.5518 -0.6806
14215TIP3   OH264135   3.949   1.212   5.632 -0.8397  0.1566 -0.2228
14215TIP3    H164136   3.963   1.159   5.554 -0.2947 -0.4566  0.2808
14215TIP3    H264137   3.989   1.296   5.612  1.6933 -0.8230  0.3368
14216TIP3   OH264138   5.835   5.995  16.557 -0.6248  0.0683  0.4791
14216TIP3    H164139   5.775   6.036  16.494 -0.5112 -1.4229 -0.6643
14216TIP3    H264140   5.921   6.005  16.517 -0.4526 -0.1943  0.7828
14217TIP3   OH264141   5.157   4.105   5.414 -0.3509  0.3907 -0.0458
14217TIP3    H164142   5.205   4.079   5.493  0.3256  0.0006 -0.5661
14217TIP3    H264143   5.118   4.189   5.435  2.2099  1.7178 -0.2265
14218TIP3   OH264144   6.851   3.157   5.188  0.0691  0.1605  0.4337
14218TIP3    H164145   6.841   3.219   5.260 -2.4991  0.3466  0.0129
14218TIP3    H264146   6.935   3.179   5.149  0.3397  1.7438  1.8057
14219TIP3   OH264147   3.268   1.793  10.442 -0.6335  0.7211  0.3932
14219TIP3    H164148   3.352   1.807  10.485 -0.4827 -0.1482  0.3958
14219TIP3    H264149   3.274   1.843  10.360 -1.8324  4.4608  2.3583
14220TIP3   OH264150   2.683   3.977   4.730 -0.4672  0.2172 -0.1420
14220TIP3    H164151   2.696   4.038   4.657  1.0291  1.2641  0.9677
14220TIP3    H264152   2.771   3.956   4.760 -1.0562 -0.2340  1.3377
14221TIP3   OH264153   3.668   3.310   4.646 -0.7768 -0.7131  0.2773
14221TIP3    H164154   3.610   3.363   4.591  0.1775 -0.1298 -0.1942
14221TIP3    H264155   3.617   3.292   4.725 -3.1270 -3.5592 -1.6366
14222TIP3   OH264156   1.473   1.683   0.379 -0.3319 -0.0360  0.0553
14222TIP3    H164157   1.529   1.605   0.381  0.1274  0.2956  0.6142
14222TIP3    H264158   1.533   1.755   0.362 -0.4340  0.4248  1.4686
14223TIP3   OH264159   0.025   4.454  16.775 -0.0164 -0.1157 -0.1291
14223TIP3    H164160   0.045   4.385  16.712  0.6310 -2.2258  2.1821
14223TIP3    H264161   0.105   4.507  16.780  0.1339 -0.2934 -0.6312
14224TIP3   OH264162   5.572   1.957  15.138 -0.2025  0.4107  0.0498
14224TIP3    H164163   5.533   2.031  15.092  0.0493  0.2110 -0.4903
14224TIP3    H264164   5.631   1.917  15.075 -0.6191 -0.4814  0.1991
14225TIP3   OH264165   5.225   1.385  11.135  0.7258 -0.1020  0.0384
14225TIP3    H164166   5.148   1.330  11.152  1.1765 -0.2979  1.5530
14225TIP3    H264167   5.249   1.364  11.045 -2.1142  1.3829 -1.1967
14226TIP3   OH264168   2.703   3.992   1.049 -0.2726 -0.0522 -0.6041
14226TIP3    H164169   2.687   3.934   1.123 -0.0727  2.0361  1.1652
14226TIP3    H264170   2.777   3.952   1.003  0.4855 -0.7109  1.1176
14227TIP3   OH264171   6.543   2.558  12.330 -0.1250  0.3036 -0.2773
14227TIP3    H164172   6.490   2.629  12.366  0.8552  0.3238  1.2248
14227TIP3    H264173   6.600   2.601  12.266  1.5835  1.2512  1.7493
14228TIP3   OH264174   5.309   3.841  13.264 -0.3688 -0.0859  0.0282
14228TIP3    H164175   5.310   3.755  13.305  0.7766  0.5063  1.3263
14228TIP3    H264176   5.398   3.875  13.277 -0.4036  0.7604 -1.6333
14229TIP3   OH264177   2.818   5.352  16.331  0.5547 -0.2964 -0.4311
14229TIP3    H164178   2.789   5.428  16.382  0.2134 -1.7293  1.6313
14229TIP3    H264179   2.912   5.347  16.347  0.6468 -0.1201 -0.8824
14230TIP3   OH264180   0.453   1.597   5.753 -0.2178 -0.3446 -0.1913
14230TIP3    H164181   0.536   1.599   5.800 -0.0720  0.3506 -0.4755
14230TIP3    H264182   0.387   1.607   5.821  0.0227  1.6752 -0.2083
14231TIP3   OH264183   6.515   6.793  11.933  0.8307  0.6026  0.6840
14231TIP3    H164184   6.592   6.790  11.876 -0.0255 -0.3089 -0.4751
14231TIP3    H264185   6.441   6.803  11.873 -0.0142  0.6858  1.7178
14232TIP3   OH264186   3.311   0.620   5.680  0.2659 -0.3763  0.2992
14232TIP3    H164187   3.367   0.662   5.746  0.8138 -0.8810  0.1688
14232TIP3    H264188   3.311   0.680   5.606 -0.7605  0.4358  0.9348
14233TIP3   OH264189   1.766   3.696   2.581  0.2500 -0.2419  0.1688
14233TIP3    H164190   1.711   3.742   2.518  1.4553 -0.3264 -1.0001
14233TIP3    H264191   1.706   3.640   2.630 -0.8471  0.5375 -0.2497
14234TIP3   OH264192   4.340   1.992  16.860  0.0177  0.0361 -0.0294
14234TIP3    H164193   4.369   1.928  16.796 -0.1692 -0.2526  0.1726
14234TIP3    H264194   4.312   1.940  16.936 -1.0734  0.2934 -0.2375
14235TIP3   OH264195   4.773   5.247  12.051 -0.0600  0.4785  0.5496
14235TIP3    H164196   4.702   5.311  12.043  0.2799  0.6838 -1.5768
14235TIP3    H264197   4.758   5.185  11.980  0.1608 -1.2999  1.9987
14236TIP3   OH264198   2.094   0.625   5.121 -0.0029  0.5159  0.0112
14236TIP3    H164199   2.136   0.540   5.108 -2.1945 -0.9218  1.5389
14236TIP3    H264200   2.088   0.634   5.216 -1.6546  1.3751 -0.1359
14237TIP3   OH264201   0.658   4.387  16.137 -0.0279  0.1049 -0.3670
14237TIP3    H164202   0.567   4.402  16.112  0.2997  0.0800 -1.6896
14237TIP3    H264203   0.688   4.319  16.077  0.9246  0.2617 -0.0911
14238TIP3   OH264204   6.117   2.688  14.382  0.1758  0.3367  0.3802
14238TIP3    H164205   6.092   2.597  14.367  0.8613 -0.1426  1.9984
14238TIP3    H264206   6.213   2.687  14.383  0.2204  1.2795 -0.6215
14239TIP3   OH264207   5.633   1.696   0.418 -0.5509 -0.1357  0.0023
14239TIP3    H164208   5.709   1.638   0.417 -0.4412  0.0103 -0.2051
14239TIP3    H264209   5.656   1.764   0.481 -0.0594  0.5020 -0.8482
14240TIP3   OH264210   6.283   4.303  16.370  0.0442  0.2759 -0.4659
14240TIP3    H164211   6.188   4.292  16.362  0.3051 -0.6247 -3.8542
14240TIP3    H264212   6.300   4.389  16.330  0.8094 -0.4389 -1.7067
14241TIP3   OH264213   1.955   4.997  11.712  0.1357  0.1808  0.0964
14241TIP3    H164214   1.877   5.015  11.659  0.5356 -0.4989 -0.7380
14241TIP3    H264215   1.934   4.916  11.758  0.4018 -0.0786 -0.2371
14242TIP3   OH264216   0.159   6.858  10.988 -0.0016  0.1272  0.0344
14242TIP3    H164217   0.220   6.789  11.017 -0.6209 -0.1967  0.5920
14242TIP3    H264218   0.109   6.817  10.918 -0.1646  0.1032  0.1637
14243TIP3   OH264219   4.706   3.105  11.962  0.2656  0.1207 -0.1381
14243TIP3    H164220   4.735   3.025  11.919 -1.5340 -0.9286  0.4747
14243TIP3    H264221   4.760   3.111  12.041  1.3342  0.2829 -0.8587
14244TIP3   OH264222   5.716   1.637   1.205  0.2037 -0.0581 -0.4238
14244TIP3    H164223   5.749   1.616   1.117 -1.7433 -0.1390 -1.1695
14244TIP3    H264224   5.690   1.728   1.200 -2.4825 -0.7637 -0.8335
14245TIP3   OH264225   0.460   4.160  15.568  0.0273 -0.2401 -0.0618
14245TIP3    H164226   0.548   4.168  15.605  0.1177 -1.3316  0.0031
14245TIP3    H264227   0.402   4.196  15.635  0.4079  0.3086 -0.0256
14246TIP3   OH264228   3.264   1.247  14.686 -0.5517 -0.1006 -0.0811
14246TIP3    H164229   3.243   1.301  14.762 -0.2310  0.2962 -0.2690
14246TIP3    H264230   3.285   1.161  14.722 -0.4043  0.0871  0.2820
14247TIP3   OH264231   0.572   4.340   2.314  0.2636  0.4693  0.0130
14247TIP3    H164232   0.609   4.394   2.384  0.6719 -1.9073  1.7296
14247TIP3    H264233   0.647   4.296   2.275 -0.2121 -0.1329 -0.2448
14248TIP3   OH264234   3.699   5.074   1.190  0.1690  0.0970  0.3416
14248TIP3    H164235   3.705   4.990   1.144 -1.6722  0.7652 -1.2194
14248TIP3    H264236   3.762   5.131   1.146 -0.8717  0.4419 -0.7295
14249TIP3   OH264237   4.822   3.596  14.646 -0.1056  0.0353  0.6457
14249TIP3    H164238   4.899   3.542  14.663 -0.2555 -0.4735 -0.2298
14249TIP3    H264239   4.851   3.686  14.663  0.5716 -0.1845  0.6653
14250TIP3   OH264240   4.844   5.176   5.514 -0.6378  0.1038  0.3523
14250TIP3    H164241   4.904   5.148   5.584 -2.0631  0.4820  1.8055
14250TIP3    H264242   4.798   5.097   5.489  0.8790 -0.3350 -1.2754
14251TIP3   OH264243   1.112   5.216   3.246  0.3265  0.1075  0.0627
14251TIP3    H164244   1.178   5.268   3.200  0.3344 -1.2470 -1.5671
14251TIP3    H264245   1.028   5.249   3.212  0.2403  0.4193  0.5674
14252TIP3   OH264246   1.588   6.586   0.816 -0.3957 -0.0312 -0.0969
14252TIP3    H164247   1.526   6.517   0.795  0.8872 -0.9391 -1.0204
14252TIP3    H264248   1.653   6.545   0.872 -0.1948  0.7197  0.2433
14253TIP3   OH264249   6.207   3.014  14.842  1.1180  0.1428  0.2503
14253TIP3    H164250   6.125   3.063  14.833  1.2224  0.2411 -0.2366
14253TIP3    H264251   6.185   2.937  14.893  0.0384 -1.3870 -2.3188
14254TIP3   OH264252   6.745   3.639  11.895  0.1663  0.3200 -0.5339
14254TIP3    H164253   6.734   3.590  11.977  0.7755  1.0690  0.0099
14254TIP3    H264254   6.699   3.587  11.830 -1.3749  0.3102  0.5010
14255TIP3   OH264255   1.004   3.117  15.960 -0.5952 -0.0494  0.1676
14255TIP3    H164256   1.017   3.103  16.053 -2.4679  0.2214  0.5104
14255TIP3    H264257   1.090   3.146  15.928  0.3516 -1.1409  1.5731
14256TIP3   OH264258   4.423   2.146  15.565 -0.0909  0.3795 -0.5267
14256TIP3    H164259   4.352   2.181  15.620 -0.0367  2.1177 -1.4776
14256TIP3    H264260   4.393   2.059  15.539 -1.6937  0.9023 -0.5557
14257TIP3   OH264261   3.419   4.417   2.446 -0.3246  0.2267 -0.0914
14257TIP3    H164262   3.386   4.494   2.398  0.0509  0.6561  0.3337
14257TIP3    H264263   3.488   4.452   2.503 -0.7042 -0.2958  0.7012
14258TIP3   OH264264   6.002   1.962  11.187  0.3630 -0.1409  0.2908
14258TIP3    H164265   6.012   1.880  11.236  0.0798 -0.2081  0.2349
14258TIP3    H264266   5.938   1.941  11.119 -0.7042  0.5038  1.0817
14259TIP3   OH264267   3.239   1.676   5.215 -0.4911  0.1551  0.0998
14259TIP3    H164268   3.288   1.633   5.145  0.9426  0.0404  1.1402
14259TIP3    H264269   3.166   1.616   5.233  0.4095 -0.9355  0.2364
14260TIP3   OH264270   0.061   4.558  12.756 -0.4315  0.2391  0.0539
14260TIP3    H164271   0.039   4.625  12.822 -0.0891  0.4967 -0.0926
14260TIP3    H264272   0.044   4.475  12.801 -0.9905  0.4219  0.1939
14261TIP3   OH264273   6.281   1.986   3.624 -0.3226 -0.5053  0.7344
14261TIP3    H164274   6.262   2.050   3.557 -1.0639  1.4615  2.7058
14261TIP3    H264275   6.377   1.979   3.624 -0.2388  0.4960  0.3632
14262TIP3   OH264276   2.924   2.713  11.628  0.3636 -0.4826 -0.5140
14262TIP3    H164277   2.874   2.776  11.576  0.5630  0.3104  0.2218
14262TIP3    H264278   3.015   2.726  11.600  0.2852 -1.2303 -1.1461
14263TIP3   OH264279   2.485   4.094   6.265  0.2085  0.5318  0.5526
14263TIP3    H164280   2.393   4.092   6.237  0.1767  0.5211  0.6590
14263TIP3    H264281   2.511   4.185   6.255  0.4029  0.4101 -0.1846
14264TIP3   OH264282   6.823   2.215  14.608 -0.0230  0.6602  0.4008
14264TIP3    H164283   6.866   2.211  14.694 -2.6661 -0.0600  1.7748
14264TIP3    H264284   6.871   2.152  14.555  1.8202  1.2902  1.2095
14265TIP3   OH264285   4.749   4.386  15.570  0.3918  0.4208 -0.1781
14265TIP3    H164286   4.741   4.318  15.637 -0.0878  0.1732 -0.4833
14265TIP3    H264287   4.664   4.388  15.527  1.2782 -0.7693 -2.0933
14266TIP3   OH264288   0.212   0.809   0.539  0.1143 -0.0734  0.4397
14266TIP3    H164289   0.224   0.789   0.446 -1.5189  0.8419 -0.0037
14266TIP3    H264290   0.226   0.726   0.583  0.0916 -0.7091 -0.7103
14267TIP3   OH264291   2.698   2.933  13.076  0.2518 -0.4581  0.7536
14267TIP3    H164292   2.616   2.883  13.073 -0.1173  0.1449 -2.6019
14267TIP3    H264293   2.766   2.868  13.062  0.0486 -0.4950 -0.0871
14268TIP3   OH264294   4.200   5.496   4.068 -0.6784  0.3985  0.0762
14268TIP3    H164295   4.167   5.518   4.156  0.5089  0.6005  0.4827
14268TIP3    H264296   4.121   5.492   4.014 -1.2965  1.9104  0.7981
14269TIP3   OH264297   5.053   6.247   2.945  0.3813  0.2229 -0.5335
14269TIP3    H164298   5.103   6.276   3.021 -0.6419  2.8425 -0.7346
14269TIP3    H264299   5.098   6.169   2.915  0.5037 -1.3077  3.0560
14270TIP3   OH264300   5.896   0.800  16.817 -0.0354  0.2047 -0.0711
14270TIP3    H164301   5.912   0.758  16.902  0.2366  1.5768  0.5842
14270TIP3    H264302   5.982   0.800  16.774  0.2355  1.1090  0.4303
14271TIP3   OH264303   3.950   2.830   2.845  0.1928  0.3921  0.1557
14271TIP3    H164304   4.035   2.847   2.806 -0.3144  0.7827 -0.8042
14271TIP3    H264305   3.891   2.894   2.805 -0.5874  0.0463  0.7042
14272TIP3   OH264306   1.721   3.134   3.132  0.1450 -0.5341  0.0259
14272TIP3    H164307   1.757   3.140   3.044 -0.5033  0.5122 -0.1827
14272TIP3    H264308   1.663   3.209   3.140 -1.5913 -1.8647  0.5384
14273TIP3   OH264309   2.845   3.192   3.459  0.4018  1.0910 -0.6645
14273TIP3    H164310   2.913   3.127   3.479  0.8774  1.3842 -1.2946
14273TIP3    H264311   2.861   3.262   3.522 -1.4188 -0.2512  1.4655
14274TIP3   OH264312   6.110   2.616  10.429 -0.4637 -0.1942  0.2379
14274TIP3    H164313   6.165   2.559  10.375 -1.4682 -1.2557  0.3060
14274TIP3    H264314   6.032   2.631  10.377 -0.5334  0.5205  0.5395
14275TIP3   OH264315   5.943   1.457  13.966  0.0114 -0.4541  0.4771
14275TIP3    H164316   5.917   1.549  13.960 -0.4022 -0.6368 -0.9718
14275TIP3    H264317   5.893   1.422  14.040 -2.5425 -0.3344 -1.0798
14276TIP3   OH264318   3.565   3.843  13.399 -0.3684  0.0388  0.1978
14276TIP3    H164319   3.548   3.749  13.407  1.8918 -0.3327  1.5451
14276TIP3    H264320   3.611   3.852  13.315  0.4583 -0.2654  0.6063
14277TIP3   OH264321   1.264   6.680  16.963  1.1796  0.3093 -0.0254
14277TIP3    H164322   1.294   6.668  16.873  1.7714 -0.0062  0.2028
14277TIP3    H264323   1.318   6.619  17.014  0.3785 -0.0089  0.4534
14278TIP3   OH264324   1.832   2.627  15.020 -0.0877  0.2757  0.2903
14278TIP3    H164325   1.926   2.644  15.026  0.2305 -1.7563  2.2752
14278TIP3    H264326   1.823   2.574  14.940  0.2550  1.3795 -0.5085
14279TIP3   OH264327   4.352   4.614  16.710  0.0283  0.2724 -1.0436
14279TIP3    H164328   4.302   4.557  16.769 -0.3324  1.0192 -0.6124
14279TIP3    H264329   4.443   4.593  16.730 -0.0823 -0.9777 -1.7160
14280TIP3   OH264330   1.062   4.703   0.888  0.4858 -0.4502 -0.7269
14280TIP3    H164331   1.096   4.664   0.808  0.3940 -1.2332 -0.3965
14280TIP3    H264332   0.968   4.684   0.887  0.4253 -0.1668 -0.6014
14281TIP3   OH264333   0.025   4.197  13.270  0.6318  0.0465 -0.0168
14281TIP3    H164334  -0.025   4.134  13.217 -0.2259 -0.1457  0.9980
14281TIP3    H264335  -0.041   4.243  13.322  1.3346  1.2128 -0.1212
14282TIP3   OH264336   5.184   2.850   4.592 -0.0899 -0.3721 -0.0645
14282TIP3    H164337   5.237   2.862   4.671  0.2947 -0.0524 -0.3657
14282TIP3    H264338   5.135   2.769   4.608 -0.2256 -0.1643  0.6153
14283TIP3   OH264339   1.264   6.063   4.654  0.4166  0.1967 -0.3694
14283TIP3    H164340   1.283   6.020   4.571  1.5852 -0.0449  0.0066
14283TIP3    H264341   1.180   6.106   4.640 -0.5034 -1.6836 -0.9608
14284TIP3   OH264342   4.695   1.306   0.206  0.2388 -0.2540  0.0244
14284TIP3    H164343   4.707   1.226   0.154  0.9886 -1.6304  2.1793
14284TIP3    H264344   4.770   1.361   0.183  0.0203 -0.4008 -1.0688
14285TIP3   OH264345   3.319   1.905   0.928 -0.0020  0.0489 -0.8347
14285TIP3    H164346   3.410   1.932   0.917  1.4684 -2.1259  3.6376
14285TIP3    H264347   3.275   1.981   0.965  0.4294  0.5789 -1.4081
14286TIP3   OH264348   3.518   5.422  13.784  0.6493  0.0959  0.1295
14286TIP3    H164349   3.506   5.338  13.829 -0.0706 -1.0379 -2.0392
14286TIP3    H264350   3.610   5.423  13.760  0.2453 -1.0685 -1.6061
14287TIP3   OH264351   0.202   5.695  14.669 -0.2842  0.5672 -0.3851
14287TIP3    H164352   0.180   5.604  14.687  0.0791  0.7416  1.1111
14287TIP3    H264353   0.297   5.696  14.656 -0.3099  0.7083 -0.5747
14288TIP3   OH264354   1.265   2.758   4.072 -0.1756 -0.1657 -0.0341
14288TIP3    H164355   1.298   2.740   4.159  2.5840  0.2765 -0.9025
14288TIP3    H264356   1.170   2.752   4.080  0.0473 -0.8515  2.8006
14289TIP3   OH264357   0.830   0.370   0.044  0.3731 -0.1539  0.3180
14289TIP3    H164358   0.834   0.379   0.139  1.9293 -0.4336  0.3110
14289TIP3    H264359   0.836   0.275   0.029  0.7651 -0.0695 -0.0729
14290TIP3   OH264360   4.786   3.502   5.764  0.0118  0.0675  0.1523
14290TIP3    H164361   4.741   3.424   5.794 -2.6046  1.5716  0.4115
14290TIP3    H264362   4.806   3.551   5.843  1.1411 -0.0592 -0.0403
14291TIP3   OH264363   2.222   3.763  10.525  0.2294 -0.2411 -0.3722
14291TIP3    H164364   2.127   3.747  10.521  0.3745 -1.0728 -0.6467
14291TIP3    H264365   2.237   3.796  10.613 -0.1177 -1.4342  0.1432
14292TIP3   OH264366   2.717   2.992  12.239  0.6469  0.1489  0.2236
14292TIP3    H164367   2.704   2.950  12.324 -2.4470  0.1107 -0.1723
14292TIP3    H264368   2.811   2.984  12.223  0.9496 -2.0872  2.4745
14293TIP3   OH264369   1.759   0.168  13.678  0.9175 -0.8532  0.1069
14293TIP3    H164370   1.680   0.153  13.731  1.2519 -0.7252  0.6511
14293TIP3    H264371   1.786   0.080  13.650 -0.9698 -0.7452 -2.4342
14294TIP3   OH264372   3.268   6.452   0.938 -0.2677 -0.0736 -0.1617
14294TIP3    H164373   3.311   6.536   0.949 -1.8261  0.8352 -0.7068
14294TIP3    H264374   3.265   6.415   1.027 -0.4591  0.9050  0.2561
14295TIP3   OH264375   0.105   4.864  16.663 -0.6678  0.0349  0.3938
14295TIP3    H164376   0.015   4.838  16.645 -0.3679 -0.6494 -0.1199
14295TIP3    H264377   0.140   4.793  16.716 -0.7977  0.8864  1.6581
14296TIP3   OH264378   2.368   1.546  16.730 -0.1072  0.3040  0.2975
14296TIP3    H164379   2.433   1.517  16.665 -0.6194 -0.9114  0.3009
14296TIP3    H264380   2.408   1.623  16.771  1.6270 -0.7569  0.7257
14297TIP3   OH264381   4.841   2.975  12.568  0.7042  0.5417 -0.4031
14297TIP3    H164382   4.787   2.906  12.528  0.8499  0.2422 -0.0797
14297TIP3    H264383   4.931   2.947  12.553  0.7805 -0.3067  1.3591
14298TIP3   OH264384   2.031   4.860   1.172  0.0175 -0.1053  0.5441
14298TIP3    H164385   2.045   4.833   1.263 -1.6749  1.1171  1.2177
14298TIP3    H264386   2.086   4.938   1.161 -0.6236  0.3986  0.8789
14299TIP3   OH264387   3.372   0.060  13.530 -0.0999 -0.2821 -0.4692
14299TIP3    H164388   3.362   0.054  13.435  0.0208  0.9666 -0.5776
14299TIP3    H264389   3.424   0.139  13.544  0.0984 -0.5833  0.6297
14300TIP3   OH264390   1.301   3.231  15.000  0.3945  0.0245  0.0110
14300TIP3    H164391   1.286   3.138  15.014 -1.0272  0.2607  0.2308
14300TIP3    H264392   1.282   3.245  14.908  0.3885  0.1266  0.0276
14301TIP3   OH264393   0.846   4.675  16.707  0.4333  0.2335  0.1021
14301TIP3    H164394   0.933   4.637  16.710 -0.6781 -2.7027 -1.3012
14301TIP3    H264395   0.836   4.708  16.618 -0.1599 -0.2129 -0.0066
14302TIP3   OH264396   0.503   3.798  13.974 -0.0644  0.3985  0.0094
14302TIP3    H164397   0.423   3.837  14.009 -0.2472 -0.4726  0.6008
14302TIP3    H264398   0.568   3.809  14.044  0.0790  0.3063 -0.1085
14303TIP3   OH264399   1.154   1.813  14.584  0.2054  0.5397 -0.3356
14303TIP3    H164400   1.235   1.766  14.566 -0.2382 -0.8284  1.0375
14303TIP3    H264401   1.084   1.756  14.551 -0.2849  0.7679  0.2826
14304TIP3   OH264402   0.214   0.128   4.104 -0.1751  0.0198  0.4969
14304TIP3    H164403   0.302   0.104   4.134 -0.2401 -0.8071  0.0619
14304TIP3    H264404   0.207   0.222   4.121  0.3461 -0.1302  1.6583
14305TIP3   OH264405   4.752   1.103   5.979 -0.0573 -0.6164  0.3946
14305TIP3    H164406   4.689   1.159   6.025  1.5463  0.2409  1.6359
14305TIP3    H264407   4.762   1.027   6.037  1.9547  0.4561  1.5543
14306TIP3   OH264408   3.895   2.558  14.407  0.3094 -0.2314 -0.3159
14306TIP3    H164409   3.877   2.515  14.324 -0.9671  0.0293 -0.1972
14306TIP3    H264410   3.821   2.535  14.463 -0.5092  2.1352 -0.2762
14307TIP3   OH264411   1.946   3.697   5.690  0.1829 -0.4621  0.2955
14307TIP3    H164412   1.943   3.793   5.691 -1.4395 -0.4880  0.8443
14307TIP3    H264413   2.036   3.676   5.667  0.9908  1.1876  1.7740
14308TIP3   OH264414   0.389   5.202   4.567 -0.1804 -0.3593 -0.1217
14308TIP3    H164415   0.334   5.188   4.645  0.7906  1.1871  0.8983
14308TIP3    H264416   0.470   5.157   4.588 -0.2355 -0.6981 -0.6391
14309TIP3   OH264417   3.062   2.947  14.383  0.4884 -0.4191  0.2639
14309TIP3    H164418   3.138   2.892  14.364 -0.0609 -1.0852 -0.0570
14309TIP3    H264419   3.095   3.036  14.380  1.0619 -0.6555 -0.8501
14310TIP3   OH264420   0.094   6.804  15.792 -0.2921 -0.2263 -0.1013
14310TIP3    H164421   0.046   6.862  15.851  1.7798  0.9964  0.4614
14310TIP3    H264422   0.028   6.774  15.729 -1.6963  1.7471  0.3462
14311TIP3   OH264423   6.742   4.177   4.741  0.4387 -0.7040 -0.3788
14311TIP3    H164424   6.763   4.129   4.821  1.4281  0.6637  0.2229
14311TIP3    H264425   6.657   4.216   4.758  1.0497  0.3346  0.4011
14312TIP3   OH264426   3.613   3.757   2.377 -0.0271  0.1470 -0.2247
14312TIP3    H164427   3.557   3.684   2.348  2.4212 -1.6493 -0.7399
14312TIP3    H264428   3.572   3.787   2.458 -0.9246 -2.0894  0.2432
14313TIP3   OH264429   4.085   6.241   4.123  0.7673  0.3207 -1.2264
14313TIP3    H164430   4.149   6.177   4.156 -0.2670 -0.5968 -0.9537
14313TIP3    H264431   4.091   6.314   4.184 -1.2211 -1.4006  1.2702
14314TIP3   OH264432   3.542   2.810  13.761  0.0172  0.2117  0.3297
14314TIP3    H164433   3.615   2.844  13.709 -0.4963  2.1621  0.8088
14314TIP3    H264434   3.499   2.888  13.796  0.1722 -0.9757  3.4750
14315TIP3   OH264435   2.358   6.841   1.246 -0.0057 -0.0852  0.7764
14315TIP3    H164436   2.313   6.903   1.303 -0.4272  0.2539  0.0899
14315TIP3    H264437   2.348   6.878   1.158  1.1721 -0.2770  0.5525
14316TIP3   OH264438   3.397   4.439   4.404 -0.2343  0.4078  0.1688
14316TIP3    H164439   3.489   4.458   4.387 -0.2221 -0.7030 -1.1413
14316TIP3    H264440   3.398   4.355   4.451 -0.5309  1.0883  1.4476
14317TIP3   OH264441   0.581   5.432   1.788  0.5032  0.2157  0.2794
14317TIP3    H164442   0.521   5.383   1.732  0.8000  0.3155 -0.1331
14317TIP3    H264443   0.541   5.519   1.796 -0.1684 -0.1711  1.2465
14318TIP3   OH264444   3.495   3.262   1.842 -0.2567 -0.4617 -0.3103
14318TIP3    H164445   3.579   3.281   1.801  0.9036 -0.9976  1.6473
14318TIP3    H264446   3.509   3.278   1.935 -2.4970 -0.0823  0.0393
14319TIP3   OH264447   2.248   3.516  11.574  0.0205  0.3786  0.2985
14319TIP3    H164448   2.256   3.487  11.664 -0.6477 -1.4597 -0.1938
14319TIP3    H264449   2.157   3.500  11.551 -0.0508  1.6824 -0.4340
14320TIP3   OH264450   1.691   6.611  12.528 -0.3746  0.5858  0.3190
14320TIP3    H164451   1.610   6.639  12.571 -1.3205  1.8089 -2.0533
14320TIP3    H264452   1.668   6.607  12.435  1.6728 -1.4240 -0.1765
14321TIP3   OH264453   2.098   5.144  15.151 -0.3221 -0.4986  0.5518
14321TIP3    H164454   2.180   5.095  15.146 -0.7955 -1.1861 -1.1026
14321TIP3    H264455   2.031   5.080  15.129 -1.0945  0.5562 -0.2315
14322TIP3   OH264456   2.804   5.931   1.993  0.2176 -0.0056 -0.8680
14322TIP3    H164457   2.816   6.026   1.995 -1.0585  0.2030 -1.9085
14322TIP3    H264458   2.755   5.912   2.074  1.6927  0.0030  0.0617
14323TIP3   OH264459   6.838   2.267   2.398  0.4756  0.1468  0.3139
14323TIP3    H164460   6.815   2.357   2.420  0.7272  0.5577 -1.0064
14323TIP3    H264461   6.928   2.273   2.366  0.0450 -0.3414 -1.0434
14324TIP3   OH264462   5.659   1.343   3.814  0.1791 -0.1097  0.0559
14324TIP3    H164463   5.641   1.313   3.903  0.2742 -0.4893 -0.0498
14324TIP3    H264464   5.706   1.426   3.825 -1.7029  0.9832  0.3501
14325TIP3   OH264465   0.294   4.837   0.659  0.4702  0.2047  0.0698
14325TIP3    H164466   0.285   4.761   0.717  1.4854 -0.6723 -0.8963
14325TIP3    H264467   0.205   4.854   0.628  0.3032 -0.8980 -0.0869
14326TIP3   OH264468   6.338   2.370  12.386  0.0723  0.0828  0.1475
14326TIP3    H164469   6.420   2.419  12.392  1.1601 -1.7113  0.9240
14326TIP3    H264470   6.331   2.324  12.470 -1.1571 -0.6750 -0.3314
14327TIP3   OH264471   3.728   5.731  16.788  0.1453 -0.0932  0.4758
14327TIP3    H164472   3.738   5.673  16.864  0.5945  1.5527  1.7473
14327TIP3    H264473   3.734   5.819  16.825  0.1072  0.7692 -1.4641
14328TIP3   OH264474   5.300   5.219   2.476 -0.0084  0.0029 -0.0199
14328TIP3    H164475   5.209   5.247   2.488 -0.0272  0.9104 -1.9405
14328TIP3    H264476   5.328   5.192   2.563 -1.5785  1.3205  0.9575
14329TIP3   OH264477   4.414   4.881   2.050 -0.8362 -0.1517  0.0753
14329TIP3    H164478   4.382   4.847   1.966 -2.9589  0.3729  0.6034
14329TIP3    H264479   4.422   4.803   2.105  1.1723 -0.5798 -0.7447
14330TIP3   OH264480   0.347   0.323   3.543 -0.5320  0.0150  0.0522
14330TIP3    H164481   0.316   0.288   3.626  1.0883  0.0809  0.7160
14330TIP3    H264482   0.408   0.257   3.511 -1.4418 -0.2119 -1.3247
14331TIP3   OH264483   1.690   2.281   2.994  0.6318 -0.1486 -0.1870
14331TIP3    H164484   1.671   2.253   3.083 -0.0008  1.0480  0.0692
14331TIP3    H264485   1.629   2.231   2.939 -0.2251  0.4395  0.2216
14332TIP3   OH264486   5.972   6.065  12.258 -0.2667  0.4250  0.6011
14332TIP3    H164487   6.022   6.010  12.198 -1.7466  0.5225 -0.7724
14332TIP3    H264488   6.025   6.145  12.267  0.1969  0.2128 -0.1919
14333TIP3   OH264489   3.856   2.283  12.392  0.5500  0.2027 -0.3844
14333TIP3    H164490   3.793   2.214  12.371 -0.3636  0.8174  0.2565
14333TIP3    H264491   3.804   2.364  12.391  1.1870  0.6567  0.7737
14334TIP3   OH264492   0.048   5.880   2.512 -0.6122  0.1575  0.4385
14334TIP3    H164493   0.110   5.927   2.567  0.0403 -1.4533  1.1247
14334TIP3    H264494  -0.020   5.945   2.492  1.3721  2.0595 -0.5594
14335TIP3   OH264495   5.165   6.725   5.969  0.0442  0.0623 -0.3925
14335TIP3    H164496   5.239   6.784   5.985 -1.1881  1.8272 -0.9294
14335TIP3    H264497   5.125   6.713   6.056 -0.7072  1.4595 -0.5172
14336TIP3   OH264498   2.516   2.694   4.834  0.2054 -0.0097 -0.3602
14336TIP3    H164499   2.476   2.709   4.748  1.2900  0.8631 -0.7288
14336TIP3    H264500   2.463   2.745   4.895  0.9055  1.3845 -0.8877
14337TIP3   OH264501   5.856   2.425  16.108 -0.4857 -0.4746 -0.6171
14337TIP3    H164502   5.878   2.358  16.173 -0.3081 -0.0169 -0.2000
14337TIP3    H264503   5.927   2.421  16.044 -1.6002 -2.2046 -1.8131
14338TIP3   OH264504   1.307   4.374   3.381 -0.3816  0.0016  0.4663
14338TIP3    H164505   1.337   4.418   3.301  0.0317  0.2167  0.7365
14338TIP3    H264506   1.373   4.307   3.397 -0.0612  0.4469  1.0404
14339TIP3   OH264507   1.866   0.781   1.139 -0.8821  0.3557 -0.1525
14339TIP3    H164508   1.770   0.778   1.138 -0.9395  1.2934  0.7485
14339TIP3    H264509   1.892   0.709   1.197 -0.9778 -0.5381 -1.1819
14340TIP3   OH264510   2.715   3.692  13.081 -0.3198 -0.2196 -0.0724
14340TIP3    H164511   2.710   3.603  13.046  0.7073 -0.9328  1.4865
14340TIP3    H264512   2.625   3.712  13.108 -0.2610 -1.4966  1.1693
14341TIP3   OH264513   5.678   3.292  15.399  0.3589  0.0926 -0.0742
14341TIP3    H164514   5.606   3.356  15.400  1.5146  1.5890  3.1309
14341TIP3    H264515   5.747   3.334  15.349 -0.2180 -0.4242 -1.3402
14342TIP3   OH264516   2.541   3.096  10.290 -0.2970 -0.0136  0.8401
14342TIP3    H164517   2.508   3.159  10.354  1.9423  1.1754  0.9255
14342TIP3    H264518   2.598   3.148  10.233 -4.1527 -0.3774 -3.9543
14343TIP3   OH264519   3.023   4.286  14.637  0.5241  0.0557  0.3662
14343TIP3    H164520   3.058   4.374  14.650 -1.7110  1.1852 -0.6773
14343TIP3    H264521   3.002   4.282  14.544 -2.0010 -0.4895  0.8756
14344TIP3   OH264522   6.734   4.827  16.513  0.5453  0.1485  0.4121
14344TIP3    H164523   6.665   4.764  16.488 -0.7010  1.2505  0.9384
14344TIP3    H264524   6.790   4.832  16.436 -0.8666  0.3738 -0.6601
14345TIP3   OH264525   0.166   0.796  12.192  0.3306 -0.5865 -0.4120
14345TIP3    H164526   0.205   0.720  12.237 -0.0492 -1.0389 -0.8380
14345TIP3    H264527   0.093   0.759  12.142 -2.4549  0.5358  2.4244
14346TIP3   OH264528   6.136   0.990  15.720 -0.3042  0.5266 -0.4479
14346TIP3    H164529   6.092   1.011  15.803 -0.1905  2.5356 -0.8502
14346TIP3    H264530   6.080   1.029  15.653 -0.2945 -0.9161 -1.3241
14347TIP3   OH264531   2.102   3.911   3.351  0.4248 -0.6869 -0.0709
14347TIP3    H164532   2.100   3.825   3.393 -0.0919 -0.5622  0.1702
14347TIP3    H264533   2.026   3.957   3.387  0.7465 -0.0967 -0.1300
14348TIP3   OH264534   0.189   0.540   5.258  0.4373 -0.3114  0.3251
14348TIP3    H164535   0.235   0.548   5.174 -0.8173 -0.1764 -0.3726
14348TIP3    H264536   0.242   0.479   5.309  1.2201 -0.3935 -0.5618
14349TIP3   OH264537   6.000   5.866   2.441  0.1593  0.1562  0.4244
14349TIP3    H164538   5.950   5.875   2.522 -0.4506  1.0770 -0.0423
14349TIP3    H264539   6.077   5.816   2.466  0.2101  0.8276  1.6717
14350TIP3   OH264540   6.843   0.278   1.709 -0.0612  0.1859  0.5484
14350TIP3    H164541   6.762   0.228   1.700 -0.6824  0.7310  2.4848
14350TIP3    H264542   6.817   0.369   1.694  0.5130  0.2322 -0.2548
14351TIP3   OH264543   0.988   6.308   3.451 -0.3471  0.2070  0.3793
14351TIP3    H164544   0.947   6.222   3.447 -0.7750  0.4017  0.5279
14351TIP3    H264545   1.007   6.330   3.360  0.6729 -0.4702  0.4077
14352TIP3   OH264546   6.490   5.282  12.528  0.4875  0.0285  0.2096
14352TIP3    H164547   6.487   5.262  12.621 -0.7664 -0.1356  0.1515
14352TIP3    H264548   6.500   5.196  12.486 -2.2439 -0.3159  0.0814
14353TIP3   OH264549   4.402   2.464   0.808  0.2493  0.4240  0.3911
14353TIP3    H164550   4.340   2.407   0.852  0.6187  0.4177  0.9132
14353TIP3    H264551   4.467   2.404   0.770  0.0750  0.4434  0.0574
14354TIP3   OH264552   2.466   2.401  14.759  0.4749  0.1129 -0.7069
14354TIP3    H164553   2.503   2.476  14.806 -0.1099  0.0594 -0.1551
14354TIP3    H264554   2.498   2.325  14.807 -1.3548  0.0893  0.5703
14355TIP3   OH264555   5.151   6.529  11.939  0.5278  0.4783 -0.4727
14355TIP3    H164556   5.175   6.522  11.847 -0.2104 -0.4089 -0.6137
14355TIP3    H264557   5.122   6.619  11.949  0.0934  0.4362 -1.2503
14356TIP3   OH264558   5.595   6.201   2.087 -0.2088 -0.1021 -0.2528
14356TIP3    H164559   5.646   6.188   2.167  0.7374  0.6722 -0.7079
14356TIP3    H264560   5.656   6.181   2.016 -1.2901 -1.6707 -0.8078
14357TIP3   OH264561   3.631   3.837  11.740 -0.3350  0.2839  0.1933
14357TIP3    H164562   3.630   3.900  11.668  1.4554  0.8506  0.6038
14357TIP3    H264563   3.708   3.862  11.792  0.1458 -1.9346  0.6528
14358TIP3   OH264564   5.358   5.480  12.892 -0.0589 -0.1036 -0.1536
14358TIP3    H164565   5.412   5.432  12.955  1.5070  1.3444 -0.3192
14358TIP3    H264566   5.271   5.483  12.932  1.0769  1.5874  2.5031
14359TIP3   OH264567   0.588   0.722  16.797 -0.0864  0.6059  0.0579
14359TIP3    H164568   0.581   0.722  16.701 -1.2628 -0.0783  0.1164
14359TIP3    H264569   0.620   0.809  16.819 -0.2144  0.9228 -0.9418
14360TIP3   OH264570   1.267   4.879  12.617  0.5220  0.4970  0.3168
14360TIP3    H164571   1.288   4.842  12.532  0.8065  0.9603  0.1837
14360TIP3    H264572   1.226   4.806  12.666  2.6647 -0.5310  0.6893
14361TIP3   OH264573   5.174   6.722   1.828  0.4573  0.3950  0.5801
14361TIP3    H164574   5.262   6.683   1.825  1.1680  1.9684 -0.3523
14361TIP3    H264575   5.152   6.738   1.737 -0.5277  0.6578  0.8561
14362TIP3   OH264576   3.252   6.536  13.441  0.5727  0.4095 -0.0804
14362TIP3    H164577   3.313   6.604  13.413  1.9555  1.0274  3.7936
14362TIP3    H264578   3.303   6.455  13.438  0.6768  0.4533  0.3912
14363TIP3   OH264579   1.363   4.207   2.763 -0.0412  0.2491 -0.4591
14363TIP3    H164580   1.431   4.140   2.775  1.0930  1.6797  1.9636
14363TIP3    H264581   1.319   4.212   2.848 -1.3190  1.3203 -1.1432
14364TIP3   OH264582   1.796   4.003  15.805  0.1532  0.6612  0.8141
14364TIP3    H164583   1.731   4.016  15.874 -1.6767 -0.1831 -0.6482
14364TIP3    H264584   1.877   3.984  15.852 -1.1060 -0.2982  2.7378
14365TIP3   OH264585   0.097   3.830  12.075 -0.2865  0.5825 -0.6593
14365TIP3    H164586   0.084   3.742  12.110  1.6491  1.1288  1.8207
14365TIP3    H264587   0.139   3.817  11.990 -3.1920 -0.8286 -2.0054
14366TIP3   OH264588   0.678   4.238   4.694  0.0342  0.2711  0.4157
14366TIP3    H164589   0.740   4.299   4.733  0.0585  0.7055 -0.2966
14366TIP3    H264590   0.596   4.256   4.740 -0.4848  2.2994 -1.1698
14367TIP3   OH264591   0.524   6.080  13.862 -0.8287  0.8191 -0.2809
14367TIP3    H164592   0.596   6.030  13.823 -1.3873  1.0329 -1.6203
14367TIP3    H264593   0.492   6.024  13.933  0.2474  0.4524 -0.0644
14368TIP3   OH264594   2.927   0.617  12.133 -0.4211  0.0589  0.2266
14368TIP3    H164595   2.902   0.666  12.212  1.6225  1.1533  0.2657
14368TIP3    H264596   2.885   0.665  12.062  0.0072  0.7660  0.4324
14369TIP3   OH264597   2.951   0.875   4.500 -0.3845 -0.1899  0.1211
14369TIP3    H164598   3.004   0.803   4.468  2.2646  1.2748  0.9176
14369TIP3    H264599   2.952   0.866   4.595 -1.0079  0.2659  0.1820
14370TIP3   OH264600   3.264   4.270  16.813 -0.2235 -0.3945 -0.2097
14370TIP3    H164601   3.248   4.363  16.825 -1.5417 -0.8935  2.7466
14370TIP3    H264602   3.356   4.265  16.785 -0.0543  1.7526 -0.2051
14371TIP3   OH264603   4.069   1.324  15.228  0.0638  0.6251 -0.0260
14371TIP3    H164604   3.989   1.336  15.279  0.1452 -0.0126  0.2632
14371TIP3    H264605   4.039   1.318  15.137 -0.2175  0.4014  0.0803
14372TIP3   OH264606   1.706   2.741   5.741  0.1343  0.2845 -0.0889
14372TIP3    H164607   1.703   2.825   5.694 -1.4995  0.3186  0.0170
14372TIP3    H264608   1.711   2.766   5.833 -2.0428  0.3530  0.0650
14373TIP3   OH264609   1.797   1.257   5.362  0.0555 -0.3784 -0.2046
14373TIP3    H164610   1.747   1.177   5.344 -0.0693 -0.2384 -0.4915
14373TIP3    H264611   1.731   1.325   5.369  0.1093 -0.4101  0.7236
14374TIP3   OH264612   1.766   5.168  16.355  0.5874 -0.1919 -0.1770
14374TIP3    H164613   1.835   5.109  16.323  0.3160  0.0912 -1.3546
14374TIP3    H264614   1.788   5.253  16.318  1.1399  0.5438  1.7694
14375TIP3   OH264615   2.031   6.551  11.624 -0.0447  0.1966 -0.3433
14375TIP3    H164616   2.084   6.624  11.594 -0.7879  0.1726 -1.8094
14375TIP3    H264617   2.041   6.484  11.557 -0.1580 -0.6672  0.4815
14376TIP3   OH264618   5.089   6.613  14.975  0.1166  0.4520 -0.4607
14376TIP3    H164619   5.101   6.563  15.056 -0.9373  1.0004  0.0499
14376TIP3    H264620   5.176   6.647  14.955  0.5913 -0.5141 -0.1129
14377TIP3   OH264621   2.750   6.760  11.697 -0.3056 -0.0895 -0.0424
14377TIP3    H164622   2.825   6.818  11.709 -0.9101  0.8145 -0.4922
14377TIP3    H264623   2.776   6.702  11.625  0.7962 -1.2486  1.2376
14378TIP3   OH264624   2.631   3.073   5.495 -0.1957  0.6842  0.0755
14378TIP3    H164625   2.699   3.116   5.547  0.5029  1.2195 -1.2173
14378TIP3    H264626   2.553   3.126   5.508 -0.1412  0.5786  0.8765
14379TIP3   OH264627   5.840   5.990   5.048 -0.3634  0.5467  0.0612
14379TIP3    H164628   5.810   5.965   5.135  0.5154  1.0471  0.5198
14379TIP3    H264629   5.922   6.038   5.063 -0.2989  0.8113 -1.0220
14380TIP3   OH264630   1.940   0.818   4.649  0.3369 -0.2533 -0.4876
14380TIP3    H164631   1.952   0.867   4.568 -1.7677  0.9945 -0.1201
14380TIP3    H264632   2.029   0.802   4.680  1.1572  0.8807 -2.0763
14381TIP3   OH264633   4.670   2.405  17.022 -0.0320  0.1208 -0.8595
14381TIP3    H164634   4.688   2.476  16.961 -1.1159  0.5780 -0.6672
14381TIP3    H264635   4.575   2.405  17.032  0.0189 -0.8181 -0.2070
14382TIP3   OH264636   5.408   5.866  14.832  0.0955 -0.1295 -0.4184
14382TIP3    H164637   5.369   5.889  14.748  0.0284 -0.1192 -0.3843
14382TIP3    H264638   5.391   5.941  14.889 -1.1639 -0.7319  0.0416
14383TIP3   OH264639   3.110   6.221  16.941  0.6489 -0.5587  0.5723
14383TIP3    H164640   3.180   6.187  16.886  0.4518  1.7471 -1.2554
14383TIP3    H264641   3.060   6.279  16.884 -2.0633 -1.1465  2.1370
14384TIP3   OH264642   0.398   5.500  11.964 -0.6624  0.4602  0.3403
14384TIP3    H164643   0.331   5.518  12.030 -0.1847 -2.3261  1.7767
14384TIP3    H264644   0.473   5.554  11.990 -0.8004  0.0878  1.5854
14385TIP3   OH264645   1.750   2.268  15.567  0.4830 -0.0772  0.2748
14385TIP3    H164646   1.689   2.340  15.550 -1.3701 -1.3506  1.1815
14385TIP3    H264647   1.743   2.212  15.490 -1.4609 -1.4859  1.3879
14386TIP3   OH264648   6.603   4.058  14.647  0.6394 -0.1596  0.1562
14386TIP3    H164649   6.639   4.107  14.573 -2.1299  0.8831 -0.6226
14386TIP3    H264650   6.587   3.970  14.611  1.0245 -0.2065  0.0913
14387TIP3   OH264651   5.667   1.395  15.680 -0.1545  0.4551  0.4460
14387TIP3    H164652   5.718   1.314  15.678 -0.8943 -0.0264  0.7323
14387TIP3    H264653   5.681   1.434  15.593 -1.2300 -0.8874 -0.3660
14388TIP3   OH264654   3.546   1.108   3.471 -0.6027  0.4713 -0.1851
14388TIP3    H164655   3.606   1.043   3.508  0.3993  1.6499  0.3368
14388TIP3    H264656   3.521   1.073   3.386  0.9673  0.0081 -0.4892
14389TIP3   OH264657   2.067   0.527  16.749 -0.2768  0.3474  0.4912
14389TIP3    H164658   2.071   0.615  16.787  0.4021 -0.4840  2.4926
14389TIP3    H264659   2.013   0.477  16.810  3.2086 -1.7960  2.1617
14390TIP3   OH264660   0.301   6.488  11.226  0.3256  0.1322  0.2943
14390TIP3    H164661   0.320   6.582  11.223  0.5811  0.0683 -0.1088
14390TIP3    H264662   0.336   6.460  11.311  2.8740 -0.1441 -0.7795
14391TIP3   OH264663   2.636   1.330   1.396  0.6415  0.3327 -0.7777
14391TIP3    H164664   2.628   1.366   1.308  0.6780 -0.0604 -0.9456
14391TIP3    H264665   2.636   1.235   1.383  2.4068  0.2658 -0.5096
14392TIP3   OH264666   5.031   4.438   1.845 -0.0854 -0.2404 -0.4020
14392TIP3    H164667   5.112   4.469   1.887 -0.1691  0.5463 -0.8060
14392TIP3    H264668   5.020   4.495   1.769 -0.7029 -0.7346 -0.6920
14393TIP3   OH264669   0.758   0.922  16.865  0.2623 -0.0785  0.5117
14393TIP3    H164670   0.768   0.904  16.959 -0.6528 -1.0543  0.4436
14393TIP3    H264671   0.769   1.017  16.858 -1.8080  0.3531  1.9574
14394TIP3   OH264672   1.264   3.090   4.081  0.3641  0.0777  0.1533
14394TIP3    H164673   1.202   3.114   4.013  0.4710 -0.1072 -0.0094
14394TIP3    H264674   1.211   3.048   4.149  0.1664  0.8037  0.4637
14395TIP3   OH264675   0.993   4.596  13.822  0.0669 -0.3151 -0.6382
14395TIP3    H164676   0.958   4.557  13.742 -1.1513 -0.1420 -0.2064
14395TIP3    H264677   1.084   4.618  13.800 -0.9350  2.0591 -2.8322
14396TIP3   OH264678   3.177   1.934  12.816  0.1430 -0.4948  0.0186
14396TIP3    H164679   3.263   1.909  12.851  0.2610  1.6298  1.4818
14396TIP3    H264680   3.191   1.942  12.722  1.2358 -1.3403  0.0941
14397TIP3   OH264681   2.628   5.685   2.864  0.2026  0.2215 -0.5418
14397TIP3    H164682   2.535   5.695   2.884  0.1174  0.2467 -0.9397
14397TIP3    H264683   2.656   5.611   2.917 -0.2909 -0.4465 -1.1849
14398TIP3   OH264684   5.037   3.993  17.068  0.3895  0.7025  0.2465
14398TIP3    H164685   4.942   3.980  17.063  0.3985  0.4987  0.5475
14398TIP3    H264686   5.062   4.022  16.980  0.0394  0.8212  0.1848
14399TIP3   OH264687   5.066   1.364  15.372  0.2720  0.4183 -0.1482
14399TIP3    H164688   5.019   1.337  15.451  0.1171 -1.0703 -0.7166
14399TIP3    H264689   5.133   1.425  15.404 -0.5705  0.7882  0.9640
14400TIP3   OH264690   4.886   0.866  15.873  0.0681  0.3435  0.8076
14400TIP3    H164691   4.808   0.843  15.823 -0.3138 -0.5389  1.7861
14400TIP3    H264692   4.854   0.906  15.954  0.6434  0.4076  1.0153
14401TIP3   OH264693   6.283   2.079  16.328  0.4679 -0.7043  0.2714
14401TIP3    H164694   6.242   2.158  16.363  2.1156  0.6835 -0.7881
14401TIP3    H264695   6.353   2.111  16.271  1.8602 -2.9384  0.5979
14402TIP3   OH264696   2.523   2.022  13.210  0.8196  0.1567  0.0015
14402TIP3    H164697   2.515   2.105  13.258  1.7519 -0.3635  1.1054
14402TIP3    H264698   2.470   2.035  13.131  0.4762  1.5898  0.4321
14403TIP3   OH264699   1.759   1.790  13.955  0.3072 -0.3535 -0.1417
14403TIP3    H164700   1.751   1.742  13.872  2.4045 -0.1435 -0.5167
14403TIP3    H264701   1.847   1.769  13.986  0.6200  1.8114  0.5874
14404TIP3   OH264702   6.260   5.227   4.424 -0.6673 -0.1145 -0.2504
14404TIP3    H164703   6.307   5.145   4.440 -0.7365 -0.1696 -0.3284
14404TIP3    H264704   6.303   5.291   4.481 -0.1823 -0.0586 -0.6673
14405TIP3   OH264705   6.723   3.349  11.991 -0.1777 -0.0650  0.1885
14405TIP3    H164706   6.661   3.410  12.032 -0.0829  1.1023 -1.3312
14405TIP3    H264707   6.674   3.311  11.918  1.2384  1.9625 -1.9667
14406TIP3   OH264708   5.370   4.142   4.661  0.1164  0.5001  0.7368
14406TIP3    H164709   5.336   4.231   4.650 -1.7329 -0.1722  0.5171
14406TIP3    H264710   5.298   4.094   4.702  2.4275 -0.0356  4.6198
14407TIP3   OH264711   1.392   5.641  16.999 -0.1267  0.1130  0.0033
14407TIP3    H164712   1.403   5.701  16.925  0.9403 -0.0786  0.0013
14407TIP3    H264713   1.398   5.696  17.077 -0.6336  0.2195 -0.0259
14408TIP3   OH264714   6.640   0.855  11.683 -0.7902  0.4646 -0.7798
14408TIP3    H164715   6.667   0.776  11.731  0.6446  0.3443 -1.7421
14408TIP3    H264716   6.557   0.831  11.643 -0.9321 -0.1722 -0.1331
14409TIP3   OH264717   6.130   6.462  15.210  0.0105 -0.2144 -0.3060
14409TIP3    H164718   6.190   6.446  15.137  0.1495  0.8727 -0.4477
14409TIP3    H264719   6.162   6.542  15.250 -0.9348 -0.0035  0.0572
14410TIP3   OH264720   3.545   0.975   3.851  0.4925 -0.2428 -0.0965
14410TIP3    H164721   3.637   0.964   3.825  0.2245 -0.8005 -0.8301
14410TIP3    H264722   3.532   0.912   3.921  0.9178  0.4991  0.6713
14411TIP3   OH264723   5.630   0.802  13.917 -0.2496 -0.1738 -0.5112
14411TIP3    H164724   5.714   0.848  13.922 -0.9136  0.9837  0.2570
14411TIP3    H264725   5.603   0.792  14.008 -1.1126 -0.2447 -0.7716
14412TIP3   OH264726   6.189   0.642   4.243 -0.5416  0.1573 -0.1968
14412TIP3    H164727   6.157   0.618   4.330 -2.6437 -0.7400 -1.1416
14412TIP3    H264728   6.172   0.736   4.236  1.2775  0.6122  0.9642
14413TIP3   OH264729   5.833   4.677  12.108  0.7216 -0.3419 -0.1793
14413TIP3    H164730   5.738   4.688  12.106  0.7760  0.4264  0.7086
14413TIP3    H264731   5.867   4.766  12.118  1.5509 -0.5861 -0.6756
14414TIP3   OH264732   2.356   6.833   4.721  0.1147 -0.0031 -0.9685
14414TIP3    H164733   2.346   6.925   4.698 -1.9675 -0.5792 -2.6776
14414TIP3    H264734   2.309   6.823   4.803 -1.0906  0.1736 -1.6223
14415TIP3   OH264735   2.929   1.651   3.645  0.0649  0.4298  0.4593
14415TIP3    H164736   2.957   1.587   3.580 -0.7225 -0.6990  1.1874
14415TIP3    H264737   2.959   1.735   3.611 -1.8420  0.1293 -2.2676
14416TIP3   OH264738   2.691   2.171   1.472 -0.5929  0.1268  0.6168
14416TIP3    H164739   2.693   2.122   1.555  0.0906  0.1648  0.6235
14416TIP3    H264740   2.662   2.259   1.497  0.4573  0.3885  0.9488
14417TIP3   OH264741   2.984   5.651   5.051 -0.3216  0.3594  0.2432
14417TIP3    H164742   2.987   5.662   5.146 -1.1861 -0.5668  0.3931
14417TIP3    H264743   2.933   5.725   5.019 -0.5257  0.3527  0.5544
14418TIP3   OH264744   5.572   2.355  10.469 -0.4107  0.5364  0.1217
14418TIP3    H164745   5.524   2.402  10.538 -0.9072 -0.2179  0.2999
14418TIP3    H264746   5.623   2.289  10.516 -0.4296  0.2918 -0.1993
14419TIP3   OH264747   5.872   0.971   0.845  0.4578 -0.5430  0.0310
14419TIP3    H164748   5.814   1.038   0.808  1.0515  0.4359  0.8320
14419TIP3    H264749   5.822   0.934   0.919  1.4541  1.5063  1.8252
14420TIP3   OH264750   0.506   1.448   5.379  0.1098  0.3676  0.4131
14420TIP3    H164751   0.543   1.533   5.403  2.0911  0.0353 -1.2865
14420TIP3    H264752   0.425   1.470   5.333  1.2693  1.4726 -1.2274
14421TIP3   OH264753   2.371   5.522   3.789  0.4174  0.0242  0.2659
14421TIP3    H164754   2.443   5.575   3.755  1.3929 -1.1161  0.4920
14421TIP3    H264755   2.380   5.527   3.884  0.6352 -0.6974  0.2851
14422TIP3   OH264756   3.683   1.728   2.919  0.3421  0.3839 -0.2118
14422TIP3    H164757   3.695   1.726   2.824 -3.5744  0.4996 -0.8748
14422TIP3    H264758   3.640   1.644   2.939  1.5983  0.1254  1.5820
14423TIP3   OH264759   1.030   4.787   5.800 -0.3251  0.6276 -0.5633
14423TIP3    H164760   1.004   4.725   5.732  1.0444  0.1213 -0.6459
14423TIP3    H264761   0.961   4.853   5.800 -1.3706 -0.4276 -1.0647
14424TIP3   OH264762   2.570   2.843   1.876  0.1537  0.2163 -0.1351
14424TIP3    H164763   2.639   2.882   1.930 -0.6173  1.9566 -0.3608
14424TIP3    H264764   2.570   2.750   1.901  1.0440  0.6264  1.5275
14425TIP3   OH264765   4.384   6.448  16.314 -0.6141 -1.3988  0.8021
14425TIP3    H164766   4.469   6.418  16.282  1.2592  1.7100  2.4224
14425TIP3    H264767   4.336   6.472  16.235 -0.3721 -3.8237 -0.1891
14426TIP3   OH264768   0.075   3.740   3.486 -0.0349 -0.5520  0.1628
14426TIP3    H164769   0.134   3.683   3.535  0.0693  0.2800  1.0556
14426TIP3    H264770   0.067   3.700   3.400 -0.4752 -2.2571  0.9540
14427TIP3   OH264771   4.691   3.342  13.628 -0.6658  0.3070 -0.6153
14427TIP3    H164772   4.726   3.348  13.539  0.1445 -0.8567 -0.4128
14427TIP3    H264773   4.725   3.419  13.673  1.3110 -0.5287 -0.5684
14428TIP3   OH264774   2.733   1.588   2.516 -0.4512  0.4733 -0.5470
14428TIP3    H164775   2.732   1.577   2.612 -4.7034  0.5609 -0.3876
14428TIP3    H264776   2.690   1.509   2.483 -0.4539  1.1612 -2.2727
14429TIP3   OH264777   2.729   6.583  14.332  0.3354  0.0641 -0.9226
14429TIP3    H164778   2.822   6.584  14.353  0.3287 -2.8155 -0.2855
14429TIP3    H264779   2.715   6.497  14.292 -1.7600  1.0891 -2.6407
14430TIP3   OH264780   3.880   3.823   2.930 -0.4998 -0.5098  0.1846
14430TIP3    H164781   3.962   3.795   2.888  0.0086  0.9052  0.1740
14430TIP3    H264782   3.823   3.746   2.923  1.3583 -2.1569  1.6953
14431TIP3   OH264783   6.138   2.298  16.054 -0.2435  0.3517 -0.1230
14431TIP3    H164784   6.177   2.266  15.972 -2.5524 -0.2421 -1.0827
14431TIP3    H264785   6.177   2.384  16.067  0.6728  0.1747 -1.5036
14432TIP3   OH264786   5.385   2.198  13.625  0.1887  0.5848  0.4769
14432TIP3    H164787   5.323   2.267  13.602  0.9449  1.2217  0.3235
14432TIP3    H264788   5.471   2.240  13.622  0.4784  0.3130  2.8678
14433TIP3   OH264789   4.506   3.933  13.314 -0.3943  0.3893  0.2162
14433TIP3    H164790   4.601   3.921  13.312 -0.3553  0.7747 -0.3571
14433TIP3    H264791   4.472   3.845  13.334  0.0936  0.3392  0.8836
14434TIP3   OH264792   3.786   5.920  15.663  0.5020  0.2411  0.5038
14434TIP3    H164793   3.756   5.962  15.583 -1.4851  1.8318  1.9503
14434TIP3    H264794   3.737   5.838  15.668  1.6802 -0.5605 -0.5427
14435TIP3   OH264795   0.012   2.128   1.541 -0.0224  0.5119  0.6806
14435TIP3    H164796  -0.026   2.061   1.484  0.7283  0.2615  0.4655
14435TIP3    H264797  -0.062   2.183   1.566 -0.6066 -0.2324  0.6324
14436TIP3   OH264798   4.009   2.283  16.704  0.6276 -0.5470  0.0563
14436TIP3    H164799   4.046   2.203  16.742 -1.6879 -0.1802  3.5905
14436TIP3    H264800   3.927   2.296  16.752 -1.6335  1.3042 -3.8672
14437TIP3   OH264801   0.687   6.217  14.244 -0.2929  0.0187 -0.5717
14437TIP3    H164802   0.616   6.248  14.189  0.4603  0.1754 -1.4853
14437TIP3    H264803   0.728   6.297  14.277  0.0762 -0.0462 -0.8650
14438TIP3   OH264804   5.632   1.352   4.797 -0.1801  0.1469 -0.0335
14438TIP3    H164805   5.576   1.429   4.784  0.3771  0.3081 -1.7270
14438TIP3    H264806   5.652   1.353   4.891 -1.7330  0.9624  0.3268
14439TIP3   OH264807   5.740   1.847   1.984  0.1686 -0.0824 -0.1055
14439TIP3    H164808   5.721   1.771   1.929 -1.9449  0.5821 -0.3779
14439TIP3    H264809   5.828   1.874   1.959  1.0176 -2.4684  0.0644
14440TIP3   OH264810   2.649   5.718  15.210  0.3501 -0.2659  0.4308
14440TIP3    H164811   2.605   5.756  15.287  1.0888  0.7929  0.3455
14440TIP3    H264812   2.683   5.794  15.162  1.2219 -1.0009 -0.1341
14441TIP3   OH264813   5.379   4.515   5.343  0.2480 -0.6478  0.3600
14441TIP3    H164814   5.419   4.479   5.263 -0.8086  0.2383 -0.6078
14441TIP3    H264815   5.305   4.567   5.311 -2.6605 -3.3802  2.1156
14442TIP3   OH264816   2.567   2.387   0.840 -0.2587  0.1601 -0.0714
14442TIP3    H164817   2.599   2.474   0.863 -0.0011 -0.2109  1.0238
14442TIP3    H264818   2.521   2.400   0.757 -0.7708  1.4479  0.3823
14443TIP3   OH264819   5.540   5.958  15.145 -0.0291 -0.2099  0.3618
14443TIP3    H164820   5.586   5.991  15.068 -1.0074  1.5173  0.4552
14443TIP3    H264821   5.587   5.878  15.169  0.1647 -0.9287 -2.1382
14444TIP3   OH264822   3.270   4.606   3.330  0.1987 -0.6122  0.2232
14444TIP3    H164823   3.284   4.635   3.420  0.4584 -1.7324  0.5661
14444TIP3    H264824   3.289   4.512   3.332 -1.8668 -1.0950 -0.5338
14445TIP3   OH264825   0.533   4.041  12.360 -0.4536  0.2574  0.4689
14445TIP3    H164826   0.461   4.024  12.421 -1.4260 -0.8568 -0.9270
14445TIP3    H264827   0.588   3.963  12.365 -0.2007  0.4297  0.3777
14446TIP3   OH264828   4.042   5.212  14.325  0.7214  0.0639  0.7532
14446TIP3    H164829   4.040   5.307  14.335 -1.5929  0.1586  0.1261
14446TIP3    H264830   4.032   5.178  14.414 -0.9355  0.5046  0.7742
14447TIP3   OH264831   4.054   1.707   1.024 -0.6156  1.0582 -0.0380
14447TIP3    H164832   4.075   1.773   1.089  1.1807  0.8769 -0.3715
14447TIP3    H264833   4.068   1.623   1.069 -0.4562  0.9274 -0.3218
14448TIP3   OH264834   2.283   0.993  13.638 -0.1377  0.7127 -0.9064
14448TIP3    H164835   2.298   0.967  13.729 -1.6320  0.7807 -0.6016
14448TIP3    H264836   2.312   1.084  13.635  0.4260  0.5473 -0.6461
14449TIP3   OH264837   1.186   1.501  13.556 -0.3451  0.2021  0.0066
14449TIP3    H164838   1.272   1.508  13.514  0.0457 -0.3203  0.6959
14449TIP3    H264839   1.129   1.464  13.489  0.4108 -1.2037  0.1098
14450TIP3   OH264840   3.601   0.530   1.149  0.0796 -0.0270  0.6176
14450TIP3    H164841   3.571   0.442   1.127 -0.4435 -0.1801  1.8864
14450TIP3    H264842   3.573   0.584   1.075  1.1777 -1.0569 -0.5865
14451TIP3   OH264843   4.185   3.519   4.943  0.2548  0.5125  0.6128
14451TIP3    H164844   4.120   3.473   4.996  1.5017 -1.1684  0.7726
14451TIP3    H264845   4.216   3.590   4.998 -1.7647  1.6754  0.3456
14452TIP3   OH264846   2.616   2.934  14.705  0.4017 -0.2241  0.0115
14452TIP3    H164847   2.562   2.997  14.657 -0.6097 -1.4853 -0.5454
14452TIP3    H264848   2.591   2.945  14.797 -0.3054 -0.3298 -0.1694
14453TIP3   OH264849   4.707   2.372  11.679  0.4659  0.4886 -0.0964
14453TIP3    H164850   4.802   2.372  11.691  0.3747 -0.5152  0.7504
14453TIP3    H264851   4.696   2.380  11.584  1.3565  1.8148 -0.1189
14454TIP3   OH264852   4.310   2.654  14.078 -0.3004 -0.0063 -0.0912
14454TIP3    H164853   4.221   2.680  14.055 -0.1087 -0.2496 -1.1934
14454TIP3    H264854   4.334   2.710  14.151 -1.0295  0.6784 -0.3663
14455TIP3   OH264855   1.781   4.961  12.940  0.6344  0.0450  0.0277
14455TIP3    H164856   1.770   5.042  12.989  0.6034  0.2337 -0.2869
14455TIP3    H264857   1.700   4.913  12.953 -0.3032  1.0805 -1.6452
14456TIP3   OH264858   4.146   0.948  16.590  0.8469  0.0402  0.6505
14456TIP3    H164859   4.053   0.928  16.595  1.1707 -1.3448  1.4208
14456TIP3    H264860   4.152   1.040  16.618 -0.6097  1.2718 -2.5174
14457TIP3   OH264861   6.298   3.015  15.662 -0.1588  0.1707  0.3411
14457TIP3    H164862   6.239   3.089  15.648 -1.9467 -1.2983 -0.3041
14457TIP3    H264863   6.289   2.994  15.755 -1.7075 -0.8355 -0.0016
14458TIP3   OH264864   2.616   0.138   4.949 -0.6171 -0.3038 -0.6996
14458TIP3    H164865   2.521   0.148   4.951 -0.6020 -0.1790 -0.6096
14458TIP3    H264866   2.629   0.044   4.934 -0.7531 -0.6486  1.1423
14459TIP3   OH264867   3.086   5.001  10.887 -0.1441 -0.4679 -1.0360
14459TIP3    H164868   3.046   5.088  10.894 -2.3993 -1.4781 -0.5855
14459TIP3    H264869   3.016   4.944  10.857  0.7453 -2.4782  0.4359
14460TIP3   OH264870   6.332   4.275  15.170 -0.4363 -0.0456  0.3007
14460TIP3    H164871   6.302   4.253  15.082 -1.3700 -0.8857  0.8071
14460TIP3    H264872   6.315   4.369  15.179  0.0870  0.1415 -0.5588
14461TIP3   OH264873   6.397   5.875   5.674  1.0482 -0.5214  0.1136
14461TIP3    H164874   6.397   5.807   5.607 -0.1306 -0.9785  0.5454
14461TIP3    H264875   6.326   5.934   5.648  0.4502 -0.8090  1.0464
14462TIP3   OH264876   4.102   4.339  14.958 -0.0382 -0.8118  0.1571
14462TIP3    H164877   4.060   4.359  14.874 -1.9131  2.3822  1.7041
14462TIP3    H264878   4.044   4.274  14.998 -1.4795  0.7119  0.6458
14463TIP3   OH264879   0.306   6.791   1.490  0.5103  0.2770 -0.2009
14463TIP3    H164880   0.327   6.860   1.428  1.5935  1.7001  1.6591
14463TIP3    H264881   0.213   6.804   1.509  0.2282 -0.0289 -1.3205
14464TIP3   OH264882   0.305   0.393   2.254 -0.2434  0.8362  0.5552
14464TIP3    H164883   0.395   0.385   2.284 -0.3373 -0.7943  0.4803
14464TIP3    H264884   0.264   0.310   2.278 -1.9327  1.8167  1.2548
14465TIP3   OH264885   5.849   0.271  11.691 -0.0805 -0.1967  0.3669
14465TIP3    H164886   5.869   0.356  11.730 -0.0796  0.9761 -2.0541
14465TIP3    H264887   5.755   0.260  11.704 -0.5202  1.2790 -1.2710
14466TIP3   OH264888   0.348   5.455   5.324  1.1892  0.2217  0.1622
14466TIP3    H164889   0.268   5.458   5.272  0.5629 -3.6371  0.6137
14466TIP3    H264890   0.322   5.485   5.411  0.0947 -1.1182  0.3400
14467TIP3   OH264891   6.284   6.190  14.432  0.1445  0.0762 -0.5186
14467TIP3    H164892   6.374   6.218  14.418 -0.0924  0.5651 -1.0782
14467TIP3    H264893   6.232   6.247  14.375 -0.3242 -1.7845 -2.0374
14468TIP3   OH264894   3.266   4.384  14.272 -0.4182 -0.1973  0.1989
14468TIP3    H164895   3.349   4.346  14.303 -0.4146 -0.2413  0.1356
14468TIP3    H264896   3.222   4.311  14.228  0.4305  0.3515 -1.6070
14469TIP3   OH264897   6.416   1.499   1.685 -0.3992 -0.0268  0.1454
14469TIP3    H164898   6.491   1.530   1.634  1.2875 -0.3408  2.3225
14469TIP3    H264899   6.400   1.410   1.653  0.9162 -0.3815  0.4224
14470TIP3   OH264900   5.179   5.228   1.677 -0.4134 -0.1150 -0.4747
14470TIP3    H164901   5.137   5.169   1.740  0.8436  0.1798  0.7106
14470TIP3    H264902   5.107   5.268   1.629 -1.5282  0.6820  1.7318
14471TIP3   OH264903   6.579   2.865   0.392  0.3755  0.6057  0.1998
14471TIP3    H164904   6.487   2.877   0.417  0.0735 -0.7572 -0.1821
14471TIP3    H264905   6.620   2.949   0.412 -1.1801  1.6182 -0.6906
14472TIP3   OH264906   2.510   3.100   4.410  0.1399 -0.2689  0.1464
14472TIP3    H164907   2.426   3.116   4.453 -0.4574 -1.3911 -0.5747
14472TIP3    H264908   2.490   3.097   4.317  0.9199 -0.8805 -0.0139
14473TIP3   OH264909   4.617   6.771   1.491 -0.1475  0.3607 -0.8636
14473TIP3    H164910   4.693   6.807   1.536 -1.8687  0.6692  2.1001
14473TIP3    H264911   4.586   6.841   1.435  3.0503 -0.5932 -4.1765
14474TIP3   OH264912   6.533   5.127  14.928  0.7918 -0.1388 -0.5901
14474TIP3    H164913   6.564   5.037  14.926  0.2659 -0.3167 -1.8927
14474TIP3    H264914   6.494   5.137  15.015  0.5483 -1.2754 -0.5535
14475TIP3   OH264915   2.198   4.873   4.020  0.2516  0.0246 -0.6400
14475TIP3    H164916   2.277   4.845   4.066 -0.7123  0.1118  1.1357
14475TIP3    H264917   2.179   4.960   4.056 -0.7000 -0.0336 -0.9723
14476TIP3   OH264918   1.951   3.851   1.108 -0.4409 -0.1792  0.2437
14476TIP3    H164919   1.877   3.911   1.105 -0.7817 -0.6265 -0.6356
14476TIP3    H264920   1.912   3.764   1.116 -0.1505 -0.5915 -1.9366
14477TIP3   OH264921   2.230   5.897   0.967  0.7577 -0.2406  0.1856
14477TIP3    H164922   2.223   5.946   0.885 -0.3146  0.8468  0.8936
14477TIP3    H264923   2.323   5.905   0.992  0.6445  1.4043  0.2338
14478TIP3   OH264924   5.273   5.373  15.892  0.2418  0.5170 -0.6498
14478TIP3    H164925   5.191   5.345  15.931  1.0825 -1.8346 -0.4007
14478TIP3    H264926   5.290   5.308  15.823  3.9934 -1.8916  2.1513
14479TIP3   OH264927   1.028   4.657   0.309 -0.2434 -0.4343  0.4764
14479TIP3    H164928   0.983   4.725   0.260  0.7262  0.8289  1.2516
14479TIP3    H264929   0.967   4.632   0.378 -0.6096 -0.3377  0.1873
14480TIP3   OH264930   1.746   4.900   5.090  0.1201  0.0574  0.3288
14480TIP3    H164931   1.696   4.979   5.110 -0.2044  0.4849 -1.9955
14480TIP3    H264932   1.781   4.873   5.175 -1.4346  1.5264  1.5128
14481TIP3   OH264933   4.419   3.195  16.992 -0.2198  0.6298  0.1050
14481TIP3    H164934   4.430   3.100  17.001  1.5389  0.6751 -1.0274
14481TIP3    H264935   4.423   3.228  17.082  0.5974 -0.2583  0.4117
14482TIP3   OH264936   0.763   0.345  13.302 -0.1157 -0.1197 -0.4697
14482TIP3    H164937   0.767   0.315  13.211 -0.4763 -0.4499 -0.3790
14482TIP3    H264938   0.677   0.385  13.310  0.5887  1.5346 -0.7629
14483TIP3   OH264939   5.124   3.367  10.740 -0.2340  0.6125  0.4105
14483TIP3    H164940   5.201   3.311  10.734 -0.3224  0.5820 -0.6487
14483TIP3    H264941   5.070   3.341  10.665 -0.6136  1.6230  0.3249
14484TIP3   OH264942   1.687   1.707   2.627  0.3980  0.0161  0.2164
14484TIP3    H164943   1.723   1.619   2.628 -0.0231 -0.1652  1.1604
14484TIP3    H264944   1.756   1.762   2.591  0.6007 -0.7216 -0.5347
14485TIP3   OH264945   0.280   0.643   0.296 -0.1362  0.1350  0.2254
14485TIP3    H164946   0.301   0.626   0.204  1.4874  2.4114  0.1024
14485TIP3    H264947   0.184   0.637   0.300 -0.1661 -1.1886 -1.3213
14486TIP3   OH264948   4.323   6.563  16.087  0.2379 -0.6899 -0.4582
14486TIP3    H164949   4.352   6.499  16.022  0.1406 -0.4587 -0.7307
14486TIP3    H264950   4.364   6.645  16.061  2.1820 -1.0720  1.1583
14487TIP3   OH264951   6.069   6.533  10.454 -0.8329 -0.5920  0.0504
14487TIP3    H164952   6.072   6.462  10.389  1.4066 -1.0748  0.5878
14487TIP3    H264953   6.155   6.575  10.446 -1.4492  0.9070  1.0247
14488TIP3   OH264954   2.703   6.509   1.704 -0.2299  0.3996 -0.1752
14488TIP3    H164955   2.663   6.478   1.623 -3.2299 -0.6167  1.5318
14488TIP3    H264956   2.663   6.595   1.719  2.9212  2.2529 -1.3884
14489TIP3   OH264957   3.165   4.649  12.302 -0.4065  0.1387 -0.1316
14489TIP3    H164958   3.248   4.695  12.295 -0.7165  0.8084  0.4431
14489TIP3    H264959   3.113   4.682  12.229 -0.4478  0.3167 -0.0218
14490TIP3   OH264960   6.397   3.544   6.368 -0.1879  0.7033 -0.4291
14490TIP3    H164961   6.375   3.466   6.317  1.1319 -1.3036  1.8701
14490TIP3    H264962   6.324   3.554   6.429 -0.2973  1.2099 -0.6420
14491TIP3   OH264963   3.069   5.642   1.166  0.4746 -0.1679  0.4505
14491TIP3    H164964   3.101   5.562   1.209 -1.7832  0.2511  3.1864
14491TIP3    H264965   3.142   5.703   1.172  0.8342 -0.7032  2.2566
14492TIP3   OH264966   4.259   0.735  15.338 -0.3052 -0.3890  0.2636
14492TIP3    H164967   4.216   0.740  15.253 -1.5822 -2.4805  0.7122
14492TIP3    H264968   4.284   0.643  15.348 -0.2890 -0.2323  2.1806
14493TIP3   OH264969   2.405   5.872   5.250 -0.0781 -0.4287  0.5565
14493TIP3    H164970   2.442   5.925   5.180 -1.1557 -0.9409 -0.4346
14493TIP3    H264971   2.452   5.789   5.244  0.3337 -0.2219  0.9133
14494TIP3   OH264972   2.171   3.788  15.199  0.0521 -0.0852  0.0721
14494TIP3    H164973   2.090   3.802  15.247  1.5796  0.8340  2.5802
14494TIP3    H264974   2.213   3.715  15.244  0.8004 -0.3423 -0.9927
14495TIP3   OH264975   3.361   4.879   0.848  0.1927 -0.1250 -0.2541
14495TIP3    H164976   3.330   4.881   0.938 -0.0760 -0.0256 -0.3485
14495TIP3    H264977   3.442   4.931   0.849 -1.0933  1.9770 -0.5542
14496TIP3   OH264978   0.668   4.830  13.177  0.1409  0.9754  0.1731
14496TIP3    H164979   0.701   4.915  13.147  0.6716  1.0828  1.0297
14496TIP3    H264980   0.604   4.852  13.245  0.5470  0.6853  0.6553
14497TIP3   OH264981   3.684   2.059  12.435  0.4638  0.3754  0.2795
14497TIP3    H164982   3.621   2.098  12.496 -0.4727 -1.1953  0.3891
14497TIP3    H264983   3.638   2.056  12.352 -0.1850 -1.9612  0.6371
14498TIP3   OH264984   4.268   2.402   5.536  0.2934 -0.0538 -0.2034
14498TIP3    H164985   4.315   2.456   5.472 -0.4862  0.5580 -0.2737
14498TIP3    H264986   4.215   2.343   5.482 -2.3533  2.1630 -0.2299
14499TIP3   OH264987   2.224   1.094  12.039 -0.1023  0.5908 -0.5021
14499TIP3    H164988   2.141   1.095  11.992 -0.3368 -1.7373 -0.2563
14499TIP3    H264989   2.233   1.183  12.074 -3.0688  0.6344  0.4244
14500TIP3   OH264990   0.207   2.823  14.349  0.4314  0.3546 -0.3232
14500TIP3    H164991   0.127   2.861  14.314  0.1033 -1.5355 -1.7485
14500TIP3    H264992   0.231   2.881  14.422 -2.4897  0.6865  0.5027
14501TIP3   OH264993   1.316   5.333   4.395 -0.2033 -0.0417  0.1483
14501TIP3    H164994   1.352   5.334   4.306 -0.1870  1.5432  0.1424
14501TIP3    H264995   1.349   5.414   4.435  1.3919 -1.6359  2.2741
14502TIP3   OH264996   4.925   1.044  14.082  0.0192 -0.2574 -0.7464
14502TIP3    H164997   4.972   0.999  14.152  0.9173  1.1812 -0.3712
14502TIP3    H264998   4.965   1.131  14.080 -1.2433  0.3159 -1.8373
14503TIP3   OH264999   6.219   3.044  16.191 -0.5466  0.2828 -0.1313
14503TIP3    H165000   6.180   3.030  16.278  0.3058 -2.1307 -0.0731
14503TIP3    H265001   6.306   3.080  16.210  0.0250 -1.1517  0.1162
14504TIP3   OH265002   3.832   2.687  12.853 -0.0886 -0.5652 -0.6211
14504TIP3    H165003   3.839   2.715  12.944 -1.9575 -0.2407 -0.5446
14504TIP3    H265004   3.871   2.600  12.852 -2.1360 -1.5869  1.0317
14505TIP3   OH265005   3.199   3.243   4.399  0.9263 -0.4472 -0.3920
14505TIP3    H165006   3.135   3.262   4.467 -0.4378 -1.2032 -1.4187
14505TIP3    H265007   3.266   3.190   4.442  2.5195  2.7510  1.4328
14506TIP3   OH265008   0.655   0.931  10.378  0.5162  0.1144  0.5208
14506TIP3    H165009   0.702   0.988  10.439  1.8220 -1.2705  0.9054
14506TIP3    H265010   0.723   0.898  10.319 -0.2176 -0.8395  0.1717
14507TIP3   OH265011   2.980   3.792   1.227 -1.0679  0.0216  0.9184
14507TIP3    H165012   3.022   3.843   1.297  0.0477 -1.3388  1.2964
14507TIP3    H265013   2.989   3.701   1.255  1.1826 -0.7589 -1.8817
14508TIP3   OH265014   4.568   4.241   2.708 -0.9245 -0.0717  0.4749
14508TIP3    H165015   4.632   4.302   2.744 -0.0924 -0.3329 -0.5338
14508TIP3    H265016   4.534   4.285   2.630 -0.2266 -0.9396 -0.3339
14509TIP3   OH265017   5.483   0.466  12.826  0.1240  0.0297 -0.2148
14509TIP3    H165018   5.402   0.429  12.792  2.0144 -3.1108 -1.7420
14509TIP3    H265019   5.488   0.435  12.916  0.2765 -0.9849 -0.5646
14510TIP3   OH265020   2.576   4.793  15.351 -0.1128 -0.9250 -0.3034
14510TIP3    H165021   2.578   4.734  15.426  0.2153 -0.4738  0.0545
14510TIP3    H265022   2.512   4.755  15.291  0.5663 -1.9897 -0.3753
14511TIP3   OH265023   6.185   1.390  11.473  0.0608  0.4964  0.6316
14511TIP3    H165024   6.257   1.432  11.426  0.9565  0.6502  2.0819
14511TIP3    H265025   6.189   1.299  11.446 -0.3027  0.8246 -0.6016
14512TIP3   OH265026   6.156   3.577  11.272  0.4376  0.4912 -0.4473
14512TIP3    H165027   6.182   3.495  11.230 -1.8320 -1.4027  1.6249
14512TIP3    H265028   6.097   3.618  11.209 -2.2298 -1.8868  0.2908
14513TIP3   OH265029   0.711   6.781  13.468 -0.1138 -0.4538 -0.1859
14513TIP3    H165030   0.639   6.840  13.448 -0.3118 -0.4331  0.5457
14513TIP3    H265031   0.768   6.785  13.392 -2.2204 -2.5449 -2.0480
14514TIP3   OH265032   5.359   0.279   0.195 -0.1639  0.0765  0.6753
14514TIP3    H165033   5.287   0.335   0.222  1.3101  1.8824  1.0570
14514TIP3    H265034   5.369   0.296   0.102 -1.9134 -2.2682 -0.0574
14515TIP3   OH265035   4.743   2.281  14.164  0.3657 -0.4079  0.2563
14515TIP3    H165036   4.661   2.328  14.147  0.7960 -0.4570 -2.5642
14515TIP3    H265037   4.757   2.230  14.084  2.6585 -1.1350  1.0654
14516TIP3   OH265038   5.040   0.880  11.476  0.2081  0.3386 -0.5790
14516TIP3    H165039   5.067   0.807  11.420 -0.4584 -0.5176  0.1772
14516TIP3    H265040   4.967   0.921  11.429 -1.3513 -1.3023  0.3018
14517TIP3   OH265041   5.824   5.880  12.418  0.0554 -0.8410 -0.9156
14517TIP3    H165042   5.872   5.926  12.349 -0.2763  4.0523  1.6328
14517TIP3    H265043   5.891   5.859  12.483 -0.4229  3.5142  1.3882
14518TIP3   OH265044   6.699   1.239  13.202 -0.0047 -0.0051  0.4380
14518TIP3    H165045   6.726   1.164  13.257 -1.7233 -1.0358 -0.0334
14518TIP3    H265046   6.740   1.315  13.244  4.6108 -1.4165 -0.9100
14519TIP3   OH265047   4.468   2.845  14.184  0.1592  0.1206  0.1245
14519TIP3    H165048   4.416   2.898  14.245 -1.1708 -0.5992 -0.3681
14519TIP3    H265049   4.552   2.891  14.179 -1.3462  2.9758 -1.2760
14520TIP3   OH265050   2.834   6.448   4.309 -0.0715 -0.4936 -0.4324
14520TIP3    H165051   2.747   6.456   4.269 -1.0334 -0.3117  1.5660
14520TIP3    H265052   2.819   6.466   4.402  2.2518  0.3643 -0.1617
14521TIP3   OH265053   5.182   1.836   3.556  0.2318 -0.0202  0.0468
14521TIP3    H165054   5.157   1.925   3.532 -0.5812 -0.0029  0.9093
14521TIP3    H265055   5.111   1.782   3.521  1.2071 -0.4659 -1.3552
14522TIP3   OH265056   6.191   6.239   4.704 -0.2888 -0.1093  0.4939
14522TIP3    H165057   6.240   6.315   4.671  0.1502 -0.1867  0.9414
14522TIP3    H265058   6.100   6.256   4.679  0.0010 -0.1018 -0.6163
14523TIP3   OH265059   0.315   3.669   2.889  0.0362 -0.0639 -0.5999
14523TIP3    H165060   0.338   3.723   2.964 -1.3595  0.7457 -0.7293
14523TIP3    H265061   0.397   3.625   2.865  0.6833  0.2709  0.8849
14524TIP3   OH265062   1.907   2.707   5.494 -0.3406  0.2174 -0.0817
14524TIP3    H165063   1.871   2.683   5.579 -2.2869  2.5472 -0.1610
14524TIP3    H265064   1.836   2.689   5.432 -0.2146  1.7652 -0.7110
14525TIP3   OH265065   5.596   5.692  11.853  0.0944 -0.2003 -0.0976
14525TIP3    H165066   5.606   5.715  11.760  1.3101  0.1645  0.1106
14525TIP3    H265067   5.530   5.753  11.886 -1.1259 -1.0031 -0.9376
14526TIP3   OH265068   4.091   4.786  12.001 -0.3278  0.1293  0.1979
14526TIP3    H165069   4.072   4.822  11.914 -0.2382  0.7689  0.4305
14526TIP3    H265070   4.085   4.692  11.991 -0.8671  0.2212 -0.3772
14527TIP3   OH265071   3.899   4.966   3.577 -0.4356 -0.4650  1.1042
14527TIP3    H165072   3.969   4.955   3.513  0.0413 -0.6864  1.6531
14527TIP3    H265073   3.828   5.008   3.529  0.8093  1.6809  1.0254
14528TIP3   OH265074   0.803   2.757   3.803  0.1506  0.4353 -0.0836
14528TIP3    H165075   0.830   2.676   3.846  0.7431 -0.0107 -1.2523
14528TIP3    H265076   0.805   2.823   3.872 -2.0644 -0.8467  1.3421
14529TIP3   OH265077   0.856   2.880   0.852  0.5782 -0.1717  0.3511
14529TIP3    H165078   0.826   2.808   0.797 -0.8729  1.2852 -0.8648
14529TIP3    H265079   0.855   2.956   0.795  0.9654  1.0424  1.8952
14530TIP3   OH265080   3.118   5.329  11.531 -0.1694  0.4179  0.2760
14530TIP3    H165081   3.047   5.390  11.546 -0.0197  0.4887  0.6909
14530TIP3    H265082   3.136   5.336  11.437 -1.3258 -0.2802 -0.0107
14531TIP3   OH265083   3.337   0.512   4.114  0.3597 -0.6189 -0.2402
14531TIP3    H165084   3.294   0.431   4.086  0.2000  0.2775 -2.8058
14531TIP3    H265085   3.409   0.523   4.053 -0.1318  1.6176 -0.4933
14532TIP3   OH265086   0.398   3.692   6.310  0.1330  0.0035  0.0745
14532TIP3    H165087   0.341   3.765   6.286  1.2819  1.3847  1.3757
14532TIP3    H265088   0.479   3.707   6.261 -0.0112 -1.0657 -0.5348
14533TIP3   OH265089   3.585   6.522   3.047  0.4425 -0.7396 -0.4662
14533TIP3    H165090   3.545   6.487   3.127 -0.6968  1.1790 -0.1423
14533TIP3    H265091   3.525   6.590   3.017  2.6483  1.2012 -0.8488
14534TIP3   OH265092   6.273   4.556   3.239 -0.1809  0.3266 -0.3600
14534TIP3    H165093   6.262   4.622   3.307  2.2274 -0.2819  0.7449
14534TIP3    H265094   6.368   4.551   3.226 -0.5005 -0.1485 -3.2355
14535TIP3   OH265095   1.260   4.727  15.770  0.1173  0.6349  0.2342
14535TIP3    H165096   1.314   4.727  15.849  0.5610 -3.8455  0.1628
14535TIP3    H265097   1.306   4.669  15.709 -1.9183  1.2477 -2.0613
14536TIP3   OH265098   2.179   4.623  12.064 -0.0292  0.4027  0.0181
14536TIP3    H165099   2.108   4.625  12.001  0.5211  1.0403 -0.6009
14536TIP3    H265100   2.150   4.562  12.132 -1.7241  1.6629  0.4648
14537TIP3   OH265101   1.905   5.475   3.913 -0.4400 -0.3723  0.5557
14537TIP3    H165102   1.974   5.455   3.977 -0.0218 -0.6787  0.0156
14537TIP3    H265103   1.853   5.544   3.955  0.9060  0.7312  0.4915
14538TIP3   OH265104   5.750   3.781   0.402 -0.1355 -0.3065 -0.1174
14538TIP3    H165105   5.787   3.693   0.392 -0.5900 -0.4335 -0.7725
14538TIP3    H265106   5.777   3.827   0.322 -0.4444 -0.0554 -0.0788
14539TIP3   OH265107   0.287   5.518  13.718  0.1357  0.3179  0.7199
14539TIP3    H165108   0.200   5.504  13.756 -0.3437 -2.4222 -1.1253
14539TIP3    H265109   0.275   5.592  13.658 -1.2890 -0.7178 -0.3567
14540TIP3   OH265110   5.278   5.671  13.370 -0.3394 -0.1600  0.9243
14540TIP3    H165111   5.309   5.580  13.368  0.1731  0.0222  0.5526
14540TIP3    H265112   5.281   5.695  13.463  2.3342  0.4156  0.7683
14541TIP3   OH265113   3.806   0.647  15.299  0.7467 -0.3190  0.3670
14541TIP3    H165114   3.874   0.627  15.235 -0.2393  0.4246 -0.9619
14541TIP3    H265115   3.737   0.583  15.283  0.1926  0.3021  0.1866
14542TIP3   OH265116   0.211   6.862   0.215 -0.5359  0.3371  0.1383
14542TIP3    H165117   0.210   6.838   0.123 -1.3127 -1.4909  0.5791
14542TIP3    H265118   0.136   6.921   0.225 -0.7270  0.1709 -0.3116
14543TIP3   OH265119   2.842   3.801  11.190  0.2823  0.0668 -0.0473
14543TIP3    H165120   2.838   3.725  11.248  1.3831 -2.3526 -2.8675
14543TIP3    H265121   2.754   3.809  11.154  0.6358 -1.3071 -1.3139
14544TIP3   OH265122   6.337   5.464  11.779 -0.0035  0.4700 -0.4332
14544TIP3    H165123   6.285   5.458  11.859  1.8727  1.9025  0.9987
14544TIP3    H265124   6.419   5.419  11.801  1.4174  2.7785 -0.7123
14545TIP3   OH265125   1.520   4.018  12.117  0.2419 -0.5939 -0.0824
14545TIP3    H165126   1.543   4.068  12.039 -0.1422  0.5930  0.5422
14545TIP3    H265127   1.545   3.928  12.096 -0.3831 -0.4049 -1.7808
14546TIP3   OH265128   1.631   2.059  16.160 -0.6248 -0.1247 -0.2824
14546TIP3    H165129   1.627   1.964  16.147 -0.1496 -0.1373 -0.3377
14546TIP3    H265130   1.654   2.069  16.253  1.4880 -0.1010 -0.7533
14547TIP3   OH265131   1.356   5.772  16.227  0.0612 -0.0196 -0.1407
14547TIP3    H165132   1.441   5.794  16.190  0.2315 -1.9843 -1.0533
14547TIP3    H265133   1.376   5.701  16.289 -0.7503  0.4426  0.6639
14548TIP3   OH265134   4.316   1.235  14.457  0.3885 -0.2460 -0.1474
14548TIP3    H165135   4.279   1.211  14.542  1.9561 -1.7943  0.1611
14548TIP3    H265136   4.324   1.331  14.460 -2.0391 -0.0062  0.3468
14549TIP3   OH265137   1.118   2.449   1.682 -0.3928  0.3975 -0.4441
14549TIP3    H165138   1.124   2.356   1.657 -0.4657  0.1662  0.3694
14549TIP3    H265139   1.028   2.459   1.714  0.4787 -0.0436  2.4293
14550TIP3   OH265140   6.827   0.395   2.355  0.0150  0.1990 -0.2199
14550TIP3    H165141   6.902   0.433   2.400 -1.3277  0.8653  1.6038
14550TIP3    H265142   6.808   0.315   2.403  0.0242 -0.3759 -1.1609
14551TIP3   OH265143   1.421   2.920   1.074 -0.2702  0.2113  0.3067
14551TIP3    H165144   1.367   2.872   1.136 -0.6801 -0.3255 -0.4603
14551TIP3    H265145   1.361   2.950   1.007  0.3455 -0.2112 -0.4500
14552TIP3   OH265146   5.193   5.126   1.341  0.2141  0.0021  0.4881
14552TIP3    H165147   5.125   5.171   1.391  0.3516  1.6990 -0.7411
14552TIP3    H265148   5.268   5.121   1.401  0.6185  2.6448  0.3324
14553TIP3   OH265149   4.770   6.764   5.499 -0.1435 -0.0044 -0.0866
14553TIP3    H165150   4.849   6.738   5.546 -1.1601 -2.1140  0.6091
14553TIP3    H265151   4.713   6.687   5.504 -1.2413  0.5218 -2.8003
14554TIP3   OH265152   3.675   6.333   6.156  0.1133 -0.2037  0.2635
14554TIP3    H165153   3.609   6.400   6.143 -1.5462 -1.5493  1.3079
14554TIP3    H265154   3.716   6.355   6.240  2.3639  1.6417 -1.1888
14555TIP3   OH265155   2.669   0.891  12.122 -0.0805  0.0739  0.2190
14555TIP3    H165156   2.581   0.863  12.097  0.1622  0.1981 -0.8363
14555TIP3    H265157   2.727   0.847  12.060  0.7475 -1.1323  1.7865
14556TIP3   OH265158   0.265   3.328  10.432  0.5532  0.2434  0.3640
14556TIP3    H165159   0.219   3.411  10.417 -0.8984 -0.1953  2.1555
14556TIP3    H265160   0.230   3.269  10.366  0.3868  0.5882  0.1385
14557TIP3   OH265161   6.062   3.802  12.876 -0.2453 -0.6219  0.7563
14557TIP3    H165162   6.025   3.888  12.898  0.0387 -0.3354  0.1529
14557TIP3    H265163   5.990   3.757  12.831  0.7033  0.7504 -2.4103
14558TIP3   OH265164   3.611   3.976  16.979  0.6465 -0.3440 -0.2811
14558TIP3    H165165   3.669   4.010  16.911  0.5139  1.4923  0.4588
14558TIP3    H265166   3.649   4.009  17.061 -1.9835  1.9418  0.1774
14559TIP3   OH265167   6.221   5.295   3.570  0.0121  0.3903 -0.0599
14559TIP3    H165168   6.258   5.373   3.613 -2.7266  1.8323 -0.1246
14559TIP3    H265169   6.129   5.317   3.555 -0.6890 -2.6103 -0.7805
14560TIP3   OH265170   6.090   3.165   0.785  0.1354 -0.8524  0.4312
14560TIP3    H165171   6.152   3.097   0.812 -0.7455 -1.9478 -0.1951
14560TIP3    H265172   6.079   3.219   0.863  1.2128 -1.1470  0.8066
14561TIP3   OH265173   5.698   2.619  16.372 -0.1055 -0.2416  0.1703
14561TIP3    H165174   5.730   2.653  16.288  0.9177 -0.5638  0.4086
14561TIP3    H265175   5.646   2.542  16.349 -1.1265  0.5560 -0.2629
14562TIP3   OH265176   0.947   4.949   5.282  0.7198 -0.3766  0.7397
14562TIP3    H165177   1.008   4.989   5.343  0.7701  0.3573  0.2317
14562TIP3    H265178   0.970   4.856   5.281  0.4930 -0.4606  2.0706
14563TIP3   OH265179   5.183   4.328  16.674  0.3858  0.0592 -0.0902
14563TIP3    H165180   5.235   4.344  16.753  0.0339  0.9204 -0.0192
14563TIP3    H265181   5.171   4.233  16.672  1.5687 -0.1074  0.1300
14564TIP3   OH265182   2.639   1.476   1.959 -0.2103  0.7422 -0.4626
14564TIP3    H165183   2.555   1.450   1.998  1.3056 -0.7350  2.1374
14564TIP3    H265184   2.667   1.552   2.010  0.3600  0.7499 -0.7745
14565TIP3   OH265185   1.992   6.577  11.906  0.1369 -0.0348  0.3261
14565TIP3    H165186   1.904   6.556  11.936  0.3968 -0.2111  0.9984
14565TIP3    H265187   2.016   6.504  11.849 -0.2693  0.1765 -0.1262
14566TIP3   OH265188   4.588   3.875  12.788 -1.0354  0.5331  0.5903
14566TIP3    H165189   4.552   3.910  12.869 -0.8992  0.1595  0.8133
14566TIP3    H265190   4.551   3.931  12.720 -1.9036  0.2665  0.8302
14567TIP3   OH265191   2.759   6.672   5.722  0.3627  0.4830 -0.4860
14567TIP3    H165192   2.668   6.662   5.752  0.9289 -0.2724  1.1092
14567TIP3    H265193   2.752   6.726   5.644 -1.8117 -2.5065 -2.6041
14568TIP3   OH265194   0.556   4.245   0.837  0.0857  0.3511  0.6145
14568TIP3    H165195   0.501   4.194   0.897  0.0766 -0.3946 -0.0173
14568TIP3    H265196   0.645   4.230   0.868  0.1041 -0.2809  0.2550
14569TIP3   OH265197   0.081   4.026  16.633 -0.2345 -0.2345  0.1665
14569TIP3    H165198   0.092   3.954  16.570 -1.1243  0.7960 -1.2440
14569TIP3    H265199   0.002   4.003  16.681 -0.7181 -0.0550 -0.5224
14570TIP3   OH265200   4.686   6.362  15.912 -0.2309  0.5500 -0.4251
14570TIP3    H165201   4.716   6.439  15.863  1.0297  0.2370 -0.1927
14570TIP3    H265202   4.594   6.379  15.930  0.1237  2.2407  0.0239
14571TIP3   OH265203   6.849   0.179   0.162  0.1207 -0.2442  0.0637
14571TIP3    H165204   6.794   0.143   0.092 -0.4493 -1.8318  1.2781
14571TIP3    H265205   6.801   0.256   0.194 -0.2723 -0.3026 -0.3773
14572TIP3   OH265206   1.295   2.379  16.707  0.5874 -1.0976 -0.3076
14572TIP3    H165207   1.326   2.311  16.647 -0.1708  0.6911 -2.9370
14572TIP3    H265208   1.201   2.385  16.690  0.3835 -0.4127  0.9609
14573TIP3   OH265209   3.156   2.026  14.655 -0.0268 -0.1950  0.3524
14573TIP3    H165210   3.095   1.986  14.717  1.5521 -1.6469  1.0398
14573TIP3    H265211   3.111   2.105  14.626 -1.6194 -0.4543  1.9092
14574TIP3   OH265212   5.285   5.810   5.096 -0.3458 -0.3567  0.1784
14574TIP3    H165213   5.336   5.889   5.078  1.0770 -1.3221 -0.1927
14574TIP3    H265214   5.350   5.748   5.130 -1.2494 -1.6899 -0.4905
14575TIP3   OH265215   0.397   3.731  12.079  0.0571 -0.2241  0.2657
14575TIP3    H165216   0.462   3.666  12.103 -0.2014  0.4310  3.0873
14575TIP3    H265217   0.344   3.742  12.158 -1.7592  1.2475 -1.0773
14576TIP3   OH265218   3.054   4.244   2.426 -0.2316 -0.0676 -0.1899
14576TIP3    H165219   3.109   4.204   2.494  0.6348 -0.7970 -1.2878
14576TIP3    H265220   3.001   4.172   2.392 -0.1328  0.1302 -0.7808
14577TIP3   OH265221   4.135   5.215  16.733  0.2265  0.7004  0.1517
14577TIP3    H165222   4.140   5.221  16.638  2.6179  0.7694  0.2162
14577TIP3    H265223   4.223   5.188  16.760 -0.7698 -0.7974  2.2526
14578TIP3   OH265224   0.678   1.789  10.276  0.3605 -0.1286 -0.4524
14578TIP3    H165225   0.751   1.787  10.214  2.4418  0.2999  1.8617
14578TIP3    H265226   0.629   1.868  10.253 -0.4076 -1.2527 -3.0463
14579TIP3   OH265227   1.541   6.625  14.008  0.6445 -0.2765 -0.0701
14579TIP3    H165228   1.455   6.637  14.049  0.1758 -0.4484 -0.9794
14579TIP3    H265229   1.596   6.693  14.047  0.1036 -0.1802  0.5358
14580TIP3   OH265230   6.495   0.987  16.112  0.0538  0.0121  0.6846
14580TIP3    H165231   6.590   0.998  16.114 -0.0634  1.5254 -0.4083
14580TIP3    H265232   6.462   1.072  16.085 -1.5828 -0.6853  0.3917
14581TIP3   OH265233   5.410   5.131   3.034  0.0681  0.4677  0.1282
14581TIP3    H165234   5.463   5.205   3.004 -1.4232  0.9756 -1.4050
14581TIP3    H265235   5.472   5.059   3.042  1.0463  1.0885 -1.3930
14582TIP3   OH265236   0.230   2.205  11.548  0.2548 -0.2237 -0.3808
14582TIP3    H165237   0.162   2.244  11.494  0.9885  0.9744 -0.4618
14582TIP3    H265238   0.197   2.211  11.638 -0.8654 -2.0153 -0.6101
14583TIP3   OH265239   1.628   1.620  16.368  0.0718  0.0984 -0.3370
14583TIP3    H165240   1.614   1.714  16.359  0.8497  0.3255  0.5774
14583TIP3    H265241   1.723   1.610  16.372 -0.0141 -0.6570  0.1439
14584TIP3   OH265242   0.500   1.881  16.045  0.2035 -0.2291 -0.1505
14584TIP3    H165243   0.475   1.974  16.046  0.1882 -0.2157  2.0050
14584TIP3    H265244   0.427   1.837  16.002  0.9159  0.8807 -2.6971
14585TIP3   OH265245   5.361   3.198  11.654  0.0424 -0.3388 -0.1610
14585TIP3    H165246   5.383   3.228  11.742  1.8403 -1.8094 -0.0383
14585TIP3    H265247   5.422   3.246  11.597  0.2383 -0.8466 -0.3796
14586TIP3   OH265248   4.747   3.757   2.489 -0.5841  0.6194 -0.5478
14586TIP3    H165249   4.659   3.787   2.471 -2.3054 -3.3138  0.2527
14586TIP3    H265250   4.759   3.772   2.583 -0.5095  0.8826 -0.5989
14587TIP3   OH265251   6.375   1.983   5.906  0.5413  0.1419  0.6925
14587TIP3    H165252   6.466   2.009   5.922  0.7755 -1.3772  2.1631
14587TIP3    H265253   6.378   1.887   5.906 -1.1011  0.0660  1.0402
14588TIP3   OH265254   0.773   2.799  13.819 -0.3293  0.6948  0.1992
14588TIP3    H165255   0.776   2.777  13.726  0.4261  2.6296 -0.2824
14588TIP3    H265256   0.845   2.750  13.858  0.9278  1.7387 -0.7206
14589TIP3   OH265257   0.814   0.847   0.906 -0.1876 -0.5974 -0.1205
14589TIP3    H165258   0.885   0.802   0.952 -3.1768 -1.1899  4.5933
14589TIP3    H265259   0.768   0.778   0.859  0.1684 -0.8969 -0.0358
14590TIP3   OH265260   5.969   1.709   0.035  0.2330  0.7006  0.4570
14590TIP3    H165261   5.882   1.745   0.017 -0.8624 -1.9708 -0.0478
14590TIP3    H265262   5.952   1.620   0.066  2.7879  0.3021  0.8999
14591TIP3   OH265263   3.848   0.732   4.194  0.4412 -0.4210 -0.3160
14591TIP3    H165264   3.822   0.794   4.262 -0.6682 -0.2137 -0.8984
14591TIP3    H265265   3.928   0.767   4.157  0.0297  0.4654 -0.3765
14592TIP3   OH265266   0.100   3.238   5.807 -0.2063 -0.5373  0.3073
14592TIP3    H165267   0.164   3.192   5.754 -0.1016  1.0164 -0.9801
14592TIP3    H265268   0.142   3.250   5.892  0.7128 -0.6614 -0.1284
14593TIP3   OH265269   0.242   0.261   3.253 -0.0075  0.4353  0.2290
14593TIP3    H165270   0.195   0.342   3.234  0.4298  0.4986 -0.6107
14593TIP3    H265271   0.332   0.288   3.267 -0.3970  0.4949  3.2276
14594TIP3   OH265272   0.400   4.984  13.727 -0.6369  0.2526 -0.2970
14594TIP3    H165273   0.386   5.078  13.727  0.5054  0.4631 -2.0592
14594TIP3    H265274   0.313   4.946  13.742 -1.0406  1.5474  0.8361
14595TIP3   OH265275   2.944   6.227   5.570  0.0172  0.0317 -0.1415
14595TIP3    H165276   2.946   6.267   5.484  0.2628 -2.0138 -1.1523
14595TIP3    H265277   2.854   6.241   5.601 -0.4056 -0.2102 -1.2373
14596TIP3   OH265278   2.539   4.261  12.245 -0.1937  0.4438 -0.3504
14596TIP3    H165279   2.459   4.212  12.226 -0.6453  1.1984 -0.4530
14596TIP3    H265280   2.520   4.350  12.214  1.1558  0.3500 -1.5909
14597TIP3   OH265281   1.452   1.415  16.290 -0.0013 -0.1025 -0.4602
14597TIP3    H165282   1.528   1.468  16.313 -0.4647 -0.6534  2.7964
14597TIP3    H265283   1.383   1.445  16.349 -1.5694 -1.3942 -1.5417
14598TIP3   OH265284   3.474   1.917  16.150 -0.6500 -0.5931  0.2948
14598TIP3    H165285   3.410   1.978  16.187 -0.4398 -1.0088  1.4013
14598TIP3    H265286   3.503   1.957  16.069 -0.7524  0.6131  0.8422
14599TIP3   OH265287   4.763   3.730  15.580  0.0911 -0.3263 -0.2079
14599TIP3    H165288   4.701   3.693  15.518  1.4577 -1.9380 -0.6883
14599TIP3    H265289   4.714   3.735  15.662 -1.5249  1.1801 -1.2061
14600TIP3   OH265290   5.106   3.740   0.044  0.1032  0.1163 -0.5916
14600TIP3    H165291   5.022   3.695   0.039 -0.3830  0.8622  0.4528
14600TIP3    H265292   5.091   3.824   0.001  1.1153 -0.7903 -2.8936
14601TIP3   OH265293   1.039   3.730  11.370  0.6227  0.6259 -0.8192
14601TIP3    H165294   1.080   3.645  11.385 -1.9566 -0.3976  1.1430
14601TIP3    H265295   1.081   3.788  11.434  0.4007  0.0957 -0.1788
14602TIP3   OH265296   3.145   0.438   5.589  0.0994  0.6300  0.1586
14602TIP3    H165297   3.185   0.442   5.502 -0.2651  0.7813 -0.0033
14602TIP3    H265298   3.207   0.483   5.646  0.5604  0.1181  0.0612
14603TIP3   OH265299   0.772   2.219  15.202  0.5583  0.4652 -0.0524
14603TIP3    H165300   0.731   2.173  15.129 -2.4552  3.3380 -0.4237
14603TIP3    H265301   0.720   2.195  15.278  0.3325  1.4708  0.1329
14604TIP3   OH265302   6.828   6.215  13.713  0.1070  0.8668  0.3308
14604TIP3    H165303   6.881   6.197  13.791  0.9284 -1.2777 -0.6631
14604TIP3    H265304   6.889   6.254  13.651  0.7201 -1.9248 -0.9424
14605TIP3   OH265305   2.456   1.234   0.503  0.3213 -0.5015  0.1012
14605TIP3    H165306   2.420   1.147   0.486 -0.2680  0.2818 -3.3374
14605TIP3    H265307   2.548   1.227   0.476  0.6873 -0.4213  1.2880
14606TIP3   OH265308   4.647   4.819   4.355 -0.1893  0.2379 -0.0972
14606TIP3    H165309   4.664   4.754   4.423  2.6057  0.2367 -0.6813
14606TIP3    H265310   4.667   4.903   4.396  1.6030  0.2310 -0.8605
14607TIP3   OH265311   3.539   3.619   4.750 -0.4911 -0.2379  0.2271
14607TIP3    H165312   3.455   3.621   4.795 -1.0584  1.6435 -0.7951
14607TIP3    H265313   3.539   3.536   4.703 -0.8910 -1.1582  1.7725
14608TIP3   OH265314   5.349   2.482  11.692 -0.3879  0.1706  0.1514
14608TIP3    H165315   5.270   2.533  11.672 -0.3159 -0.5293 -2.2963
14608TIP3    H265316   5.316   2.395  11.714 -0.3773  0.4179  1.1523
14609TIP3   OH265317   1.104   6.561  10.907 -0.4426  0.6068  0.4095
14609TIP3    H165318   1.035   6.594  10.965  0.3890  0.0339  1.7947
14609TIP3    H265319   1.126   6.476  10.944 -2.0020 -1.2679 -2.5968
14610TIP3   OH265320   6.422   0.016   4.951 -0.5664  0.1356 -0.4291
14610TIP3    H165321   6.441   0.110   4.953 -0.1176  0.1872 -3.0018
14610TIP3    H265322   6.477  -0.017   4.880 -1.2646 -1.9533 -0.0588
14611TIP3   OH265323   1.797   1.687   5.300  0.0999  0.7057  0.2492
14611TIP3    H165324   1.765   1.669   5.388  1.7495 -0.0422  0.7294
14611TIP3    H265325   1.883   1.645   5.296  0.1731  0.9242 -1.6404
14612TIP3   OH265326   0.232   4.659  11.209  0.7225  0.3613  0.2440
14612TIP3    H165327   0.173   4.725  11.246  1.2218  1.1088 -0.2667
14612TIP3    H265328   0.174   4.600  11.160  0.1406 -0.2335  1.6130
14613TIP3   OH265329   4.627   4.247  13.303 -0.0198 -0.1991 -0.3381
14613TIP3    H165330   4.579   4.169  13.330 -2.4660  1.1943 -0.3637
14613TIP3    H265331   4.573   4.285  13.234  1.1821  1.4366 -0.4223
14614TIP3   OH265332   3.995   4.772   0.332  0.5282  0.2861 -0.3961
14614TIP3    H165333   3.976   4.849   0.278  0.4644  0.3463 -0.2881
14614TIP3    H265334   4.024   4.706   0.269 -0.2103  0.1327 -0.5820
14615TIP3   OH265335   0.300   2.476  15.153  0.0014 -0.3412 -0.1923
14615TIP3    H165336   0.282   2.565  15.124 -3.0834 -0.8492 -0.2470
14615TIP3    H265337   0.386   2.480  15.195 -0.0357  2.6217 -0.2191
14616TIP3   OH265338   3.661   3.365  12.746  0.5985 -0.0507  0.3791
14616TIP3    H165339   3.567   3.346  12.734 -0.1709  1.3285  3.3144
14616TIP3    H265340   3.704   3.281  12.731 -1.2119 -0.9857  0.0570
14617TIP3   OH265341   6.196   0.762  11.293  0.8280 -0.3968 -0.4295
14617TIP3    H165342   6.153   0.831  11.242 -1.0963 -1.7868 -0.8036
14617TIP3    H265343   6.277   0.802  11.326 -0.5807  2.2734  0.0106
14618TIP3   OH265344   5.995   4.780  15.299  0.0605 -0.1194  0.5310
14618TIP3    H165345   6.025   4.815  15.215  0.4945  0.2734  0.8485
14618TIP3    H265346   6.068   4.794  15.359 -0.5053  0.2556  1.1549
14619TIP3   OH265347   3.428   6.238   0.771 -0.2714 -0.8201 -0.2285
14619TIP3    H165348   3.522   6.243   0.753  0.4960 -1.8004  2.8002
14619TIP3    H265349   3.415   6.299   0.843 -1.2516 -2.9310  1.4905
14620TIP3   OH265350   3.570   1.788   3.775 -0.6077 -0.0838 -0.1792
14620TIP3    H165351   3.613   1.871   3.798  1.3869 -0.7982 -1.0522
14620TIP3    H265352   3.519   1.765   3.852  0.9090  0.6657  1.1201
14621TIP3   OH265353   2.060   6.079   2.384  0.7834 -0.7907 -0.1050
14621TIP3    H165354   2.011   6.141   2.330  2.6069  1.6893  0.9022
14621TIP3    H265355   1.998   6.054   2.453  0.2949  0.7249  0.0417
14622TIP3   OH265356   4.465   4.589  11.410 -0.0400 -0.6610  0.5295
14622TIP3    H165357   4.423   4.664  11.366  0.4738 -1.6350 -1.7625
14622TIP3    H265358   4.549   4.624  11.441  0.9329 -0.5598 -1.9429
14623TIP3   OH265359   2.607   6.411  12.037 -0.6236  0.0924 -0.2279
14623TIP3    H165360   2.637   6.339  11.982 -2.8412  0.0809 -1.5529
14623TIP3    H265361   2.542   6.456  11.984  0.1537  2.6566  0.8604
14624TIP3   OH265362   5.484   4.469   6.289  0.3804 -0.5589 -0.1581
14624TIP3    H165363   5.419   4.426   6.233  0.1842 -1.5728  0.8270
14624TIP3    H265364   5.447   4.465   6.377  0.0870  2.1622 -0.0721
14625TIP3   OH265365   4.941   6.451  16.042  0.6232  0.2314  0.4570
14625TIP3    H165366   4.854   6.444  16.002  0.9738 -0.3157 -0.2269
14625TIP3    H265367   4.934   6.525  16.102 -0.6885 -0.5492  1.3373
14626TIP3   OH265368   1.803   6.048   2.501  0.4986 -0.4331 -0.4026
14626TIP3    H165369   1.807   6.007   2.588 -0.2054  0.0003 -0.1501
14626TIP3    H265370   1.738   6.118   2.512  1.2136  0.3276 -0.9960
14627TIP3   OH265371   0.433   2.007   2.139 -0.0237  0.3676 -0.3073
14627TIP3    H165372   0.401   1.937   2.196 -0.4227  1.1143  0.3999
14627TIP3    H265373   0.353   2.050   2.107  0.2202  1.5305  0.5741
14628TIP3   OH265374   6.258   3.805  12.125 -0.0764  0.0094 -0.0039
14628TIP3    H165375   6.169   3.838  12.114  0.0544  0.6320  0.7425
14628TIP3    H265376   6.251   3.744  12.199  0.2328  0.5334  0.4608
14629TIP3   OH265377   6.432   4.868  16.720 -0.3802 -0.0443  0.3303
14629TIP3    H165378   6.346   4.847  16.684 -0.5305  0.3954  0.4192
14629TIP3    H265379   6.474   4.922  16.652 -0.0067 -0.6162  0.1062
14630TIP3   OH265380   3.838   0.785  15.534  0.6109 -0.1245 -0.3569
14630TIP3    H165381   3.801   0.734  15.462  0.8301 -0.9328  0.0940
14630TIP3    H265382   3.762   0.819  15.581  0.4112 -1.3963  0.2934
14631TIP3   OH265383   1.754   2.991   2.715  0.0820  0.8352 -0.0395
14631TIP3    H165384   1.798   3.070   2.683 -1.1612  1.3042 -0.6347
14631TIP3    H265385   1.731   2.943   2.636  1.4396 -0.5025  0.3290
14632TIP3   OH265386   2.539   0.989   5.444  0.3045  0.4822  0.0893
14632TIP3    H165387   2.588   1.036   5.511  1.1059  0.3735 -0.4133
14632TIP3    H265388   2.447   1.000   5.470  0.6494 -1.3951  2.4312
14633TIP3   OH265389   5.867   3.947   3.062 -0.6606 -0.2118 -0.0845
14633TIP3    H165390   5.912   4.013   3.116  0.2010 -0.1620 -0.8365
14633TIP3    H265391   5.774   3.965   3.074 -0.4545  0.5308  0.4707
14634TIP3   OH265392   3.145   6.454  14.887 -0.1857 -0.1925  1.0692
14634TIP3    H165393   3.118   6.378  14.835 -0.0865 -0.0162  0.7544
14634TIP3    H265394   3.221   6.488  14.841 -0.1172 -0.0129  1.3165
14635TIP3   OH265395   4.242   3.696  12.967 -0.0686  0.0675  0.0685
14635TIP3    H165396   4.329   3.679  12.932  0.2703  0.8285  0.5332
14635TIP3    H265397   4.211   3.610  12.995  0.6165 -0.1735  0.1030
14636TIP3   OH265398   1.311   3.003   4.503 -0.0542  0.0746 -0.7759
14636TIP3    H165399   1.257   3.028   4.579 -0.3904 -1.6949 -0.3987
14636TIP3    H265400   1.334   2.912   4.519 -0.0209 -0.3027 -2.7544
14637TIP3   OH265401   4.564   3.204   5.191 -0.1003 -0.2430  0.5737
14637TIP3    H165402   4.625   3.267   5.229  0.8096 -1.0862  0.5667
14637TIP3    H265403   4.573   3.216   5.097 -1.4996  1.0502  0.5718
14638TIP3   OH265404   6.723   1.969   3.866 -0.3480 -0.1577  0.0945
14638TIP3    H165405   6.722   2.064   3.878 -0.8184 -0.2222  0.5964
14638TIP3    H265406   6.811   1.943   3.893 -0.4050  0.0673  0.5028
14639TIP3   OH265407   1.034   1.055  11.341  0.2180  0.1890  0.5702
14639TIP3    H165408   1.031   1.038  11.247  0.7204  0.0816  0.5742
14639TIP3    H265409   1.095   1.127  11.351  3.2076 -2.2349  1.1302
14640TIP3   OH265410   6.559   4.619  16.349  0.0712  0.0088  0.0315
14640TIP3    H165411   6.633   4.565  16.376 -0.4847 -1.7853 -1.7473
14640TIP3    H265412   6.516   4.567  16.280 -1.6477  1.8939 -0.4027
14641TIP3   OH265413   0.447   3.443  12.792  0.0568  0.2267 -0.0493
14641TIP3    H165414   0.438   3.401  12.878  0.5845 -0.3680 -0.2767
14641TIP3    H265415   0.533   3.416  12.761  0.6315  1.8759 -0.0083
14642TIP3   OH265416   4.657   6.136   6.693 -0.2601 -0.3216 -0.0919
14642TIP3    H165417   4.722   6.205   6.704  0.4069 -1.1826  2.0035
14642TIP3    H265418   4.704   6.055   6.712 -1.4619 -1.1833 -0.6225
14643TIP3   OH265419   0.448   4.610   0.327 -0.2949 -0.1890  0.6065
14643TIP3    H165420   0.520   4.550   0.306 -2.3574 -1.8869 -2.3329
14643TIP3    H265421   0.484   4.697   0.315  1.2170 -0.9961 -1.1665
14644TIP3   OH265422   4.790   0.408  10.954 -0.0501 -0.1124 -0.2345
14644TIP3    H165423   4.879   0.384  10.928 -0.2708 -1.5709  0.2397
14644TIP3    H265424   4.744   0.324  10.962 -1.0856  0.5205  0.8620
14645TIP3   OH265425   6.362   0.907  10.736 -0.6378  0.1663 -0.1233
14645TIP3    H165426   6.284   0.852  10.730 -0.9397  0.1428  2.6774
14645TIP3    H265427   6.328   0.995  10.751 -0.1107  0.7095 -1.8850
14646TIP3   OH265428   3.750   6.017   0.056 -0.1805  0.2901  0.5632
14646TIP3    H165429   3.715   6.094   0.100  0.0127  0.9099 -0.3294
14646TIP3    H265430   3.823   5.989   0.111 -1.3465 -0.3573  1.8480
14647TIP3   OH265431   4.256   3.972  16.214 -0.6779  0.0471  0.2398
14647TIP3    H165432   4.261   3.966  16.309  0.4649 -3.2759  0.1102
14647TIP3    H265433   4.300   4.053  16.192 -1.0349  0.9150  2.5255
14648TIP3   OH265434   5.536   2.620  14.205 -0.4960  0.2197 -0.4249
14648TIP3    H165435   5.626   2.599  14.228 -0.3914 -0.4751 -1.3789
14648TIP3    H265436   5.492   2.535  14.198 -1.4625  0.5844  0.8874
14649TIP3   OH265437   3.749   3.690   1.120  0.2239  0.4539  0.1228
14649TIP3    H165438   3.824   3.630   1.124 -0.2154 -0.0645  0.8304
14649TIP3    H265439   3.681   3.645   1.169 -0.4117  1.1268 -0.1369
14650TIP3   OH265440   0.308   6.164   3.469  0.0449  0.0282  0.0869
14650TIP3    H165441   0.305   6.214   3.387  0.1886  1.8494  1.1234
14650TIP3    H265442   0.390   6.115   3.464  0.0741  0.1565 -0.8519
14651TIP3   OH265443   2.386   4.687  11.764  0.0281  0.2488 -0.1029
14651TIP3    H165444   2.349   4.665  11.679 -0.6531  0.2427  0.1858
14651TIP3    H265445   2.343   4.768  11.789  1.0684  0.8679 -0.2676
14652TIP3   OH265446   6.766   2.947   1.592 -0.0158  0.0477  0.3726
14652TIP3    H165447   6.736   3.029   1.552 -0.2599  0.0736  0.6051
14652TIP3    H265448   6.831   2.975   1.657 -0.8740  0.1466  1.2002
14653TIP3   OH265449   0.868   4.944  14.719 -0.1056 -0.1235 -0.8184
14653TIP3    H165450   0.804   4.929  14.650 -1.1704 -0.6899  0.2498
14653TIP3    H265451   0.826   4.910  14.798  1.9301 -1.4750 -0.2408
14654TIP3   OH265452   6.384   5.852  16.916 -0.3011  0.3626 -0.3032
14654TIP3    H165453   6.346   5.817  16.835  0.0556 -1.7240  0.3652
14654TIP3    H265454   6.311   5.852  16.978  0.3024 -2.0782  0.5137
14655TIP3   OH265455   4.894   0.145   5.825  0.4317 -0.5247  0.1280
14655TIP3    H165456   4.827   0.153   5.757 -1.6503  0.1991  2.1138
14655TIP3    H265457   4.877   0.061   5.867  0.6814 -0.2918  0.7192
14656TIP3   OH265458   6.583   3.853  15.081  0.3422  0.5257  0.4408
14656TIP3    H165459   6.674   3.835  15.105  0.3532  0.4231  0.3254
14656TIP3    H265460   6.583   3.943  15.051  0.3516  0.6159  0.7098
14657TIP3   OH265461   2.742   1.154  12.175 -0.0909  0.2944  0.1363
14657TIP3    H165462   2.810   1.175  12.111  0.1983 -0.3133  0.2492
14657TIP3    H265463   2.716   1.064  12.155 -1.8428  0.9446 -0.8187
14658TIP3   OH265464   4.519   0.391   5.036 -0.0340  0.0731 -0.5261
14658TIP3    H165465   4.424   0.385   5.028  0.0708 -0.9258 -1.2394
14658TIP3    H265466   4.537   0.356   5.123 -0.4351  1.9753  0.3754
14659TIP3   OH265467   0.655   3.442  14.928 -0.3669  0.1857  0.3057
14659TIP3    H165468   0.690   3.405  14.847  1.8679  1.5743  0.5500
14659TIP3    H265469   0.658   3.537  14.914 -3.7391  0.4558  0.5733
14660TIP3   OH265470   3.644   0.166   4.973  0.3012 -0.0364 -0.3327
14660TIP3    H165471   3.613   0.137   5.059  0.2472 -0.7542 -0.5914
14660TIP3    H265472   3.683   0.252   4.989  0.9913 -0.4975  0.5527
14661TIP3   OH265473   3.720   3.835  12.069  0.4334  0.0082  0.5280
14661TIP3    H165474   3.693   3.744  12.060 -0.4749  0.1664  1.4104
14661TIP3    H265475   3.729   3.848  12.163  0.9050  0.7315  0.3898
14662TIP3   OH265476   1.685   6.048  16.039  0.4903 -0.1251 -0.8019
14662TIP3    H165477   1.656   6.015  15.954  0.4228 -1.4877 -0.2629
14662TIP3    H265478   1.618   6.019  16.101  0.7826  0.4439 -0.2017
14663TIP3   OH265479   3.349   1.366  16.688  0.2932 -0.3906 -0.0991
14663TIP3    H165480   3.291   1.379  16.612  1.2309  1.6310 -0.5364
14663TIP3    H265481   3.372   1.273  16.684 -0.4512 -0.5554 -1.7293
14664TIP3   OH265482   3.490   0.021   5.518 -0.1305 -0.0495  0.2654
14664TIP3    H165483   3.495  -0.074   5.510  0.4076  0.1291 -2.3428
14664TIP3    H265484   3.399   0.043   5.498 -0.1373  0.0321  0.3823
14665TIP3   OH265485   3.223   0.642   0.036 -0.1450  0.1533  0.2423
14665TIP3    H165486   3.254   0.662   0.124 -0.2103  0.9851  0.0847
14665TIP3    H265487   3.303   0.630  -0.015 -0.0975  0.6868  0.1914
14666TIP3   OH265488   0.075   0.843   4.368 -0.0409  0.3701  0.6564
14666TIP3    H165489   0.115   0.827   4.453 -1.7842 -1.6306  1.1639
14666TIP3    H265490  -0.017   0.820   4.379 -0.4647  0.7352 -1.5917
14667TIP3   OH265491   1.626   6.332   6.246 -0.0976  0.3790  0.2439
14667TIP3    H165492   1.669   6.345   6.161 -3.0749 -2.2599 -1.9213
14667TIP3    H265493   1.556   6.398   6.247 -1.1193 -0.6720 -0.2070
14668TIP3   OH265494   1.003   4.786   1.496  0.2257  0.6151  0.1160
14668TIP3    H165495   0.971   4.778   1.586  2.8331 -2.2104  0.9332
14668TIP3    H265496   1.029   4.697   1.471  1.7166  1.6906 -2.6267
14669TIP3   OH265497   6.699   5.520   4.438 -0.1019 -0.0674  0.5178
14669TIP3    H165498   6.742   5.604   4.452  0.4971 -0.2373 -0.2333
14669TIP3    H265499   6.671   5.493   4.526 -0.9175  1.2151  0.6798
14670TIP3   OH265500   2.876   1.173  11.850 -0.0944  0.4017  0.4466
14670TIP3    H165501   2.928   1.093  11.841  0.4872  0.7717  0.4758
14670TIP3    H265502   2.785   1.143  11.847  0.1157 -0.2235  0.1219
14671TIP3   OH265503   5.723   5.521   2.946 -0.1834  0.2926  0.5705
14671TIP3    H165504   5.681   5.453   2.893  1.1875 -0.1542  0.0275
14671TIP3    H265505   5.715   5.601   2.893  1.4916 -0.2192 -0.5377
14672TIP3   OH265506   5.408   0.795   5.225 -0.1936  0.0113  0.0536
14672TIP3    H165507   5.474   0.813   5.158 -0.6520  1.0101 -0.1454
14672TIP3    H265508   5.425   0.705   5.251 -0.4492 -0.6516 -1.9224
14673TIP3   OH265509   5.264   5.291  16.941 -0.4937 -0.0156 -0.3270
14673TIP3    H165510   5.333   5.225  16.941 -0.5956 -0.1253 -0.5854
14673TIP3    H265511   5.310   5.374  16.931 -0.0691  0.3064  3.0985
14674TIP3   OH265512   1.758   5.930  12.529  0.0431  0.1074 -1.0032
14674TIP3    H165513   1.744   5.983  12.607  0.9238  2.0188 -2.0690
14674TIP3    H265514   1.678   5.940  12.478 -0.4245 -0.9242 -0.5076
14675TIP3   OH265515   0.845   2.080   3.744 -0.0045  0.2181  0.5067
14675TIP3    H165516   0.805   2.158   3.704  0.2319 -1.3386 -3.1369
14675TIP3    H265517   0.938   2.090   3.726  0.6563  0.8851  3.6191
14676TIP3   OH265518   5.903   6.273  12.782  0.3221  0.7138 -0.2060
14676TIP3    H165519   5.888   6.239  12.870  1.9785  0.9103  0.1839
14676TIP3    H265520   5.900   6.196  12.725 -0.3672  0.5368  0.0571
14677TIP3   OH265521   0.262   0.406  11.011 -0.1634 -0.2069  0.0163
14677TIP3    H165522   0.275   0.490  11.054  0.1870  1.0350 -2.3452
14677TIP3    H265523   0.240   0.428  10.921 -3.2782 -2.5884 -0.0054
14678TIP3   OH265524   5.049   3.361  14.375  0.4522 -0.3276  0.0948
14678TIP3    H165525   5.054   3.271  14.344  0.5191  0.0877 -1.1643
14678TIP3    H265526   5.015   3.410  14.301  2.0250  0.9568  0.1649
14679TIP3   OH265527   2.806   5.555   0.117  0.3132  0.3606  0.1798
14679TIP3    H165528   2.802   5.523   0.027 -1.2932 -1.3119  0.7876
14679TIP3    H265529   2.764   5.641   0.113 -0.4555 -0.0308 -0.5540
14680TIP3   OH265530   0.372   3.093  11.039  1.1362  0.1528 -0.3709
14680TIP3    H165531   0.327   3.105  11.123  0.9151  1.9491 -0.6877
14680TIP3    H265532   0.384   3.183  11.006 -1.0515 -0.5215 -3.4476
14681TIP3   OH265533   3.691   5.151  15.435  0.2783  0.6239 -0.5773
14681TIP3    H165534   3.767   5.094  15.448 -0.5884 -0.1622  1.3558
14681TIP3    H265535   3.728   5.233  15.402  1.8527 -0.0511 -0.5725
14682TIP3   OH265536   3.802   1.278  14.517 -0.1592 -0.3513  0.0796
14682TIP3    H165537   3.761   1.291  14.431  0.2551 -0.0499 -0.0737
14682TIP3    H265538   3.892   1.305  14.505  0.1786 -1.3192  0.3403
14683TIP3   OH265539   0.414   6.778   1.029  0.1201 -0.2750 -0.0877
14683TIP3    H165540   0.424   6.755   0.937  1.6096  0.2940 -0.0975
14683TIP3    H265541   0.467   6.714   1.076  0.1675  0.0463  0.3012
14684TIP3   OH265542   5.595   3.496  13.929 -0.5687 -0.0362  0.1050
14684TIP3    H165543   5.671   3.450  13.965 -0.2897  1.9720  2.3068
14684TIP3    H265544   5.620   3.588  13.930 -2.0209  0.4405 -1.8104
14685TIP3   OH265545   5.468   2.344  17.005  1.0323  0.4894  0.0589
14685TIP3    H165546   5.501   2.432  17.020  1.0782  0.6420 -0.8544
14685TIP3    H265547   5.512   2.316  16.925  0.3710 -0.0329 -0.1311
14686TIP3   OH265548   1.969   1.267   5.816  0.6021  0.2865  0.1984
14686TIP3    H165549   1.899   1.228   5.764 -0.2012  2.6800 -0.6720
14686TIP3    H265550   2.039   1.284   5.752  1.2667 -0.4371  0.7134
14687TIP3   OH265551   5.973   2.505  13.228  0.2510  0.4337 -0.3487
14687TIP3    H165552   5.931   2.544  13.305 -0.6784 -0.6318 -0.3046
14687TIP3    H265553   6.016   2.426  13.262  0.4684  0.3608 -0.7856
14688TIP3   OH265554   4.369   5.062  12.394  0.3329 -0.4128  0.0062
14688TIP3    H165555   4.292   5.023  12.351  0.6663 -0.2228 -0.7799
14688TIP3    H265556   4.356   5.043  12.487  0.8445 -3.1324 -0.3704
14689TIP3   OH265557   3.483   5.354  11.843 -0.4805  0.7773  0.5642
14689TIP3    H165558   3.444   5.272  11.872 -0.9852  0.1130 -1.7613
14689TIP3    H265559   3.528   5.331  11.762  0.7000  2.5052  0.6861
14690TIP3   OH265560   4.705   5.488   4.459 -0.3592 -0.0820 -0.0072
14690TIP3    H165561   4.678   5.456   4.373  1.5797 -0.3929 -0.5370
14690TIP3    H265562   4.634   5.546   4.486 -1.9625 -1.5377 -0.8972
14691TIP3   OH265563   4.501   3.897  16.555  0.5155 -0.5401 -0.0977
14691TIP3    H165564   4.468   3.833  16.492  0.2246  0.2518 -0.7631
14691TIP3    H265565   4.467   3.868  16.639 -1.2075 -0.2174 -0.6459
14692TIP3   OH265566   0.898   4.224  11.426  0.0784 -0.1219  0.3899
14692TIP3    H165567   0.885   4.293  11.491  1.3402  0.2870  0.2439
14692TIP3    H265568   0.993   4.220  11.415 -0.1159  0.4444 -2.0865
14693TIP3   OH265569   1.963   0.561  16.166  0.0703 -0.4000 -0.3216
14693TIP3    H165570   2.027   0.595  16.228  0.5137 -1.0570 -0.4123
14693TIP3    H265571   1.924   0.486  16.209  0.6929 -1.1274 -1.0046
14694TIP3   OH265572   4.852   0.014   1.607  0.3878 -0.2002 -0.0464
14694TIP3    H165573   4.865   0.022   1.701 -1.3621 -0.6476  0.2753
14694TIP3    H265574   4.893   0.092   1.571 -1.5774  1.6290  1.4124
14695TIP3   OH265575   5.116   6.349  16.961 -0.2557  0.5198  0.6103
14695TIP3    H165576   5.028   6.380  16.942 -0.6866 -1.4607 -0.8158
14695TIP3    H265577   5.172   6.394  16.898 -0.2039  1.6943  1.4461
14696TIP3   OH265578   0.293   5.897  15.337 -0.0118 -0.0093 -0.0619
14696TIP3    H165579   0.347   5.845  15.278 -0.9748 -2.2518  0.9352
14696TIP3    H265580   0.232   5.943  15.279  0.6644 -0.2198 -0.9600
14697TIP3   OH265581   4.936   3.482   4.829  0.1933 -0.1028  0.6747
14697TIP3    H165582   4.937   3.421   4.902  1.0853 -0.3260  0.4926
14697TIP3    H265583   4.966   3.431   4.754  0.9067  0.5396  0.5096
14698TIP3   OH265584   0.352   6.429   2.628  0.3817  0.1173 -0.2661
14698TIP3    H165585   0.366   6.511   2.581 -1.3765 -0.4596 -1.9456
14698TIP3    H265586   0.257   6.424   2.641  0.4497 -1.5856 -0.0979
14699TIP3   OH265587   2.458   2.141   2.275 -0.4003 -0.4326 -0.6026
14699TIP3    H165588   2.413   2.223   2.293  0.5546 -0.1052  0.4088
14699TIP3    H265589   2.542   2.167   2.238 -0.4730 -0.9944 -1.1868
14700TIP3   OH265590   1.258   5.148  11.565 -0.7258 -0.5526  0.1239
14700TIP3    H165591   1.178   5.173  11.610 -0.9359  0.4436 -0.7701
14700TIP3    H265592   1.316   5.116  11.635 -0.7985  1.5742  1.2403
14701TIP3   OH265593   3.711   4.056  11.244 -0.8187 -0.0217 -0.4047
14701TIP3    H165594   3.750   4.139  11.270  0.8020 -1.4634  2.2108
14701TIP3    H265595   3.714   4.056  11.148  0.9170  2.1080 -0.4142
14702TIP3   OH265596   1.149   4.129   0.017  0.4825  0.0799 -0.4069
14702TIP3    H165597   1.138   4.165   0.105  0.6757 -1.1770  0.1526
14702TIP3    H265598   1.155   4.206  -0.040 -3.9685  1.0033  0.0429
14703TIP3   OH265599   6.187   0.582   0.300  0.4989 -0.4492 -0.6936
14703TIP3    H165600   6.208   0.490   0.286  1.1919 -0.4068  0.0546
14703TIP3    H265601   6.173   0.590   0.394  1.4924  0.4285 -0.6101
14704TIP3   OH265602   1.243   5.805   2.752  0.2275 -0.5032  0.0606
14704TIP3    H165603   1.174   5.742   2.774  0.6663 -0.8294  0.5405
14704TIP3    H265604   1.254   5.857   2.832 -1.2013  1.2385 -0.8073
14705TIP3   OH265605   1.160   0.745   3.052 -0.7239 -0.2566  0.1066
14705TIP3    H165606   1.163   0.817   3.116 -1.1740  0.0477 -0.2077
14705TIP3    H265607   1.201   0.781   2.974  0.0822 -0.7221  0.3028
14706TIP3   OH265608   5.868   1.432  12.288  0.1608 -0.1385 -0.3874
14706TIP3    H165609   5.867   1.337  12.279 -0.6708 -0.2235  0.5536
14706TIP3    H265610   5.930   1.450  12.359  0.9979  0.0979 -1.1458
14707TIP3   OH265611   6.153   3.691   3.883  0.8181  0.7345  0.2024
14707TIP3    H165612   6.243   3.712   3.859  1.7303 -1.8151  1.1488
14707TIP3    H265613   6.112   3.663   3.801  1.8394 -1.1090  0.2881
14708TIP3   OH265614   3.678   3.399  14.365 -0.5036  0.3284 -0.0089
14708TIP3    H165615   3.585   3.417  14.376 -0.2042  2.4538 -0.4899
14708TIP3    H265616   3.716   3.483  14.339  1.0452 -1.1094 -2.9185
14709TIP3   OH265617   5.444   4.801  13.068 -0.0778 -0.2109  0.3784
14709TIP3    H165618   5.535   4.788  13.096 -0.4107 -0.0568  1.5870
14709TIP3    H265619   5.442   4.768  12.978  1.1481 -0.3009  0.3637
14710TIP3   OH265620   5.626   4.946   4.405  0.0251 -0.5037  0.2219
14710TIP3    H165621   5.566   5.015   4.432  0.2600  0.3445 -1.2887
14710TIP3    H265622   5.630   4.887   4.480  0.9123  1.8483  2.1805
14711TIP3   OH265623   5.387   1.582  12.565  0.4239 -0.0914 -0.0478
14711TIP3    H165624   5.466   1.615  12.523 -0.9642  2.1377 -1.0983
14711TIP3    H265625   5.378   1.634  12.645 -0.6576  0.6688 -0.6334
14712TIP3   OH265626   4.875   5.623   1.572  0.1260 -0.0292  0.2687
14712TIP3    H165627   4.882   5.696   1.511  1.2096  0.9195  1.4760
14712TIP3    H265628   4.780   5.607   1.579 -0.0187 -0.2754 -1.7325
14713TIP3   OH265629   2.075   2.567  10.381 -0.0483  0.3735  0.6216
14713TIP3    H165630   1.998   2.620  10.401  0.5145  0.9638  1.2818
14713TIP3    H265631   2.149   2.627  10.390  0.5360 -0.3222  0.5631
14714TIP3   OH265632   0.940   2.365   3.067 -0.0174  0.1358 -0.7423
14714TIP3    H165633   0.905   2.278   3.050 -2.0647  0.9787 -1.0709
14714TIP3    H265634   0.866   2.414   3.103  1.8574  0.8705  2.5919
14715TIP3   OH265635   4.057   0.512   4.729 -0.6047 -0.1344  0.0825
14715TIP3    H165636   4.030   0.425   4.759 -0.2478  0.1868  1.4088
14715TIP3    H265637   3.994   0.534   4.660 -0.5925 -1.5044 -0.4065
14716TIP3   OH265638   3.248   2.992   1.351  0.0580 -0.1241 -0.4638
14716TIP3    H165639   3.172   2.936   1.363 -0.5500  0.4466 -1.4763
14716TIP3    H265640   3.319   2.948   1.397  0.0205 -2.5984 -2.5534
14717TIP3   OH265641   0.913   0.969   4.562 -0.5309  0.3647 -0.3734
14717TIP3    H165642   0.975   1.027   4.518  1.0643 -0.8480  0.1857
14717TIP3    H265643   0.836   0.968   4.504  0.1646  1.4780 -1.3664
14718TIP3   OH265644   5.427   6.829  12.136 -0.2119  0.5826  0.6382
14718TIP3    H165645   5.342   6.854  12.173 -0.2230  1.8740 -0.1928
14718TIP3    H265646   5.433   6.735  12.151 -1.6719  0.5133  0.9444
14719TIP3   OH265647   4.167   5.821  12.514  0.0788  0.0941 -0.0733
14719TIP3    H165648   4.160   5.840  12.608  0.5966 -1.3551  0.2863
14719TIP3    H265649   4.239   5.876  12.483  1.1332 -0.7527  0.7901
14720TIP3   OH265650   0.417   0.201  12.753  0.4781 -0.1025  0.3958
14720TIP3    H165651   0.472   0.181  12.677  1.0160  0.4135  0.6345
14720TIP3    H265652   0.335   0.234  12.716  0.7663  0.2227  0.0344
14721TIP3   OH265653   5.325   6.731  15.018  0.1395 -0.6139  0.1699
14721TIP3    H165654   5.303   6.751  15.109 -0.4268  1.7973 -0.4201
14721TIP3    H265655   5.420   6.740  15.014 -0.0560  2.2753 -0.0204
14722TIP3   OH265656   5.194   1.777   0.538 -0.5273  0.0779 -0.6105
14722TIP3    H165657   5.151   1.836   0.599 -1.6829 -0.6348 -0.7068
14722TIP3    H265658   5.269   1.743   0.588 -0.3351  0.9614 -0.2709
14723TIP3   OH265659   2.841   6.774  15.446 -0.5681 -0.3329  0.4816
14723TIP3    H165660   2.791   6.828  15.505 -0.6651  0.3977 -0.2550
14723TIP3    H265661   2.807   6.795  15.359  1.9359  1.2961 -0.2184
14724TIP3   OH265662   3.649   4.039  16.050  0.0000  0.0526 -0.2874
14724TIP3    H165663   3.728   4.073  16.092 -0.2823  0.9637 -0.4518
14724TIP3    H265664   3.622   3.965  16.104 -0.5378  1.3708  1.3355
14725TIP3   OH265665   5.700   3.145  12.543 -0.3957  0.1682 -0.4036
14725TIP3    H165666   5.709   3.068  12.599  2.4100  0.4631 -0.2992
14725TIP3    H265667   5.738   3.217  12.593  0.3252  0.8513 -1.8441
14726TIP3   OH265668   0.013   6.820  12.166  0.8770  0.2246  0.1872
14726TIP3    H165669  -0.022   6.867  12.091  2.8175 -0.6075 -1.3489
14726TIP3    H265670  -0.018   6.730  12.155  1.9818 -0.1305 -0.2395
14727TIP3   OH265671   1.444   5.799  13.895  0.0968  0.1160 -0.5374
14727TIP3    H165672   1.460   5.774  13.804 -0.9169  1.7971 -1.2302
14727TIP3    H265673   1.507   5.869  13.912 -0.5928  0.7111 -0.3926
14728TIP3   OH265674   5.175   0.096   3.000  0.6740 -0.5169 -0.2126
14728TIP3    H165675   5.115   0.140   2.940  1.0001 -0.9430 -0.8694
14728TIP3    H265676   5.220   0.032   2.945  1.0909 -0.8110  0.4621
14729TIP3   OH265677   3.270   1.620  11.724  0.1743 -0.6490 -0.2782
14729TIP3    H165678   3.284   1.528  11.748  1.4340 -0.1558  1.0034
14729TIP3    H265679   3.206   1.652  11.787 -1.0996 -0.8867 -1.3942
14730TIP3   OH265680   3.505   3.382   3.145 -0.0941 -0.0458 -0.3537
14730TIP3    H165681   3.471   3.347   3.063  0.7510 -0.3915 -0.5559
14730TIP3    H265682   3.443   3.351   3.212 -0.8635  0.3580 -0.8667
14731TIP3   OH265683   6.445   6.197  11.948 -0.4781 -0.1632  0.0823
14731TIP3    H165684   6.459   6.104  11.963 -0.5745 -0.2675 -0.4582
14731TIP3    H265685   6.354   6.212  11.974 -1.2097 -0.7015 -1.9721
14732TIP3   OH265686   5.485   5.871  12.019  0.9039 -0.0439  0.3494
14732TIP3    H165687   5.559   5.838  12.070  0.2631 -1.4814  0.3969
14732TIP3    H265688   5.441   5.932  12.078  0.5414 -1.2064  1.3265
14733TIP3   OH265689   2.206   5.556  13.154 -0.4072  0.4648  0.1665
14733TIP3    H165690   2.226   5.624  13.218  0.1288  0.4202  0.0486
14733TIP3    H265691   2.216   5.598  13.069 -1.9521  0.7580  0.1067
14734TIP3   OH265692   3.427   5.584  11.974  0.3729 -0.4788  0.4965
14734TIP3    H165693   3.447   5.645  11.903  1.1420 -0.8451  0.3953
14734TIP3    H265694   3.438   5.497  11.935 -2.9112 -0.7984 -0.0433
14735TIP3   OH265695   3.284   5.884  12.946  0.1372  0.4332  0.2647
14735TIP3    H165696   3.250   5.930  12.869  0.0721  1.8605  1.1200
14735TIP3    H265697   3.246   5.796  12.939 -0.0864  0.6117 -1.1735
14736TIP3   OH265698   3.662   1.055   4.090 -0.5657  0.0820  0.6889
14736TIP3    H165699   3.584   1.102   4.060 -1.5850 -2.4597 -0.9465
14736TIP3    H265700   3.725   1.064   4.019 -0.9523 -1.3677  0.1357
14737TIP3   OH265701   2.529   6.159  12.793 -0.6054 -0.0008  0.8564
14737TIP3    H165702   2.565   6.130  12.709  0.7681  1.5196  0.8707
14737TIP3    H265703   2.538   6.083  12.850  0.3441 -0.4238  0.1721
14738TIP3   OH265704   2.043   2.946  15.993 -0.2226 -0.4062  0.1207
14738TIP3    H165705   2.109   3.013  15.975 -1.2318  1.5484  2.9825
14738TIP3    H265706   1.968   2.970  15.939 -0.5265  0.7457  1.0233
14739TIP3   OH265707   0.618   5.201  13.600 -0.1570 -0.2393 -0.4165
14739TIP3    H165708   0.565   5.229  13.674  0.1255 -1.5924  0.3132
14739TIP3    H265709   0.653   5.116  13.625  1.2417 -0.0109 -1.4519
14740TIP3   OH265710   2.078   0.117  11.935  0.4169 -0.0377  0.1579
14740TIP3    H165711   2.024   0.184  11.894 -0.9297 -1.3743 -0.3114
14740TIP3    H265712   2.135   0.085  11.865  0.2801 -0.1557  0.0995
14741TIP3   OH265713   0.359   4.006  12.785  0.5298  0.8106  0.6970
14741TIP3    H165714   0.285   4.052  12.825 -1.4253 -0.4461 -1.2358
14741TIP3    H265715   0.364   3.923  12.832  0.6375  0.8489  0.7540
14742TIP3   OH265716   2.148   2.277   4.514 -0.6898 -0.5497  0.6396
14742TIP3    H165717   2.119   2.185   4.520 -1.3113 -0.3110  1.6991
14742TIP3    H265718   2.070   2.325   4.486  0.0552 -0.5194 -1.5437
14743TIP3   OH265719   5.968   4.725  14.914 -0.2101 -0.0716 -0.1001
14743TIP3    H165720   6.023   4.793  14.954  1.7271 -1.5446 -0.1001
14743TIP3    H265721   6.029   4.654  14.895 -1.9056 -1.2219 -1.4937
14744TIP3   OH265722   1.776   5.437   2.985 -0.0156 -0.1067 -0.0957
14744TIP3    H165723   1.730   5.386   2.919  0.8332 -1.9237  0.6467
14744TIP3    H265724   1.711   5.454   3.053  0.1135 -1.8904  0.5331
14745TIP3   OH265725   4.833   1.667  16.331 -0.0717  0.2848 -0.1664
14745TIP3    H165726   4.870   1.582  16.310  1.1983  0.6960  0.3572
14745TIP3    H265727   4.822   1.666  16.426  1.2419  1.1845  0.0252
14746TIP3   OH265728   3.051   3.262  11.163 -0.2581  0.1525  0.3304
14746TIP3    H165729   2.987   3.211  11.212  1.1220 -0.7233  1.2788
14746TIP3    H265730   3.093   3.318  11.228  1.1766 -0.5847  0.0683
14747TIP3   OH265731   6.464   2.059   1.912 -0.1791 -0.3812  0.0695
14747TIP3    H165732   6.523   2.094   1.845 -1.2157 -1.1842 -1.3098
14747TIP3    H265733   6.508   2.079   1.995  1.2815  0.3879 -0.8427
14748TIP3   OH265734   1.316   5.456   1.212  0.0625 -0.6108  0.3418
14748TIP3    H165735   1.251   5.408   1.160  0.1511 -0.1905 -0.1646
14748TIP3    H265736   1.352   5.521   1.152 -0.1882  0.2260  1.0735
14749TIP3   OH265737   6.217   5.629   4.868 -0.5620 -0.2819  0.2978
14749TIP3    H165738   6.204   5.634   4.963  0.4441  1.4621  0.3853
14749TIP3    H265739   6.283   5.561   4.856 -0.5824 -0.4076  0.8645
14750TIP3   OH265740   3.952   5.183   3.260 -0.2197 -0.2394 -0.2270
14750TIP3    H165741   3.904   5.179   3.177  0.9996  1.7862 -1.1081
14750TIP3    H265742   3.967   5.277   3.274  4.2448 -0.6813 -0.5497
14751TIP3   OH265743   0.362   6.558  16.059 -0.1551 -0.1477 -0.2692
14751TIP3    H165744   0.402   6.507  15.988 -0.0438  0.7354 -0.8540
14751TIP3    H265745   0.322   6.633  16.015  1.4731  1.3967  0.7528
14752TIP3   OH265746   1.805   6.151   0.425 -0.2890 -0.4863 -0.0059
14752TIP3    H165747   1.780   6.223   0.482  0.1973 -0.7455  0.5390
14752TIP3    H265748   1.879   6.184   0.375 -1.8993  0.4380 -1.9392
14753TIP3   OH265749   0.401   5.736   0.856 -0.3265  0.0177 -0.2202
14753TIP3    H165750   0.426   5.685   0.933 -1.2541  0.2205  0.2245
14753TIP3    H265751   0.465   5.711   0.789 -0.5785 -1.4962  0.0756
14754TIP3   OH265752   4.830   3.991  12.090  0.0514 -0.2630 -0.2594
14754TIP3    H165753   4.846   4.079  12.057 -1.1720 -0.1845 -0.7151
14754TIP3    H265754   4.758   4.002  12.153  1.2376 -0.6569  1.2457
14755TIP3   OH265755   5.006   3.105   2.694  0.0556  0.2191 -0.3145
14755TIP3    H165756   5.017   3.017   2.657  0.3504 -0.2984  0.9452
14755TIP3    H265757   5.090   3.148   2.680  0.1022  0.0905 -0.4243
14756TIP3   OH265758   0.116   5.670   1.186  0.7652  0.0195 -0.9673
14756TIP3    H165759   0.071   5.687   1.269  2.2303 -3.6153  0.8007
14756TIP3    H265760   0.205   5.703   1.200  1.4024 -1.7874 -0.4630
14757TIP3   OH265761   5.849   6.233  13.350  0.7786  0.2067  0.1612
14757TIP3    H165762   5.845   6.156  13.407  1.9146  0.5978  0.7998
14757TIP3    H265763   5.775   6.287  13.378 -0.1903 -0.7619 -0.4747
14758TIP3   OH265764   1.411   5.367  15.938 -0.0429 -0.0579  0.0916
14758TIP3    H165765   1.368   5.402  15.861  1.1932  2.4308  0.4339
14758TIP3    H265766   1.496   5.336  15.906  0.6827  1.4558  0.4930
14759TIP3   OH265767   3.539   3.540  10.134  1.1862 -0.1915  0.6801
14759TIP3    H165768   3.615   3.547  10.077  0.9203  0.2877  0.3811
14759TIP3    H265769   3.553   3.607  10.201  1.3150 -0.5012  0.9638
14760TIP3   OH265770   6.805   5.744   3.615 -0.0608 -0.5347  0.1982
14760TIP3    H165771   6.885   5.757   3.667 -0.0648  1.4018 -0.1733
14760TIP3    H265772   6.753   5.823   3.632 -0.5629 -0.3603 -1.8332
14761TIP3   OH265773   5.557   4.870   3.478  0.2864  0.1920 -0.0222
14761TIP3    H165774   5.524   4.825   3.556 -2.8539 -1.1405 -1.9497
14761TIP3    H265775   5.612   4.805   3.434  0.0612  0.0788 -0.1380
14762TIP3   OH265776   3.650   3.472   1.250  0.1435  0.2209  0.3156
14762TIP3    H165777   3.577   3.430   1.205  1.2225 -0.1832 -1.1364
14762TIP3    H265778   3.718   3.405   1.255  1.8441  1.6279 -1.8872
14763TIP3   OH265779   1.382   2.498   2.608 -0.5050  0.2015 -0.6234
14763TIP3    H165780   1.348   2.416   2.644 -0.2976  0.6768  0.6976
14763TIP3    H265781   1.477   2.490   2.616 -0.4887  0.6161 -0.3746
14764TIP3   OH265782   5.366   2.414   3.154  0.7125 -0.2978 -0.3134
14764TIP3    H165783   5.350   2.427   3.247 -0.7512 -1.0496 -0.4474
14764TIP3    H265784   5.349   2.500   3.115 -0.2114 -0.3690 -0.0814
14765TIP3   OH265785   1.013   5.499  16.953 -0.0032 -0.0774 -0.0173
14765TIP3    H165786   0.958   5.523  17.028  0.9281 -1.6767  1.2398
14765TIP3    H265787   1.091   5.460  16.992 -0.0689 -2.1668 -1.8148
14766TIP3   OH265788   3.506   4.082  10.803 -0.4735  0.2026 -0.1565
14766TIP3    H165789   3.549   4.034  10.874 -2.1191  0.0897  0.8182
14766TIP3    H265790   3.578   4.121  10.754  0.7897 -1.0878  0.5777
14767TIP3   OH265791   2.855   5.045  12.701 -1.0420  0.0633  0.4450
14767TIP3    H165792   2.829   4.958  12.670  0.0126  0.2852 -1.1570
14767TIP3    H265793   2.778   5.099  12.687 -1.0812 -0.1918 -0.3772
14768TIP3   OH265794   3.016   3.040  12.187 -0.3444 -0.1334  0.1186
14768TIP3    H165795   3.111   3.027  12.191 -0.3211  0.1347  0.6283
14768TIP3    H265796   2.997   3.099  12.260 -0.4336  2.6564 -1.9849
14769TIP3   OH265797   6.824   1.041  13.360  0.2958 -0.2190  0.0618
14769TIP3    H165798   6.918   1.024  13.357  0.8559  2.5921 -1.3697
14769TIP3    H265799   6.791   0.983  13.429  2.8463 -2.1389 -0.2073
14770TIP3   OH265800   6.176   6.380  13.522  0.2760 -0.4119  0.6206
14770TIP3    H165801   6.227   6.301  13.542  0.6129 -0.9677 -2.0501
14770TIP3    H265802   6.088   6.360  13.552  0.2525 -2.0392 -0.3810
14771TIP3   OH265803   1.015   5.959  10.732 -0.6203 -0.4143 -0.3782
14771TIP3    H165804   1.106   5.982  10.748 -0.2274 -1.7244 -0.6382
14771TIP3    H265805   0.965   6.028  10.775  0.4816 -0.1557  0.5262
14772TIP3   OH265806   2.812   1.906  15.142  0.6355 -0.0268 -0.3167
14772TIP3    H165807   2.813   2.001  15.155  0.4446  0.1911 -1.7585
14772TIP3    H265808   2.730   1.877  15.182  0.9155  0.3338  0.5495
14773TIP3   OH265809   6.163   5.067  15.280  0.8922 -0.1804 -0.0302
14773TIP3    H165810   6.213   5.037  15.356  3.3832  1.8518 -0.7098
14773TIP3    H265811   6.090   5.117  15.317  1.0054 -0.7623  1.0157
14774TIP3   OH265812   4.324   3.611  12.424 -0.2672 -0.0438  0.3883
14774TIP3    H165813   4.337   3.522  12.455 -0.3715  0.1406  0.9752
14774TIP3    H265814   4.413   3.644  12.408 -0.2590 -0.5023 -0.5740
14775TIP3   OH265815   4.013   2.924   4.931 -0.3980 -0.5235 -0.5383
14775TIP3    H165816   4.044   2.970   5.008 -0.5980  0.4883 -1.0495
14775TIP3    H265817   4.000   2.992   4.865  0.5434 -1.4353 -1.7290
14776TIP3   OH265818   1.945   3.306   3.450  0.2081 -0.0672  0.3342
14776TIP3    H165819   1.849   3.317   3.453  0.1453  0.5116 -1.9095
14776TIP3    H265820   1.958   3.222   3.408  0.7655 -1.5253  3.1727
14777TIP3   OH265821   6.678   0.086  13.922 -0.2570 -0.8402 -0.4635
14777TIP3    H165822   6.726   0.025  13.867 -0.4387 -1.4943  0.0802
14777TIP3    H265823   6.745   0.144  13.959 -0.0635 -0.8161 -0.8496
14778TIP3   OH265824   0.964   3.593   4.149  0.1179 -0.1408 -0.1117
14778TIP3    H165825   0.999   3.507   4.124 -0.1470  0.3465 -2.3291
14778TIP3    H265826   0.890   3.573   4.206  1.5533 -1.2782  1.5020
14779TIP3   OH265827   5.994   0.714  12.657 -0.2456 -0.6070 -0.3815
14779TIP3    H165828   5.993   0.654  12.583 -1.4043 -4.9869  2.7492
14779TIP3    H265829   6.060   0.678  12.717  0.3753  2.4678  0.9906
14780TIP3   OH265830   6.446   5.613   4.268 -0.3189 -0.0502 -0.1489
14780TIP3    H165831   6.507   5.541   4.282 -1.5328 -0.7668  2.1488
14780TIP3    H265832   6.499   5.692   4.274  0.7123 -0.7090 -0.4754
14781TIP3   OH265833   5.530   3.819   0.011  0.0058  0.0484  0.6313
14781TIP3    H165834   5.478   3.825  -0.069 -0.7575  1.0127  1.1780
14781TIP3    H265835   5.506   3.734   0.049 -0.4754  0.0790  0.4054
14782TIP3   OH265836   2.871   6.124  12.450  0.3412 -0.2615  0.2103
14782TIP3    H165837   2.832   6.058  12.508 -0.8250  0.8125  0.7022
14782TIP3    H265838   2.815   6.200  12.460  1.5671  0.7689 -0.4678
14783TIP3   OH265839   1.879   2.328  12.938 -0.4255 -0.0620 -0.1700
14783TIP3    H165840   1.898   2.361  12.850  1.7864  0.8570  0.5690
14783TIP3    H265841   1.825   2.396  12.978 -1.3199 -0.4173 -0.7569
14784TIP3   OH265842   2.699   5.579   4.142  0.1037  0.2493 -0.5110
14784TIP3    H165843   2.765   5.626   4.193 -0.5800  1.1918 -0.4545
14784TIP3    H265844   2.698   5.490   4.178 -0.3472  0.8917  1.1399
14785TIP3   OH265845   3.672   0.105  14.522 -0.2440  0.3402  0.7276
14785TIP3    H165846   3.626   0.169  14.468 -0.0547 -1.2252 -1.4293
14785TIP3    H265847   3.765   0.118  14.501 -0.2124 -0.6785  0.2243
14786TIP3   OH265848   3.518   6.417   5.072  0.2005 -0.1611  0.1959
14786TIP3    H165849   3.546   6.328   5.056  2.1155  0.4879 -0.2548
14786TIP3    H265850   3.576   6.471   5.018 -1.2654  1.3332  0.0396
14787TIP3   OH265851   2.484   0.601  11.608 -0.4714 -0.0809 -0.4650
14787TIP3    H165852   2.568   0.579  11.648 -1.3590 -1.0164  0.9423
14787TIP3    H265853   2.507   0.630  11.520  1.3148 -0.4943 -0.1721
14788TIP3   OH265854   5.284   5.001  10.360  0.0929 -0.6230  0.3872
14788TIP3    H165855   5.267   5.056  10.437 -0.5062  1.3691 -1.0757
14788TIP3    H265856   5.213   4.938  10.358  0.1399 -0.7212  1.4856
14789TIP3   OH265857   6.403   2.690  12.535 -0.0869 -0.5381 -0.0154
14789TIP3    H165858   6.324   2.641  12.557  0.4488 -0.5457  2.1919
14789TIP3    H265859   6.436   2.721  12.620  2.0986 -0.2718 -0.8954
14790TIP3   OH265860   5.774   6.633  14.140 -0.1618  0.3067  0.2506
14790TIP3    H165861   5.679   6.624  14.146 -0.2262  1.3251  0.9894
14790TIP3    H265862   5.791   6.724  14.166  0.9406  0.3959 -0.6980
14791TIP3   OH265863   5.792   0.236  15.327 -0.7323  0.0147  0.1109
14791TIP3    H165864   5.765   0.328  15.326  0.0489  0.2574  0.7466
14791TIP3    H265865   5.718   0.190  15.368 -0.4018  0.6173  1.4321
14792TIP3   OH265866   2.641   2.841  11.201 -0.1645 -0.9605  0.4368
14792TIP3    H165867   2.635   2.923  11.151 -0.6659  0.0180  2.0262
14792TIP3    H265868   2.624   2.772  11.136 -1.7850  0.2963 -0.5513
14793TIP3   OH265869   0.664   0.308  11.338  0.2656  0.4870 -0.3730
14793TIP3    H165870   0.613   0.338  11.263 -0.7635 -1.7476 -0.6521
14793TIP3    H265871   0.723   0.380  11.357 -1.0998  2.0753 -1.8018
14794TIP3   OH265872   0.239   3.629  10.645 -0.4162  0.9785  0.4260
14794TIP3    H165873   0.285   3.547  10.666  1.2923  2.1422  1.4420
14794TIP3    H265874   0.190   3.608  10.565 -0.5481 -1.2121  1.0007
14795TIP3   OH265875   3.186   2.780  14.980 -0.6425  0.6326 -0.6070
14795TIP3    H165876   3.104   2.804  14.937 -1.2456  3.5482  1.7827
14795TIP3    H265877   3.169   2.798  15.073  1.9816 -0.9573  0.2588
14796TIP3   OH265878   2.918   6.587  14.667  0.4631  0.1933 -0.2321
14796TIP3    H165879   2.979   6.638  14.720  0.4769 -1.8317  1.9129
14796TIP3    H265880   2.850   6.648  14.642  1.6906  1.7698  0.1418
14797TIP3   OH265881   6.438   4.384   3.556  0.6131 -0.6855 -0.3250
14797TIP3    H165882   6.442   4.478   3.571 -0.9161 -0.8291  1.2727
14797TIP3    H265883   6.530   4.357   3.548  1.1540  0.7194  0.7717
14798TIP3   OH265884   1.050   2.840   5.415  0.2193 -0.0285  0.7641
14798TIP3    H165885   1.071   2.844   5.321  1.4881 -1.1186  0.9612
14798TIP3    H265886   1.135   2.850   5.458  0.0155 -1.9523  1.7154
14799TIP3   OH265887   4.722   4.265  16.928 -0.0221 -0.0437 -0.4317
14799TIP3    H165888   4.808   4.222  16.926  0.0183 -0.0239  0.5778
14799TIP3    H265889   4.704   4.280  17.021 -0.8603  0.4822 -0.6644
14800TIP3   OH265890   4.872   5.055   3.282  0.7503  0.4547 -0.4316
14800TIP3    H165891   4.842   5.102   3.204 -0.4382  0.7893  0.2041
14800TIP3    H265892   4.898   5.124   3.343  0.8420  0.2250 -0.2081
14801TIP3   OH265893   5.378   4.519  11.989 -0.2349  0.0038 -0.4011
14801TIP3    H165894   5.423   4.454  12.044 -1.8749  0.6556  1.8548
14801TIP3    H265895   5.426   4.518  11.907  1.0815 -2.5541  0.2899
14802TIP3   OH265896   5.296   0.585  15.758  0.7143  0.1510  0.2111
14802TIP3    H165897   5.207   0.562  15.732  0.3404  2.1093 -0.3687
14802TIP3    H265898   5.288   0.608  15.851  0.0231  2.9542 -0.4745
14803TIP3   OH265899   2.735   2.267  13.340  0.0540 -0.7446 -0.2479
14803TIP3    H165900   2.759   2.251  13.249 -0.9332 -0.5800 -0.5487
14803TIP3    H265901   2.764   2.189  13.387 -0.1879 -1.2032 -0.8535
14804TIP3   OH265902   4.091   2.302   0.829 -0.3279  0.2422  0.3353
14804TIP3    H165903   4.162   2.292   0.893 -1.6135  0.5728  1.9077
14804TIP3    H265904   4.094   2.222   0.777  1.9296  0.7850 -0.4526
14805TIP3   OH265905   4.250   3.080  12.469  0.2089  0.1649 -0.2694
14805TIP3    H165906   4.223   3.002  12.518  1.2409 -1.1756 -1.7443
14805TIP3    H265907   4.170   3.132  12.462 -0.3563 -0.4193  1.3031
14806TIP3   OH265908   3.155   4.531  14.639 -0.0086  0.7069  0.0113
14806TIP3    H165909   3.177   4.590  14.567 -0.4453  0.0449 -0.6778
14806TIP3    H265910   3.237   4.519  14.687  0.4968  0.4455 -0.9038
14807TIP3   OH265911   0.352   2.647   2.480  0.6439 -0.0887  0.6695
14807TIP3    H165912   0.387   2.657   2.392 -0.9170 -2.1129 -0.2483
14807TIP3    H265913   0.334   2.554   2.489 -1.2414  0.3586  2.3341
14808TIP3   OH265914   4.659   5.386  14.889 -0.6346 -0.1377  0.5915
14808TIP3    H165915   4.654   5.446  14.815  1.7509 -1.1373 -0.4687
14808TIP3    H265916   4.624   5.437  14.963 -0.8197  1.7317 -0.7081
14809TIP3   OH265917   5.933   6.149  16.205  0.0543 -0.4905 -0.3185
14809TIP3    H165918   5.933   6.054  16.212 -0.9804 -0.5072 -0.3077
14809TIP3    H265919   5.844   6.174  16.231  0.3128  0.4732 -0.3449
14810TIP3   OH265920   2.733   2.235   0.508 -0.4171  0.8228 -0.7755
14810TIP3    H165921   2.753   2.328   0.521  0.1191  0.7674 -1.1320
14810TIP3    H265922   2.763   2.217   0.418  1.9844 -0.3141  0.1565
14811TIP3   OH265923   3.564   6.719  15.744 -0.5397  0.7125  0.3660
14811TIP3    H165924   3.579   6.632  15.780 -0.6028  0.1231 -0.9858
14811TIP3    H265925   3.491   6.708  15.683  1.5025  0.9753 -2.2881
14812TIP3   OH265926   3.873   3.061  14.660 -0.1327 -0.2305  0.1327
14812TIP3    H165927   3.919   3.009  14.726 -0.3940 -0.9225 -0.2217
14812TIP3    H265928   3.883   3.011  14.579 -1.3306 -0.2990  0.0064
14813TIP3   OH265929   0.203   4.206  14.132 -0.0518 -0.2002  0.4094
14813TIP3    H165930   0.292   4.173  14.121  0.6578  1.6860  0.0180
14813TIP3    H265931   0.199   4.283  14.075 -1.5627  0.4214  1.2851
14814TIP3   OH265932   0.396   1.797   0.284  0.0555  0.7281  0.3460
14814TIP3    H165933   0.376   1.805   0.191  0.4960 -0.0042  0.1768
14814TIP3    H265934   0.489   1.775   0.287 -0.6550 -2.9125  0.7199
14815TIP3   OH265935   1.446   2.106   5.108 -0.3396 -0.2298 -0.1220
14815TIP3    H165936   1.453   2.017   5.071  1.0803 -0.4526  0.6295
14815TIP3    H265937   1.463   2.094   5.201 -0.4284  0.7987  0.0269
14816TIP3   OH265938   5.416   4.400  16.107  0.3619  0.4109  0.7135
14816TIP3    H165939   5.403   4.362  16.193 -1.1078 -0.8826 -0.0308
14816TIP3    H265940   5.359   4.350  16.049  0.3822  2.0208 -0.8110
14817TIP3   OH265941   5.100   2.824   0.863 -0.4065 -0.7390 -0.4502
14817TIP3    H165942   5.005   2.826   0.873 -0.3733  0.1525 -0.2779
14817TIP3    H265943   5.116   2.754   0.799 -1.1772 -0.8354 -0.5446
14818TIP3   OH265944   1.324   0.126  17.055 -0.2557 -0.4899 -0.3093
14818TIP3    H165945   1.332   0.033  17.035 -1.5317 -0.8103  0.5115
14818TIP3    H265946   1.347   0.171  16.973 -1.0981 -1.5858 -1.1763
14819TIP3   OH265947   1.255   0.689  16.992  0.3020  0.1402  0.1517
14819TIP3    H165948   1.208   0.610  17.018 -0.0825 -0.2822 -1.6473
14819TIP3    H265949   1.317   0.658  16.926 -1.8407  1.6636 -2.8190
14820TIP3   OH265950   2.928   4.913   4.770  0.1709  0.1327 -0.4161
14820TIP3    H165951   2.940   5.000   4.808  1.7724 -0.0008 -0.5513
14820TIP3    H265952   3.012   4.869   4.782 -0.7342 -1.5807  0.0518
14821TIP3   OH265953   5.953   6.826  13.405  1.1007 -0.0079 -0.2180
14821TIP3    H165954   5.968   6.921  13.407  2.6932 -0.2257 -0.4303
14821TIP3    H265955   5.923   6.808  13.316 -1.0580  0.4993  0.3370
14822TIP3   OH265956   5.021   0.160   3.957 -0.2530 -0.0429  0.3743
14822TIP3    H165957   5.099   0.145   3.903 -0.4913 -0.6454  0.1866
14822TIP3    H265958   4.989   0.246   3.930 -0.4501 -0.3906 -0.5563
14823TIP3   OH265959   4.534   4.316  10.759 -0.3967 -0.0113  0.1619
14823TIP3    H165960   4.542   4.319  10.664  1.4868 -2.4086  0.1353
14823TIP3    H265961   4.460   4.373  10.779 -1.2223  0.1098 -2.7682
14824TIP3   OH265962   2.976   6.035   4.007 -0.0124  0.4417 -0.1975
14824TIP3    H165963   3.061   6.077   4.017  0.2323 -0.2882  1.0861
14824TIP3    H265964   2.994   5.955   3.957 -0.0398  0.5768 -0.4226
14825TIP3   OH265965   6.328   1.983   0.789 -0.2077  0.0293 -0.0438
14825TIP3    H165966   6.355   1.917   0.725 -0.4423  0.7309 -0.8886
14825TIP3    H265967   6.247   1.948   0.827 -1.1626  0.4923 -1.5630
14826TIP3   OH265968   0.082   5.213  14.139 -0.0923  0.4620 -0.4011
14826TIP3    H165969   0.133   5.294  14.143  1.8164 -0.7413  1.0948
14826TIP3    H265970   0.110   5.171  14.057 -0.2368  0.7697 -0.6103
14827TIP3   OH265971   5.625   2.192   1.534 -0.4442  0.3690  0.2818
14827TIP3    H165972   5.709   2.169   1.494 -2.1514 -2.7555 -1.9806
14827TIP3    H265973   5.568   2.214   1.460 -1.8535  1.7831  1.6932
14828TIP3   OH265974   1.212   4.784  10.370 -0.5550 -0.3075  1.1551
14828TIP3    H165975   1.304   4.789  10.344 -0.5141 -1.0014  1.1600
14828TIP3    H265976   1.213   4.807  10.463 -0.4959  0.5001  0.9670
14829TIP3   OH265977   6.178   5.670   3.988 -0.4078  0.2242 -0.3816
14829TIP3    H165978   6.267   5.700   3.967 -0.6367  0.9726 -0.2872
14829TIP3    H265979   6.189   5.576   4.006  0.3530  0.2919 -0.4444
14830TIP3   OH265980   6.589   4.936  12.688  0.1868 -0.2643  0.1052
14830TIP3    H165981   6.630   4.890  12.761 -1.1154  1.9133  2.3642
14830TIP3    H265982   6.499   4.906  12.688 -0.2092  0.8916  0.4141
14831TIP3   OH265983   2.773   6.590   2.403 -0.2359  0.3905  0.0323
14831TIP3    H165984   2.780   6.588   2.308 -1.0545 -2.3774 -0.0571
14831TIP3    H265985   2.685   6.623   2.420  0.1380  1.5172 -0.0905
14832TIP3   OH265986   4.196   2.287  10.694 -0.1243 -0.4028 -0.0259
14832TIP3    H165987   4.241   2.244  10.767 -1.1544 -2.3747 -0.5123
14832TIP3    H265988   4.256   2.279  10.620  0.5276  0.7900  0.3510
14833TIP3   OH265989   1.054   1.898  11.346  0.0200 -0.4523  0.0894
14833TIP3    H165990   1.045   1.988  11.378 -0.4455  0.3209 -2.0595
14833TIP3    H265991   1.144   1.892  11.315 -0.0665 -0.5985 -0.1356
14834TIP3   OH265992   3.099   4.712  15.154  0.1962 -0.0239 -0.3794
14834TIP3    H165993   3.030   4.646  15.162  1.9107 -1.7634  0.9759
14834TIP3    H265994   3.129   4.705  15.063 -0.3903 -0.2979 -0.5544
14835TIP3   OH265995   6.811   0.682   1.440  0.1143 -0.7277  0.2457
14835TIP3    H165996   6.865   0.757   1.463  4.6576 -3.6611  0.4990
14835TIP3    H265997   6.798   0.689   1.345  0.9856  0.0770  0.1797
14836TIP3   OH265998   3.490   6.158   5.000 -0.4117 -0.3989  0.0999
14836TIP3    H165999   3.519   6.068   4.982 -0.1771 -0.3098  0.0424
14836TIP3    H266000   3.429   6.177   4.929 -1.3565 -0.9294  0.7409
14837TIP3   OH266001   4.896   3.626  12.707 -0.0736 -0.1165  0.5922
14837TIP3    H166002   4.929   3.656  12.623 -0.9054 -0.2055  0.2193
14837TIP3    H266003   4.966   3.572  12.743 -0.0682 -0.8551 -0.4744
14838TIP3   OH266004   5.910   5.977   2.208 -0.4503 -0.0185 -0.2067
14838TIP3    H166005   5.929   5.930   2.289  0.9294  0.1586 -0.3881
14838TIP3    H266006   5.979   6.044   2.203 -2.0688  1.7447 -0.1804
14839TIP3   OH266007   5.744   2.158   5.190 -0.1790  0.5976 -0.3254
14839TIP3    H166008   5.676   2.095   5.217 -0.5831  1.4586  0.7334
14839TIP3    H266009   5.811   2.104   5.148  0.8301 -1.0316  2.9783
14840TIP3   OH266010   0.598   3.310  16.418 -0.0461 -0.4019  0.2149
14840TIP3    H166011   0.562   3.227  16.449  1.4389 -0.6224  1.4552
14840TIP3    H266012   0.522   3.357  16.383 -0.9811 -2.1050 -0.1799
14841TIP3   OH266013   2.816   5.752   4.349  0.5220 -0.4951 -0.0837
14841TIP3    H166014   2.874   5.677   4.346  1.5194  0.2627 -2.9645
14841TIP3    H266015   2.866   5.823   4.308 -1.9672  0.4935 -1.6773
14842TIP3   OH266016   2.358   4.627   5.287 -0.0857  0.3103  0.2023
14842TIP3    H166017   2.336   4.566   5.358  2.0914  0.0913  0.7810
14842TIP3    H266018   2.365   4.572   5.209  1.2200 -0.1147  0.5937
14843TIP3   OH266019   6.579   3.820  14.511 -0.3143  0.3412  0.3546
14843TIP3    H166020   6.591   3.836  14.417  1.6841 -0.2247  0.4754
14843TIP3    H266021   6.542   3.732  14.515 -0.0100  0.1994  0.1078
14844TIP3   OH266022   6.123   1.423  10.410  0.2129 -0.0666  0.3652
14844TIP3    H166023   6.195   1.359  10.406 -0.2493 -0.6201  0.7101
14844TIP3    H266024   6.057   1.388  10.351 -0.0132  0.1281  0.5032
14845TIP3   OH266025   3.410   2.490  15.492 -0.1459 -0.2391 -0.3992
14845TIP3    H166026   3.334   2.540  15.520  0.8399  1.3477 -0.4152
14845TIP3    H266027   3.428   2.431  15.566 -1.4658 -0.7839 -0.4810
14846TIP3   OH266028   0.819   0.300  10.287 -0.1283 -0.2653 -0.2457
14846TIP3    H166029   0.798   0.326  10.197 -2.3314 -1.3508 -0.1250
14846TIP3    H266030   0.742   0.325  10.338  0.8754 -0.1172  1.2652
14847TIP3   OH266031   6.738   6.808   0.398 -0.1777 -0.2695 -0.2124
14847TIP3    H166032   6.810   6.779   0.454 -0.8675 -0.9576  0.3428
14847TIP3    H266033   6.700   6.883   0.444 -0.6849 -0.7759  0.2106
14848TIP3   OH266034   4.351   3.635   1.903  0.7181  0.1716  0.3068
14848TIP3    H166035   4.277   3.676   1.948  0.2177 -0.5967  0.1927
14848TIP3    H266036   4.369   3.556   1.953  1.5751  0.4218  0.4245
14849TIP3   OH266037   6.784   0.473   5.527  0.5238  0.7033 -0.2505
14849TIP3    H166038   6.845   0.455   5.455  1.8475  0.0562  0.9911
14849TIP3    H266039   6.824   0.547   5.573  0.1716  0.5201  0.3517
14850TIP3   OH266040   0.512   6.505   3.550 -0.2213  0.3895 -0.1100
14850TIP3    H166041   0.489   6.434   3.609  1.0056  0.0319 -0.0289
14850TIP3    H266042   0.456   6.492   3.474 -0.2748 -0.4382  0.0590
14851TIP3   OH266043   6.784   2.397   0.429  0.0949  0.2887  0.3177
14851TIP3    H166044   6.869   2.425   0.395 -0.1981 -0.4027 -1.0826
14851TIP3    H266045   6.729   2.475   0.425 -0.3162 -0.0358 -2.2068
14852TIP3   OH266046   2.391   0.718   1.381  0.3001 -0.0297  0.0394
14852TIP3    H166047   2.422   0.677   1.300 -1.4470 -0.5620 -0.4166
14852TIP3    H266048   2.425   0.807   1.378  1.7162 -0.5695 -0.4044
14853TIP3   OH266049   1.284   3.803   1.945  0.2012 -0.3781  0.1971
14853TIP3    H166050   1.355   3.861   1.972  0.2810 -0.9673  1.3113
14853TIP3    H266051   1.217   3.814   2.013 -0.1661 -0.9010 -0.0743
14854TIP3   OH266052   6.576   5.421   4.008 -0.3580 -0.0145  0.1464
14854TIP3    H166053   6.648   5.387   3.955 -0.5095  1.5621 -1.1614
14854TIP3    H266054   6.520   5.468   3.945 -0.6501  1.7790  1.6654
14855TIP3   OH266055   6.788   4.960   2.244  0.8691 -0.1001  0.0717
14855TIP3    H166056   6.715   4.928   2.190 -0.7607  0.8330  1.6320
14855TIP3    H266057   6.747   4.987   2.326  2.8049  1.7776  0.4886
14856TIP3   OH266058   4.782   4.121   5.111 -0.2057  0.5346  0.6068
14856TIP3    H166059   4.841   4.196   5.118 -0.0944  0.4670  0.4099
14856TIP3    H266060   4.783   4.099   5.018 -0.7845  0.7264  0.5554
14857TIP3   OH266061   0.407   4.926  10.677 -0.0115 -0.1087 -0.6569
14857TIP3    H166062   0.472   4.996  10.669  1.5927 -0.9068  3.2461
14857TIP3    H266063   0.443   4.854  10.626  0.7800  0.3494 -0.7632
14858TIP3   OH266064   5.486   1.288   4.146 -0.1327 -0.0482  0.1016
14858TIP3    H166065   5.417   1.237   4.189  0.4715 -2.0618 -1.1448
14858TIP3    H266066   5.565   1.271   4.198  0.4666 -2.0036 -1.2927
14859TIP3   OH266067   6.011   5.569  13.867 -0.0322  0.4037  0.0982
14859TIP3    H166068   5.974   5.613  13.790 -3.5219 -0.6335  0.9558
14859TIP3    H266069   5.954   5.597  13.939  0.1780 -2.2534  1.3953
14860TIP3   OH266070   4.925   3.426   0.737 -0.3318  0.2174  0.1335
14860TIP3    H166071   4.942   3.345   0.784  1.2297  0.6170  0.2929
14860TIP3    H266072   4.931   3.402   0.644 -0.3231  0.0585  0.1757
14861TIP3   OH266073   0.978   0.716  13.627 -0.6713 -0.1550 -0.1930
14861TIP3    H166074   0.928   0.717  13.709 -1.0088  0.0888 -0.3985
14861TIP3    H266075   0.946   0.639  13.580  0.2747 -0.9047  0.3548
14862TIP3   OH266076   5.339   5.184  14.990 -0.4079 -0.6549  0.6334
14862TIP3    H166077   5.248   5.210  15.006 -0.5628 -0.5227 -0.3670
14862TIP3    H266078   5.333   5.096  14.954 -0.2833 -0.0371 -0.9759
14863TIP3   OH266079   6.632   1.797   0.720  0.4042  0.0786  0.7046
14863TIP3    H166080   6.664   1.733   0.783  1.6275 -1.5336 -1.4358
14863TIP3    H266081   6.677   1.879   0.743  0.5823 -0.3784  2.0632
14864TIP3   OH266082   4.038   6.412   3.019 -0.0169  0.4953  0.0578
14864TIP3    H166083   3.949   6.428   2.989 -0.3972 -0.7003  0.5074
14864TIP3    H266084   4.068   6.497   3.051 -1.7477  0.4882  1.8411
14865TIP3   OH266085   5.784   2.538  12.134  0.4013  0.0282  0.1122
14865TIP3    H166086   5.826   2.564  12.052 -1.6019  0.9390 -0.6914
14865TIP3    H266087   5.806   2.608  12.196 -0.0993  0.6397 -0.3803
14866TIP3   OH266088   3.405   0.016   1.036  0.1623  0.3307  0.8501
14866TIP3    H166089   3.314   0.002   1.060  0.3007 -0.5778  0.9131
14866TIP3    H266090   3.446  -0.070   1.048  1.0368  0.7400  0.8786
14867TIP3   OH266091   3.100   1.293  11.698 -0.3599 -0.1295  0.1963
14867TIP3    H166092   3.014   1.333  11.710 -0.7004 -0.6229 -0.5185
14867TIP3    H266093   3.146   1.308  11.781 -1.5091 -0.7596  0.9706
14868TIP3   OH266094   0.518   1.001  14.825 -0.2183  0.1140 -0.0626
14868TIP3    H166095   0.587   0.958  14.876 -0.6113 -0.0059  0.3851
14868TIP3    H266096   0.516   0.953  14.742  1.3803  1.2128 -0.7777
14869TIP3   OH266097   4.848   5.863  13.262 -0.4898  0.0676 -0.1949
14869TIP3    H166098   4.888   5.943  13.228 -0.7080 -0.3467 -1.4840
14869TIP3    H266099   4.889   5.792  13.213  2.2298 -1.0017  3.2515
14870TIP3   OH266100   0.548   1.549  11.395  0.2393  0.2346 -0.2243
14870TIP3    H166101   0.586   1.487  11.332 -0.4207  1.1113 -1.5210
14870TIP3    H266102   0.596   1.532  11.476 -0.4356 -2.5277 -0.2831
14871TIP3   OH266103   3.628   4.601  15.346 -0.1336  0.4351 -0.1633
14871TIP3    H166104   3.533   4.594  15.333 -0.2431 -0.2070  0.8177
14871TIP3    H266105   3.651   4.522  15.396  0.7397  1.0897  0.5126
14872TIP3   OH266106   2.698   4.457   1.601 -0.2586 -0.1588  0.0309
14872TIP3    H166107   2.774   4.463   1.543  0.0827  1.1738  0.5914
14872TIP3    H266108   2.635   4.403   1.553  1.2213 -1.7200 -0.2215
14873TIP3   OH266109   4.644   4.988  12.330  0.4076 -0.4379 -0.0096
14873TIP3    H166110   4.567   5.028  12.371  0.7205  0.0314  0.1336
14873TIP3    H266111   4.615   4.965  12.242  0.6115  1.5105 -0.6424
14874TIP3   OH266112   3.541   1.431   2.503 -0.3131 -0.4241 -0.0194
14874TIP3    H166113   3.621   1.404   2.547  0.5838  0.4793 -1.0376
14874TIP3    H266114   3.486   1.466   2.573  1.6660  2.3733  0.3134
14875TIP3   OH266115   4.548   3.327  11.964 -0.1494 -0.6296 -0.6647
14875TIP3    H166116   4.601   3.247  11.957  2.4412  0.9274 -0.2226
14875TIP3    H266117   4.562   3.357  12.054  0.7654  1.4176 -1.4117
14876TIP3   OH266118   2.753   0.768  16.711  0.2542 -0.2680 -0.0019
14876TIP3    H166119   2.742   0.731  16.799 -1.1780 -0.4127 -0.2092
14876TIP3    H266120   2.796   0.698  16.661 -0.8081 -1.0184  0.0747
14877TIP3   OH266121   4.256   5.390   6.685  0.4936  0.5856  0.8277
14877TIP3    H166122   4.173   5.407   6.640  2.3498  3.6894 -1.8784
14877TIP3    H266123   4.249   5.439   6.767 -0.2614  0.9928  0.5286
14878TIP3   OH266124   1.598   4.522   4.105  0.2529 -0.0365  0.1072
14878TIP3    H166125   1.588   4.477   4.189 -0.5401 -1.0399 -0.4931
14878TIP3    H266126   1.586   4.453   4.040  1.7465  0.5491 -0.8330
14879TIP3   OH266127   5.125   0.961   5.237 -0.0840  0.3245 -0.1212
14879TIP3    H166128   5.190   0.905   5.195 -1.4391 -1.9522  0.6986
14879TIP3    H266129   5.173   1.043   5.255  1.9774 -0.5588 -1.2650
14880TIP3   OH266130   0.379   4.309   0.042  0.4855 -0.2803 -0.1703
14880TIP3    H166131   0.434   4.262   0.104  0.5508  2.3343  1.9145
14880TIP3    H266132   0.323   4.365   0.096  0.1190  1.7262 -2.4323
14881TIP3   OH266133   6.236   4.931   0.812 -0.0419 -0.0428 -0.1410
14881TIP3    H166134   6.241   5.011   0.759 -0.6082  1.9169  2.5272
14881TIP3    H266135   6.160   4.885   0.779  0.3179  0.4780 -1.7831
14882TIP3   OH266136   6.568   6.337  13.793 -0.7187  0.3942  0.4348
14882TIP3    H166137   6.654   6.319  13.754  0.1032  3.1952  0.6986
14882TIP3    H266138   6.548   6.259  13.844  0.8840 -1.0089 -0.9476
14883TIP3   OH266139   5.564   0.862  14.874  0.1010  0.9089  0.0072
14883TIP3    H166140   5.521   0.939  14.912  2.2650  0.8840  2.8372
14883TIP3    H266141   5.654   0.890  14.859  0.5769 -0.6786 -0.2143
14884TIP3   OH266142   5.315   2.541  13.812  0.3206 -0.3068  0.2347
14884TIP3    H166143   5.280   2.472  13.754 -1.9594  1.0491 -0.1251
14884TIP3    H266144   5.285   2.515  13.900 -0.7418  0.3156  0.0678
14885TIP3   OH266145   4.822   5.987   2.851  0.5335 -0.0958  0.1743
14885TIP3    H166146   4.802   5.903   2.810  0.1748  0.1442 -0.1535
14885TIP3    H266147   4.797   6.052   2.785  2.5029  0.2256 -0.3225
14886TIP3   OH266148   2.744   0.894   5.973  0.2538  0.6209  0.5523
14886TIP3    H166149   2.743   0.878   6.067 -0.6707 -0.1535  0.4286
14886TIP3    H266150   2.827   0.939   5.957  1.1925 -0.6880  1.5033
14887TIP3   OH266151   1.990   3.240  13.400 -0.0510 -0.1673 -0.1547
14887TIP3    H166152   2.079   3.250  13.367 -0.5450 -2.4189 -2.5155
14887TIP3    H266153   1.937   3.298  13.346  0.0127  2.0537  2.0029
14888TIP3   OH266154   6.631   3.763   2.930 -0.0920 -0.5324  0.4640
14888TIP3    H166155   6.642   3.829   2.998 -1.7528  1.3533 -0.9765
14888TIP3    H266156   6.572   3.698   2.968  1.6236 -1.3142  1.9291
14889TIP3   OH266157   6.413   5.393   4.903  0.0718  0.1734 -0.0143
14889TIP3    H166158   6.470   5.318   4.882 -1.4618 -1.4707  1.4147
14889TIP3    H266159   6.337   5.354   4.946 -1.8854  2.3498 -1.2944
14890TIP3   OH266160   4.878   5.990   4.754  0.6691  0.3471  0.0886
14890TIP3    H166161   4.970   5.999   4.778  0.8707 -0.3135 -0.3940
14890TIP3    H266162   4.859   6.067   4.699  0.3355  1.5973  1.8875
14891TIP3   OH266163   6.562   4.460   3.021  0.2472  0.8369  0.1791
14891TIP3    H166164   6.576   4.474   3.115  1.8873 -0.0340  0.1054
14891TIP3    H266165   6.615   4.528   2.980  0.4334  0.5148 -0.1171
14892TIP3   OH266166   2.231   1.117   4.528 -0.1965  0.1973 -0.5197
14892TIP3    H166167   2.200   1.163   4.606  0.4675  0.0237 -0.1434
14892TIP3    H266168   2.242   1.026   4.556 -2.1113 -0.3543 -1.4349
14893TIP3   OH266169   0.924   6.212  12.066 -0.3130  0.6483  0.3486
14893TIP3    H166170   0.973   6.131  12.054  0.9056  1.6803 -2.3560
14893TIP3    H266171   0.841   6.197  12.020 -0.2485  0.7822  0.1859
14894TIP3   OH266172   2.299   1.759   1.974  0.1424  0.4612 -0.1111
14894TIP3    H166173   2.289   1.847   2.011 -1.3537  0.4865 -0.4950
14894TIP3    H266174   2.290   1.700   2.049 -0.4439  0.5958 -0.0677
14895TIP3   OH266175   6.328   1.617  16.750  0.0062 -0.3827 -0.2737
14895TIP3    H166176   6.239   1.650  16.753 -0.5643 -1.9105  0.6536
14895TIP3    H266177   6.344   1.581  16.837  0.9989 -1.4148 -0.8466
14896TIP3   OH266178   2.393   4.536  12.367  0.5703  0.2587  0.2123
14896TIP3    H166179   2.299   4.519  12.371  0.6158 -0.4250 -1.0558
14896TIP3    H266180   2.420   4.542  12.459 -1.0380  2.4963  0.6136
14897TIP3   OH266181   0.462   0.178  12.329  0.1701 -0.7719  0.3704
14897TIP3    H166182   0.444   0.256  12.382 -0.0049 -0.7360  0.2596
14897TIP3    H266183   0.470   0.107  12.392  0.3783 -0.6546  0.4748
14898TIP3   OH266184   1.016   0.391   5.384 -0.0080 -0.0434  0.6273
14898TIP3    H166185   1.007   0.486   5.389 -0.9529 -0.1945  2.1935
14898TIP3    H266186   1.049   0.365   5.470 -2.2814 -1.3849  1.1636
14899TIP3   OH266187   5.528   5.460  14.506 -0.3639  0.1302  0.2428
14899TIP3    H166188   5.514   5.555  14.508  1.6428  0.6079 -2.5922
14899TIP3    H266189   5.451   5.426  14.459 -0.0461  0.6764 -0.7070
14900TIP3   OH266190   6.666   3.719   0.894 -0.1426 -0.8045 -0.4283
14900TIP3    H166191   6.685   3.625   0.898 -1.5316 -1.0759  1.3559
14900TIP3    H266192   6.594   3.725   0.831  1.2615 -0.6424 -2.0663
14901TIP3   OH266193   4.821   5.209   1.823  0.5027  0.2447 -0.4248
14901TIP3    H166194   4.874   5.153   1.766  0.7055  0.5929 -0.5820
14901TIP3    H266195   4.883   5.272   1.859  0.1434  0.8586 -0.8650
14902TIP3   OH266196   2.751   1.397  11.139  0.4117 -0.7308 -0.1607
14902TIP3    H166197   2.819   1.361  11.082  0.8981  0.1670 -0.1777
14902TIP3    H266198   2.670   1.355  11.111  0.6437 -0.3334 -1.4845
14903TIP3   OH266199   3.132   1.145  10.748  0.2301 -0.2917 -0.2642
14903TIP3    H166200   3.128   1.110  10.659 -2.9072  0.2242 -0.4658
14903TIP3    H266201   3.126   1.240  10.737 -1.4621 -0.2705  0.4413
14904TIP3   OH266202   5.298   3.561   4.793 -0.6832  0.1035 -0.0224
14904TIP3    H166203   5.364   3.575   4.726 -1.0889  1.0586 -0.2407
14904TIP3    H266204   5.302   3.467   4.812  0.2006  0.0201 -0.5736
14905TIP3   OH266205   3.319   4.831  14.639 -0.6299 -0.2675  0.4044
14905TIP3    H166206   3.245   4.887  14.615 -1.0622 -1.2261 -0.6075
14905TIP3    H266207   3.371   4.825  14.559 -0.5088 -1.1736  0.5375
14906TIP3   OH266208   1.005   5.193  12.089 -0.7743 -0.0501  0.5500
14906TIP3    H166209   0.940   5.232  12.030 -0.4920 -0.3467  0.0297
14906TIP3    H266210   1.072   5.261  12.098 -0.5173 -0.2273  0.0279
14907TIP3   OH266211   2.496   0.114   5.426  0.1753 -0.3212  0.2321
14907TIP3    H166212   2.512   0.144   5.516  3.2062 -2.9657  0.7608
14907TIP3    H266213   2.448   0.031   5.437 -1.9071  0.6548 -0.8329
14908TIP3   OH266214   0.944   4.773   4.328  0.1701 -0.0229 -0.1044
14908TIP3    H166215   0.990   4.738   4.404 -0.9033  0.8008  0.9660
14908TIP3    H266216   1.007   4.833   4.287  0.5280  0.0393  0.5274
14909TIP3   OH266217   3.128   6.429  15.383  0.5449  0.1243  0.1266
14909TIP3    H166218   3.219   6.431  15.355  0.6695  0.8373  0.5609
14909TIP3    H266219   3.118   6.507  15.438 -0.1790 -0.2492  0.5343
14910TIP3   OH266220   4.727   5.748  15.364  0.4571  0.3498 -0.1280
14910TIP3    H166221   4.793   5.727  15.297 -0.1262  0.4084 -0.7366
14910TIP3    H266222   4.664   5.803  15.317 -0.5971 -0.6016  0.1518
14911TIP3   OH266223   0.032   0.962   5.556 -0.4542 -0.0374 -0.2472
14911TIP3    H166224   0.124   0.989   5.562 -0.2595 -0.8899  1.1188
14911TIP3    H266225   0.016   0.951   5.463  1.3943 -1.7131 -0.4284
14912TIP3   OH266226   3.041   5.326   4.219  0.1413  0.2234  0.2403
14912TIP3    H166227   3.085   5.396   4.172 -2.2871  1.6815 -0.0542
14912TIP3    H266228   2.959   5.313   4.170  0.3647 -2.6468  0.4696
14913TIP3   OH266229   1.333   5.911  14.478  0.0117 -0.1770  0.4716
14913TIP3    H166230   1.313   5.834  14.532  1.7958 -0.7780  0.3465
14913TIP3    H266231   1.248   5.952  14.462 -0.7279 -0.7839  2.5253
14914TIP3   OH266232   3.741   5.966   6.620  0.5496 -0.0233  0.4116
14914TIP3    H166233   3.707   6.000   6.537 -0.7474 -3.1824 -0.5082
14914TIP3    H266234   3.759   6.044   6.672 -0.6570  2.0470 -2.0268
14915TIP3   OH266235   0.596   2.980  14.861 -0.3951  0.4827 -0.6839
14915TIP3    H166236   0.580   3.029  14.780  0.9476  0.5679 -0.9098
14915TIP3    H266237   0.591   3.047  14.930 -0.0038  0.6938 -0.8549
14916TIP3   OH266238   2.278   5.611   1.172 -0.0794 -0.2760 -0.0520
14916TIP3    H166239   2.199   5.582   1.126 -1.0231 -2.1394  2.4992
14916TIP3    H266240   2.329   5.658   1.106 -3.0049  0.4571 -1.9715
14917TIP3   OH266241   4.409   2.996   4.970  0.0280 -0.3887 -0.3657
14917TIP3    H166242   4.421   3.082   5.010 -1.5059  0.1600 -1.0124
14917TIP3    H266243   4.384   3.015   4.880 -0.9067 -1.4766 -0.3612
14918TIP3   OH266244   2.963   6.854   4.782  0.5646 -0.3444 -0.4090
14918TIP3    H166245   2.942   6.801   4.858 -1.0937 -2.2576 -2.0658
14918TIP3    H266246   3.058   6.862   4.783  0.6608 -1.3340  1.2044
14919TIP3   OH266247   5.408   1.175  17.022 -0.1244 -0.4439 -0.6498
14919TIP3    H166248   5.337   1.238  17.009  0.6340  0.9497  1.3808
14919TIP3    H266249   5.482   1.212  16.974  1.0242  1.6550  2.4517
14920TIP3   OH266250   3.085   3.251  15.651 -0.4312  0.6053 -0.1945
14920TIP3    H166251   3.100   3.239  15.745 -0.4019 -2.3809 -0.4891
14920TIP3    H266252   3.147   3.320  15.626  2.0416 -0.8615  1.4086
14921TIP3   OH266253   2.063   0.081  16.861  0.0281 -0.1511 -0.5834
14921TIP3    H166254   2.092   0.049  16.947  0.3841  0.2542 -0.5533
14921TIP3    H266255   1.969   0.097  16.872 -0.0516 -0.6841 -0.4465
14922TIP3   OH266256   2.904   6.370   5.253 -0.0737 -0.1072 -0.3263
14922TIP3    H166257   2.885   6.427   5.328  1.4277  1.6207 -1.1813
14922TIP3    H266258   2.838   6.393   5.188 -0.4142 -0.4776 -0.1166
14923TIP3   OH266259   0.104   2.873   4.575 -0.0199  0.4001  0.8780
14923TIP3    H166260   0.079   2.923   4.497 -2.1482  0.0270  1.2341
14923TIP3    H266261   0.085   2.931   4.648  3.4410  1.3338  1.1630
14924TIP3   OH266262   1.364   6.415   2.386 -0.1771  0.0286  0.2199
14924TIP3    H166263   1.453   6.448   2.381 -0.1237 -0.2651 -0.9839
14924TIP3    H266264   1.362   6.362   2.466  1.3655 -1.7807 -0.8685
14925TIP3   OH266265   1.463   6.223  11.653  0.0028  0.6246  0.0022
14925TIP3    H166266   1.517   6.262  11.584  0.4602 -0.9861 -0.6027
14925TIP3    H266267   1.514   6.238  11.733  0.3067  1.0125 -0.2564
14926TIP3   OH266268   5.220   3.502   5.697  0.4533 -0.3330  0.2671
14926TIP3    H166269   5.157   3.439   5.732 -0.1800  0.3593  0.3895
14926TIP3    H266270   5.251   3.462   5.615 -1.5775  0.1602 -0.8035
14927TIP3   OH266271   1.189   2.213  16.897 -0.6934 -0.3043  0.0996
14927TIP3    H166272   1.101   2.214  16.859 -0.4537  1.4305 -0.4758
14927TIP3    H266273   1.238   2.276  16.845  0.3419  0.2611  1.6943
14928TIP3   OH266274   4.588   5.393  14.025  0.1352  0.0365  0.0174
14928TIP3    H166275   4.507   5.357  13.989  0.0590  0.9039 -0.7246
14928TIP3    H266276   4.653   5.378  13.957  0.4927 -0.2297  0.4136
14929TIP3   OH266277   3.586   3.265  11.263  0.0261 -0.1821 -0.0462
14929TIP3    H166278   3.539   3.182  11.253 -0.9473  0.2332  0.8388
14929TIP3    H266279   3.518   3.327  11.290  1.1560  0.3600  1.6997
14930TIP3   OH266280   4.383   1.988  13.312  0.0318 -0.2249 -0.3073
14930TIP3    H166281   4.369   2.082  13.328  0.6996 -0.2869  0.6906
14930TIP3    H266282   4.296   1.950  13.320 -0.6071  0.5448 -2.6523
14931TIP3   OH266283   5.233   1.518   1.857 -0.0788 -0.4746  0.3670
14931TIP3    H166284   5.214   1.434   1.898 -1.0930  0.5235  2.0599
14931TIP3    H266285   5.329   1.521   1.852  0.1947 -0.3196  3.5639
14932TIP3   OH266286   5.728   1.123  11.615  0.4974 -0.1662 -0.1811
14932TIP3    H166287   5.823   1.115  11.626  0.3847 -0.6484  0.4990
14932TIP3    H266288   5.710   1.215  11.634  0.9205  0.1192 -1.0994
14933TIP3   OH266289   2.824   1.244  11.422  0.3193 -0.1424  0.3728
14933TIP3    H166290   2.779   1.282  11.347 -0.0918  1.2234  1.2714
14933TIP3    H266291   2.775   1.164  11.442 -1.7326  1.2668  1.2813
14934TIP3   OH266292   4.507   6.179   1.415  0.0202  0.3628  0.1899
14934TIP3    H166293   4.593   6.147   1.386  1.5667  3.0241  1.5185
14934TIP3    H266294   4.510   6.172   1.510 -1.1091  0.8464  0.2740
14935TIP3   OH266295   6.481   6.423   2.527 -0.1266  0.5160 -0.1698
14935TIP3    H166296   6.398   6.467   2.549  0.3055  1.3019 -0.0766
14935TIP3    H266297   6.542   6.454   2.593  0.3805  0.3551 -0.5598
14936TIP3   OH266298   3.887   4.327  14.382  0.1685 -0.5591  0.0043
14936TIP3    H166299   3.895   4.399  14.320 -2.3726 -1.7120 -1.8400
14936TIP3    H266300   3.808   4.347  14.432  2.2262  0.4189  3.1851
14937TIP3   OH266301   4.246   5.026   1.468  0.5559  0.0279  0.1417
14937TIP3    H166302   4.215   4.941   1.500  1.8148  0.1744  1.8662
14937TIP3    H266303   4.230   5.023   1.374 -0.7705 -1.5319  0.3784
14938TIP3   OH266304   6.562   0.491  14.229  0.0319 -0.5368 -0.0070
14938TIP3    H166305   6.520   0.514  14.146  0.4315  2.0668  0.4179
14938TIP3    H266306   6.490   0.459  14.284 -0.6188 -0.2639 -0.6802
14939TIP3   OH266307   1.957   2.806  16.787  0.4449 -0.0572 -0.3923
14939TIP3    H166308   2.005   2.838  16.711  0.1833  0.8984 -0.1607
14939TIP3    H266309   1.865   2.823  16.767  0.4081  0.6507  0.3361
14940TIP3   OH266310   0.556   5.046  16.264  0.3269  0.1450 -0.3300
14940TIP3    H166311   0.563   5.141  16.278  0.2062  0.0864  0.1325
14940TIP3    H266312   0.482   5.019  16.318 -0.7778  0.0531 -1.8248
14941TIP3   OH266313   1.119   0.629  16.623 -0.0242 -0.3563  0.0227
14941TIP3    H166314   1.210   0.619  16.596 -0.5128  2.5860 -3.4360
14941TIP3    H266315   1.074   0.553  16.586  0.8026 -1.2268  0.7641
14942TIP3   OH266316   1.842   3.612   4.594 -0.8970  0.2783 -0.5719
14942TIP3    H166317   1.867   3.568   4.513  1.3623  1.7249 -0.7603
14942TIP3    H266318   1.919   3.604   4.651 -1.3851  1.6643  0.3532
14943TIP3   OH266319   1.854   6.328   4.125  0.0108 -0.0876 -0.0452
14943TIP3    H166320   1.791   6.308   4.194 -0.6333  1.0282 -0.3023
14943TIP3    H266321   1.931   6.275   4.148 -0.8791 -1.2098  0.4536
14944TIP3   OH266322   5.409   4.285  14.960 -0.2087 -0.3444 -0.1553
14944TIP3    H166323   5.378   4.270  15.050 -0.1798 -0.5709 -0.1817
14944TIP3    H266324   5.452   4.370  14.963 -0.4328 -0.2347 -0.0119
14945TIP3   OH266325   4.153   4.962   2.180  0.3784 -0.0979 -0.0091
14945TIP3    H166326   4.220   4.958   2.112  1.2365  0.6642  0.7710
14945TIP3    H266327   4.090   5.027   2.148 -0.2638 -1.1376 -0.9506
14946TIP3   OH266328   2.762   0.175  14.750  0.4128 -0.0687  0.4471
14946TIP3    H166329   2.718   0.146  14.829 -0.9087 -1.0065 -0.5881
14946TIP3    H266330   2.700   0.158  14.680  2.1049 -0.7019 -0.9944
14947TIP3   OH266331   1.200   0.455  14.350 -0.5851  0.1374 -0.1104
14947TIP3    H166332   1.265   0.385  14.340 -0.4526  0.0560  1.0876
14947TIP3    H266333   1.145   0.426  14.423 -1.3060  0.7132 -0.4106
14948TIP3   OH266334   6.518   4.103   0.926 -0.3223 -0.6546 -0.4530
14948TIP3    H166335   6.498   4.013   0.950 -3.2674  0.1663  0.5702
14948TIP3    H266336   6.580   4.132   0.993  0.1309 -1.7028 -0.4011
14949TIP3   OH266337   0.896   0.868  15.691  0.2991  0.0964 -0.1453
14949TIP3    H166338   0.963   0.926  15.727  2.0921 -0.5547 -2.2181
14949TIP3    H266339   0.891   0.796  15.754  2.2605 -0.2873 -0.3654
14950TIP3   OH266340   6.829   5.890   5.521  0.1481  0.2606 -0.0344
14950TIP3    H166341   6.835   5.834   5.598  2.1027  0.6354  0.1363
14950TIP3    H266342   6.877   5.842   5.453 -0.2515  0.6215 -0.5777
14951TIP3   OH266343   2.496   2.252   3.978  0.8722 -0.2165 -0.1420
14951TIP3    H166344   2.522   2.266   4.068 -1.5356 -2.4111  1.0299
14951TIP3    H266345   2.463   2.337   3.948  1.5336  0.4847  1.0864
14952TIP3   OH266346   1.537   1.811   4.175  0.0924  0.3119 -0.3372
14952TIP3    H166347   1.447   1.780   4.186 -0.0328  0.5584 -0.6617
14952TIP3    H266348   1.538   1.898   4.214  0.2601  0.2051 -0.0961
14953TIP3   OH266349   3.736   5.037  13.864  0.4596 -0.0214 -0.3192
14953TIP3    H166350   3.681   4.981  13.809  0.2606 -0.9373  0.7703
14953TIP3    H266351   3.826   5.010  13.844  0.4635  0.5383 -1.1097
14954TIP3   OH266352   0.278   0.707  14.234  0.7188  0.1466 -0.4278
14954TIP3    H166353   0.247   0.663  14.313  0.4417  0.7669 -0.1795
14954TIP3    H266354   0.219   0.782  14.225  0.0410 -0.5315 -1.8422
14955TIP3   OH266355   1.114   3.348  10.680 -0.1679  0.4927  0.4838
14955TIP3    H166356   1.078   3.355  10.591  1.2870  1.3347 -0.0841
14955TIP3    H266357   1.204   3.381  10.671  0.8526 -1.7212  1.7346
14956TIP3   OH266358   2.015   0.273  12.210  0.8039  0.2137 -0.1712
14956TIP3    H166359   2.002   0.195  12.156 -0.8860 -0.7606  1.4807
14956TIP3    H266360   2.105   0.264  12.243  1.3028  0.0120 -1.5163
14957TIP3   OH266361   1.229   3.532   1.969  0.3748  0.2778 -0.2266
14957TIP3    H166362   1.261   3.513   1.881  4.0530  1.0483  0.7822
14957TIP3    H266363   1.258   3.622   1.986  1.4760 -0.4867  2.3937
14958TIP3   OH266364   5.741   0.298   3.702 -0.6291 -0.6041 -0.6065
14958TIP3    H166365   5.710   0.372   3.649 -0.7922 -0.4401 -0.2848
14958TIP3    H266366   5.808   0.257   3.648 -1.4134 -0.9770 -1.3260
14959TIP3   OH266367   5.818   6.478   5.274 -0.0840 -0.1736 -0.1081
14959TIP3    H166368   5.882   6.406   5.272 -0.7045 -0.7241 -0.2517
14959TIP3    H266369   5.804   6.495   5.367 -0.0815 -0.3716 -0.0701
14960TIP3   OH266370   4.657   6.093  13.738 -0.2262 -0.0990 -0.4510
14960TIP3    H166371   4.736   6.112  13.687  1.4508 -1.0901  1.6004
14960TIP3    H266372   4.644   5.999  13.728 -1.3196  0.0954 -0.9608
14961TIP3   OH266373   2.257   4.199  12.676  0.7306 -0.0504 -0.0070
14961TIP3    H166374   2.328   4.184  12.615 -0.2576  0.9449 -1.4699
14961TIP3    H266375   2.181   4.217  12.621 -0.5620 -0.5987  1.4992
14962TIP3   OH266376   0.512   2.435  15.758 -0.5502 -0.0359 -0.2359
14962TIP3    H166377   0.567   2.508  15.730 -0.3673  0.3947  1.1475
14962TIP3    H266378   0.568   2.358  15.750 -0.4459  0.0938 -0.8295
14963TIP3   OH266379   3.089   1.465   0.512 -0.0417 -0.2799 -0.0730
14963TIP3    H166380   3.055   1.548   0.548  1.5486 -0.4381  1.9447
14963TIP3    H266381   3.049   1.398   0.567  1.2470 -0.6292  0.4558
14964TIP3   OH266382   1.159   0.844   0.576  0.1397  0.5257 -0.1225
14964TIP3    H166383   1.252   0.823   0.585  0.0024 -0.7204 -1.2363
14964TIP3    H266384   1.116   0.759   0.573 -0.7653  1.0024 -2.1385
14965TIP3   OH266385   3.892   4.250   3.125 -0.2798 -0.1633  0.1124
14965TIP3    H166386   3.945   4.320   3.163 -1.2288  0.5667  0.1568
14965TIP3    H266387   3.954   4.182   3.101  0.6277  0.5325  0.4405
14966TIP3   OH266388   5.678   3.773  16.530 -0.0860  0.2475  0.2509
14966TIP3    H166389   5.680   3.846  16.469  1.0245 -1.0983 -1.4260
14966TIP3    H266390   5.765   3.773  16.570  0.6380 -1.2688 -1.2204
14967TIP3   OH266391   0.049   3.056   4.804  0.2298  0.3901 -0.3584
14967TIP3    H166392   0.100   3.130   4.837  1.0596  0.0265 -0.7944
14967TIP3    H266393  -0.038   3.067   4.843  0.5537  1.1897  0.1554
14968TIP3   OH266394   4.602   5.668  11.884 -0.6013  0.2365 -0.1828
14968TIP3    H166395   4.607   5.608  11.958 -2.2785 -1.0719 -1.0489
14968TIP3    H266396   4.557   5.745  11.918  0.2583  0.4113  0.5847
14969TIP3   OH266397   5.049   5.870  11.830 -0.2662  0.0857 -0.6713
14969TIP3    H166398   5.049   5.864  11.925 -0.9422 -0.3179 -0.6858
14969TIP3    H266399   4.997   5.794  11.801 -0.3014  0.3563 -1.3449
14970TIP3   OH266400   1.681   1.434  16.965  0.5232 -0.1045 -0.2071
14970TIP3    H166401   1.704   1.478  17.047 -1.0903 -1.5417  1.0717
14970TIP3    H266402   1.604   1.481  16.934  2.6694  2.2702 -2.5192
14971TIP3   OH266403   0.868   6.629  15.205  0.2777  0.7429  0.3349
14971TIP3    H166404   0.854   6.587  15.290 -0.8528  0.6875  0.1293
14971TIP3    H266405   0.926   6.569  15.158  0.7042  0.6487  0.9581
14972TIP3   OH266406   1.089   0.482  11.148  0.1408 -0.3805 -0.1200
14972TIP3    H166407   1.165   0.424  11.138  0.0521 -0.4047 -0.7011
14972TIP3    H266408   1.024   0.447  11.088 -0.1574 -0.0760  0.0236
14973TIP3   OH266409   1.613   0.925  14.491  0.5489  0.4638  0.1594
14973TIP3    H166410   1.577   0.872  14.562  0.1220  1.5207  0.7618
14973TIP3    H266411   1.694   0.962  14.527  2.6267 -2.2539 -1.3357
14974TIP3   OH266412   6.159   5.233  14.775 -0.2492  0.2555 -0.1332
14974TIP3    H166413   6.242   5.280  14.774 -0.6923  1.0909 -1.6801
14974TIP3    H266414   6.183   5.141  14.772  0.6118  0.4804 -0.3721
14975TIP3   OH266415   1.053   6.781  15.348 -0.8300 -1.0396  0.1731
14975TIP3    H166416   1.013   6.745  15.269 -0.3185  0.5282 -0.8624
14975TIP3    H266417   1.145   6.795  15.324 -0.9700  0.7971  0.5210
14976TIP3   OH266418   0.075   3.400  11.249 -0.0595  0.2798 -0.8121
14976TIP3    H166419   0.015   3.352  11.192  0.4140 -1.7016  0.2620
14976TIP3    H266420   0.019   3.441  11.314 -0.4208  0.4880 -1.2496
14977TIP3   OH266421   2.688   1.580  15.256  0.3814 -0.1787  0.0358
14977TIP3    H166422   2.605   1.594  15.210 -0.1628  1.4968  1.3906
14977TIP3    H266423   2.742   1.531  15.195 -1.2803 -0.4763 -1.2584
14978TIP3   OH266424   5.152   1.850   4.130 -0.4586  0.1748  0.3110
14978TIP3    H166425   5.234   1.819   4.169  0.8337 -0.8410 -2.8552
14978TIP3    H266426   5.105   1.770   4.107  0.0051  0.5629 -2.2975
14979TIP3   OH266427   1.943   5.185   0.534 -0.1497 -0.2655  0.6840
14979TIP3    H166428   2.017   5.236   0.500 -0.2498  0.0373  0.9109
14979TIP3    H266429   1.890   5.249   0.581  0.0768 -0.6996  1.5485
14980TIP3   OH266430   6.155   1.615   2.050  0.1235 -0.0532  0.3061
14980TIP3    H166431   6.175   1.698   2.007 -1.1451  0.5439  0.8127
14980TIP3    H266432   6.080   1.581   2.002 -1.0826  0.4491  1.7775
14981TIP3   OH266433   1.840   4.823   5.353 -0.7653  0.4334 -0.3297
14981TIP3    H166434   1.772   4.858   5.412 -0.0273  3.0332 -0.9033
14981TIP3    H266435   1.922   4.850   5.394 -0.1428 -0.7506 -0.7924
14982TIP3   OH266436   0.468   1.508  11.821  0.3656 -0.1409 -0.0334
14982TIP3    H166437   0.551   1.554  11.838  1.6075 -1.7971 -1.2134
14982TIP3    H266438   0.492   1.439  11.759 -2.0740 -0.2440 -0.9406
14983TIP3   OH266439   1.932   5.999   1.496  0.4696  0.0201  0.4168
14983TIP3    H166440   1.934   5.994   1.592  0.0442  2.2714  0.6031
14983TIP3    H266441   2.002   6.060   1.473 -0.0069  0.2010 -0.6265
14984TIP3   OH266442   0.395   1.983  11.177 -0.5805  0.0123  0.1050
14984TIP3    H166443   0.399   1.887  11.185 -0.0084 -0.0236 -0.5718
14984TIP3    H266444   0.360   2.012  11.262  0.1714 -0.7293  0.6870
14985TIP3   OH266445   0.792   2.014  13.142  0.1396 -0.9243  0.0137
14985TIP3    H166446   0.834   2.021  13.056  2.8869 -1.3846  1.2121
14985TIP3    H266447   0.826   1.932  13.178 -0.6146 -0.5273  1.6992
14986TIP3   OH266448   1.774   4.329  11.393 -0.0358 -0.4165  0.7472
14986TIP3    H166449   1.848   4.307  11.450 -0.0828  0.0704  1.0008
14986TIP3    H266450   1.734   4.245  11.373  0.2885 -0.6401  1.0174
14987TIP3   OH266451   2.424   2.797   6.542  0.6594 -0.3557  0.0479
14987TIP3    H166452   2.402   2.890   6.534 -0.0870 -0.4078  1.2287
14987TIP3    H266453   2.360   2.752   6.487 -0.1921 -0.2792  0.9467
14988TIP3   OH266454   5.998   4.443  10.896 -0.3771 -0.2893  0.0021
14988TIP3    H166455   6.017   4.532  10.925  0.8048 -0.5548  0.0853
14988TIP3    H266456   5.927   4.454  10.832 -0.5375  0.6572  0.3151
14989TIP3   OH266457   1.680   2.619  15.706 -0.0140  0.0402  0.3602
14989TIP3    H166458   1.737   2.695  15.698 -0.8504  0.5110 -1.8528
14989TIP3    H266459   1.690   2.591  15.797  1.3344  1.9690  0.8709
14990TIP3   OH266460   0.707   6.445  11.955  0.0902 -0.2414  0.4514
14990TIP3    H166461   0.762   6.369  11.936  0.0696  0.0978 -1.1283
14990TIP3    H266462   0.618   6.415  11.939  0.0208 -0.0864  0.5457
14991TIP3   OH266463   3.261   4.763  16.046 -0.2051 -0.4497 -0.0848
14991TIP3    H166464   3.166   4.774  16.044 -0.5140 -2.6253 -0.1910
14991TIP3    H266465   3.289   4.811  16.124 -1.0983  1.7301 -1.0057
14992TIP3   OH266466   0.909   2.888  12.104  0.4531  0.4838  0.5742
14992TIP3    H166467   0.860   2.876  12.185 -0.3512  2.4638  0.4341
14992TIP3    H266468   0.858   2.842  12.038 -0.1441  0.8048  0.8013
14993TIP3   OH266469   5.027   6.331  13.094 -0.2170 -0.3977 -0.4510
14993TIP3    H166470   5.109   6.301  13.054 -0.2481 -0.9060 -0.1507
14993TIP3    H266471   5.012   6.417  13.056  2.0188  1.0596  1.7008
14994TIP3   OH266472   2.981   2.463  14.335  0.0622  0.2973 -0.0650
14994TIP3    H166473   2.942   2.550  14.328 -0.1375  0.0985 -2.0527
14994TIP3    H266474   3.011   2.443  14.246 -0.7849 -2.0668  0.1058
14995TIP3   OH266475   3.462   5.690  14.612  0.1226 -0.1147 -0.5214
14995TIP3    H166476   3.554   5.677  14.637 -0.0992 -0.5913  0.0431
14995TIP3    H266477   3.436   5.607  14.573 -0.6057 -0.6271  0.9938
14996TIP3   OH266478   6.794   1.424   1.133 -0.5588  0.0534 -0.5714
14996TIP3    H166479   6.730   1.364   1.095  0.1322 -0.8622 -0.3406
14996TIP3    H266480   6.879   1.390   1.103  0.1529 -1.6196  2.8524
14997TIP3   OH266481   0.396   6.655  13.867  0.7748 -0.2718 -0.1327
14997TIP3    H166482   0.400   6.621  13.956 -0.9938  0.2120  0.1734
14997TIP3    H266483   0.336   6.730  13.873 -0.1253 -0.7961 -1.8898
14998TIP3   OH266484   5.912   5.135   0.547 -0.0672  0.1558 -0.3854
14998TIP3    H166485   5.849   5.064   0.534 -0.5171  0.5529 -0.4351
14998TIP3    H266486   5.966   5.134   0.468  1.6056 -1.7450  0.6849
14999TIP3   OH266487   6.430   3.370   0.292 -0.2547 -0.1589 -0.3779
14999TIP3    H166488   6.407   3.307   0.360 -1.0356  1.1944  0.6746
14999TIP3    H266489   6.392   3.334   0.212  2.4771 -2.8601 -0.6388
15000TIP3   OH266490   3.381   1.183   3.780  0.8711  0.4454  0.1536
15000TIP3    H166491   3.435   1.251   3.822  1.4955  0.4469 -0.6284
15000TIP3    H266492   3.435   1.104   3.783  1.1941  0.5805 -1.1495
15001TIP3   OH266493   1.247   1.908  16.474  0.4134  0.5497  0.2565
15001TIP3    H166494   1.254   1.863  16.558  0.5012  2.5037  1.3563
15001TIP3    H266495   1.153   1.921  16.461  0.2879 -1.0142 -0.7126
15002TIP3   OH266496   6.221   2.226   5.070 -0.0271  0.2311  0.5654
15002TIP3    H166497   6.143   2.173   5.087  0.2005 -0.1070  0.5418
15002TIP3    H266498   6.289   2.189   5.126  0.9332 -1.3714 -1.5233
15003TIP3   OH266499   0.530   1.486  13.005  0.3065  0.0474 -0.4542
15003TIP3    H166500   0.477   1.557  13.042 -1.8293 -1.5410 -0.2830
15003TIP3    H266501   0.527   1.416  13.070  1.8521 -0.4699 -0.8917
15004TIP3   OH266502   4.163   0.277  11.894 -0.6091  0.2287  0.2417
15004TIP3    H166503   4.154   0.289  11.988 -1.1429 -0.8658  0.3447
15004TIP3    H266504   4.078   0.300  11.858 -1.3341 -2.0433  0.3445
15005TIP3   OH266505   4.665   2.225   5.481 -0.2035  0.4622  0.0572
15005TIP3    H166506   4.653   2.175   5.561  0.5561  0.4773  0.1882
15005TIP3    H266507   4.735   2.288   5.502  0.9406 -0.3999 -0.9938
15006TIP3   OH266508   0.010   3.130  11.353  0.4486  0.7280 -0.2329
15006TIP3    H166509  -0.082   3.132  11.380 -0.0205  0.6303 -1.7660
15006TIP3    H266510   0.054   3.186  11.417 -0.7116  0.9671  0.3856
15007TIP3   OH266511   6.601   5.008   5.719 -0.1878  0.6022  0.4906
15007TIP3    H166512   6.592   5.101   5.697 -0.5304  1.2622  3.0790
15007TIP3    H266513   6.696   4.993   5.721 -0.1378  0.6937 -0.5589
15008TIP3   OH266514   4.571   2.294  15.815  0.1735 -0.0337  0.3197
15008TIP3    H166515   4.539   2.238  15.744 -0.9416  0.8905  0.0878
15008TIP3    H266516   4.667   2.287  15.808  0.0996  0.0659 -1.3067
15009TIP3   OH266517   2.269   1.192   1.253  0.0579 -0.3115 -0.7085
15009TIP3    H166518   2.180   1.217   1.229 -1.4141 -1.8737  2.4240
15009TIP3    H266519   2.325   1.234   1.188 -2.8481  1.9265 -1.9868
15010TIP3   OH266520   6.738   1.994   1.360 -0.0881  0.2378 -0.1456
15010TIP3    H166521   6.766   1.906   1.335 -0.5914 -0.7513  2.4912
15010TIP3    H266522   6.766   2.049   1.287  0.3735 -2.0532 -1.8200
15011TIP3   OH266523   5.400   4.124  13.991  0.2659 -0.0591 -0.0403
15011TIP3    H166524   5.420   4.198  13.934 -2.7452 -0.9165 -2.4868
15011TIP3    H266525   5.345   4.160  14.060  0.6102  0.3257  0.0348
15012TIP3   OH266526   3.065   2.164  10.659 -0.1038 -0.5024 -0.3140
15012TIP3    H166527   3.022   2.213  10.588 -0.1461  0.4777  0.3786
15012TIP3    H266528   3.079   2.076  10.622 -0.5740 -0.1503 -1.3619
15013TIP3   OH266529   0.771   1.624   2.579 -0.1880  0.6430  0.0555
15013TIP3    H166530   0.758   1.558   2.647 -2.5621 -0.4359 -1.3306
15013TIP3    H266531   0.835   1.585   2.520 -0.6640  0.0861 -0.1049
15014TIP3   OH266532   0.686   5.523  13.609 -0.3683 -0.1524  0.6110
15014TIP3    H166533   0.663   5.580  13.536 -0.9482 -0.0277  0.8841
15014TIP3    H266534   0.671   5.435  13.577 -1.5938 -0.0590  0.8976
15015TIP3   OH266535   6.782   5.283  15.996  0.5960 -0.2043 -0.2300
15015TIP3    H166536   6.722   5.232  16.050  1.5343 -3.2405 -1.8039
15015TIP3    H266537   6.868   5.266  16.034  0.8271  1.2179 -0.0933
15016TIP3   OH266538   0.478   2.744  13.632 -0.2553  0.6748 -0.4813
15016TIP3    H166539   0.507   2.809  13.568  0.9708  0.3800 -0.2647
15016TIP3    H266540   0.401   2.783  13.674  0.4299  1.9737 -0.3950
15017TIP3   OH266541   0.712   1.670  13.287 -0.7405  0.0640 -0.7250
15017TIP3    H166542   0.747   1.648  13.373  0.5172  0.6106 -1.0685
15017TIP3    H266543   0.617   1.659  13.296 -0.6243  0.0058  0.6872
15018TIP3   OH266544   6.202   2.924   0.086 -0.1939  0.4274  0.2364
15018TIP3    H166545   6.181   2.958  -0.001 -1.9003  0.1084  0.4925
15018TIP3    H266546   6.141   2.969   0.145  0.0946 -0.2887  1.1040
15019TIP3   OH266547   3.016   6.506  14.386 -0.0287  0.1032 -0.3713
15019TIP3    H166548   3.108   6.511  14.361  0.1373 -0.4818  0.1124
15019TIP3    H266549   2.997   6.590  14.426  0.4003  0.0833 -0.1231
15020TIP3   OH266550   5.320   1.826   1.244  0.1391 -0.2680 -0.2773
15020TIP3    H166551   5.384   1.879   1.197 -2.4885  4.4580  0.8044
15020TIP3    H266552   5.262   1.792   1.176 -0.9753  2.7022 -1.0001
15021TIP3   OH266553   1.224   2.176  14.797  0.1379 -0.1087  0.0629
15021TIP3    H166554   1.219   2.250  14.736  1.5851 -0.2859 -0.3114
15021TIP3    H266555   1.151   2.190  14.857 -0.2950  1.0064 -0.6771
15022TIP3   OH266556   5.449   0.828   2.193  0.1204  0.1520 -0.5389
15022TIP3    H166557   5.461   0.921   2.213  0.4759 -0.1457  0.6799
15022TIP3    H266558   5.398   0.794   2.266 -0.8310 -0.4308 -1.4393
15023TIP3   OH266559   1.278   1.049   3.923  0.0350 -0.1807  0.3647
15023TIP3    H166560   1.213   1.016   3.984  0.3178 -1.1941  0.1319
15023TIP3    H266561   1.337   1.103   3.977 -0.5172  0.0785  0.7175
15024TIP3   OH266562   6.407   4.826  14.456  0.1770  0.6398  0.7258
15024TIP3    H166563   6.458   4.840  14.536 -0.4490 -0.4465  1.3453
15024TIP3    H266564   6.448   4.750  14.414  0.3403  1.0438  0.1463
15025TIP3   OH266565   3.658   0.497   5.487 -0.3096 -0.0688 -0.5822
15025TIP3    H166566   3.615   0.466   5.566 -0.1561  1.6817  0.2229
15025TIP3    H266567   3.679   0.417   5.438 -1.3728 -1.1148  0.6147
15026TIP3   OH266568   1.745   2.390  11.838 -1.0648  0.2417 -0.2014
15026TIP3    H166569   1.666   2.348  11.871  0.9720 -3.0643  0.9080
15026TIP3    H266570   1.809   2.380  11.909  0.2301  3.4782 -0.7517
15027TIP3   OH266571   0.317   0.851   0.975  0.3962 -0.6485 -0.1141
15027TIP3    H166572   0.401   0.838   1.019  2.5522  0.8809 -3.4264
15027TIP3    H266573   0.264   0.899   1.039  2.2700 -0.9790  1.7923
15028TIP3   OH266574   3.873   6.062  13.151  0.0316  0.2731  0.1012
15028TIP3    H166575   3.863   6.081  13.058  1.2090 -0.2719 -0.1490
15028TIP3    H266576   3.962   6.028  13.159 -0.6487 -1.3481  1.1444
15029TIP3   OH266577   6.538   2.987  17.060  0.8272  0.3158 -0.0138
15029TIP3    H166578   6.455   2.968  17.103  0.9994  0.7015  0.4953
15029TIP3    H266579   6.600   2.924  17.098  1.4660  1.9757  1.8879
15030TIP3   OH266580   2.164   1.849   5.731  0.6431 -0.3549 -0.2004
15030TIP3    H166581   2.156   1.780   5.797 -0.1031  0.5457  0.6643
15030TIP3    H266582   2.091   1.908   5.748  2.3690  1.7349  0.3296
15031TIP3   OH266583   6.487   6.336  14.155 -0.4085 -0.0238 -0.0444
15031TIP3    H166584   6.488   6.260  14.096 -2.4368  0.6458 -1.0475
15031TIP3    H266585   6.469   6.410  14.098  1.4125  1.2464  0.9420
15032TIP3   OH266586   6.364   3.357  16.354  0.4732  0.8491  0.0170
15032TIP3    H166587   6.370   3.328  16.445 -1.0795  0.1984 -0.0593
15032TIP3    H266588   6.388   3.280  16.303  1.7389  1.3277 -0.1458
15033TIP3   OH266589   2.258   1.017  16.016 -0.3206 -0.9473 -0.5480
15033TIP3    H166590   2.184   0.964  15.988 -1.2252 -0.0639  0.0599
15033TIP3    H266591   2.221   1.074  16.085  0.6322  0.3176 -1.0406
15034TIP3   OH266592   0.005   6.436   3.344 -0.4971  0.4852  0.3667
15034TIP3    H166593  -0.026   6.523   3.320 -1.4441  0.3955  1.2195
15034TIP3    H266594  -0.030   6.421   3.432  0.3466 -0.4240  0.5739
15035TIP3   OH266595   3.638   1.745   1.256 -0.0788  0.4585  0.4971
15035TIP3    H166596   3.683   1.748   1.171 -0.7458 -1.6979 -0.0062
15035TIP3    H266597   3.552   1.784   1.239 -0.2530 -0.0729  0.1346
15036TIP3   OH266598   3.282   5.151   3.635 -0.4798  0.1844 -0.0574
15036TIP3    H166599   3.192   5.183   3.634 -2.4087 -4.3742  0.8455
15036TIP3    H266600   3.291   5.102   3.553  0.7674 -0.3901  0.3966
15037TIP3   OH266601   1.830   6.835   0.922  0.0730 -0.3095  0.4960
15037TIP3    H166602   1.911   6.838   0.972  0.3483 -0.5011  0.0745
15037TIP3    H266603   1.848   6.772   0.852  0.5989  1.8065 -1.3845
15038TIP3   OH266604   1.443   0.735   3.800  1.2964 -0.3811 -0.1811
15038TIP3    H166605   1.440   0.818   3.752  2.8269 -0.1785  0.0089
15038TIP3    H266606   1.366   0.736   3.856  0.4451  0.1851 -1.3213
15039TIP3   OH266607   2.846   5.418   0.654 -0.0917 -0.4524 -0.2902
15039TIP3    H166608   2.881   5.361   0.586 -1.6022  0.1760 -1.6644
15039TIP3    H266609   2.826   5.500   0.608 -1.6469 -0.1869  0.7727
15040TIP3   OH266610   2.897   3.999   6.094  0.2728 -0.1917  0.1354
15040TIP3    H166611   2.892   4.092   6.115  0.5297  0.4412 -2.2623
15040TIP3    H266612   2.808   3.976   6.069  0.5737 -0.0346 -1.1718
15041TIP3   OH266613   3.866   4.908   6.256 -0.1638  0.1672  0.0110
15041TIP3    H166614   3.957   4.918   6.285 -0.2996  0.0509  0.4688
15041TIP3    H266615   3.837   4.998   6.241  0.7269  0.1439 -2.3277
15042TIP3   OH266616   1.269   6.764   3.954  0.4774  0.3376  0.0639
15042TIP3    H166617   1.207   6.800   3.892  0.8994  0.2119 -0.4386
15042TIP3    H266618   1.315   6.840   3.990 -0.5710  0.5043  1.1097
15043TIP3   OH266619   6.386   0.638  15.336 -0.2742  0.1777 -0.5184
15043TIP3    H166620   6.468   0.687  15.346 -0.2556  0.1508 -0.5379
15043TIP3    H266621   6.331   0.695  15.282 -0.6698  0.6829  0.3942
15044TIP3   OH266622   0.031   4.030  11.732  0.4942  0.4402  0.0115
15044TIP3    H166623   0.053   3.947  11.776 -0.7659  0.7759  1.3703
15044TIP3    H266624  -0.051   4.012  11.688  1.0277  0.5326 -1.0428
15045TIP3   OH266625   1.093   2.985   5.143 -0.6143  0.1405 -0.1252
15045TIP3    H166626   1.014   3.035   5.161 -0.4690 -0.1159  1.3650
15045TIP3    H266627   1.163   3.035   5.185 -0.2114 -0.3631 -0.1873
15046TIP3   OH266628   3.569   0.732   0.952  0.0897  0.4860  0.1484
15046TIP3    H166629   3.615   0.766   0.875 -0.0268 -1.1136 -0.6613
15046TIP3    H266630   3.476   0.746   0.932  0.1023  2.5790  1.2450
15047TIP3   OH266631   5.769   1.940   2.793  0.2389 -0.4777 -0.5939
15047TIP3    H166632   5.795   1.851   2.816 -0.0126  0.1938  2.8619
15047TIP3    H266633   5.729   1.975   2.874 -2.8660  1.6494 -2.7990
15048TIP3   OH266634   0.870   6.475  17.086 -0.0341 -0.1181  0.1027
15048TIP3    H166635   0.892   6.557  17.042 -0.8156  0.6365  1.0636
15048TIP3    H266636   0.914   6.481  17.171 -1.2356 -0.0402  0.7404
15049TIP3   OH266637   4.768   6.361   1.276 -0.0703 -0.3914 -0.0362
15049TIP3    H166638   4.764   6.401   1.189  0.5413  1.1518  0.6085
15049TIP3    H266639   4.717   6.420   1.332  0.8364 -0.4977  0.9379
15050TIP3   OH266640   3.035   5.481   0.851 -0.1365 -0.1992  0.7121
15050TIP3    H166641   3.069   5.405   0.898  2.3349  0.5809  0.2952
15050TIP3    H266642   3.001   5.445   0.769  0.6920 -0.9040  0.6635
15051TIP3   OH266643   6.717   4.630  15.449 -0.7330 -0.2282 -0.0031
15051TIP3    H166644   6.801   4.587  15.464 -0.3569  0.8332  1.0819
15051TIP3    H266645   6.708   4.691  15.522 -3.0660 -1.2299  0.6199
15052TIP3   OH266646   0.919   6.392   2.244 -0.7907  0.0152  0.6370
15052TIP3    H166647   0.828   6.375   2.268 -0.2233 -1.5727  1.8815
15052TIP3    H266648   0.942   6.473   2.289 -1.3613 -0.0121  0.9805
15053TIP3   OH266649   0.570   2.483  15.288  0.1463 -0.0489  0.5907
15053TIP3    H166650   0.600   2.557  15.341  0.6623  0.6014 -0.5661
15053TIP3    H266651   0.636   2.474  15.220 -1.7129  0.7820 -1.4558
15054TIP3   OH266652   2.436   5.425   2.122  0.5629 -0.0471  0.1238
15054TIP3    H166653   2.403   5.424   2.032 -0.8572  0.8419  0.6053
15054TIP3    H266654   2.407   5.510   2.157  1.4712 -0.1993  1.2855
15055TIP3   OH266655   1.116   4.996  13.918 -0.8327  0.4164  0.6858
15055TIP3    H166656   1.151   5.078  13.954 -0.2440 -0.4623  2.1810
15055TIP3    H266657   1.188   4.961  13.865 -2.3513  2.7241 -3.3456
15056TIP3   OH266658   6.415   0.781  12.842 -0.4767 -0.4072  0.0717
15056TIP3    H166659   6.462   0.859  12.871  0.4329 -0.4776 -1.1359
15056TIP3    H266660   6.417   0.722  12.918  2.0629 -0.6997 -0.1469
15057TIP3   OH266661   5.110   1.664   1.190 -0.0059  0.6515 -0.5784
15057TIP3    H166662   5.070   1.578   1.180  1.7122 -0.3473  0.6055
15057TIP3    H266663   5.054   1.709   1.253  0.6731 -0.7543  1.1183
15058TIP3   OH266664   1.996   3.287   0.380 -0.4374 -0.1021 -0.5172
15058TIP3    H166665   1.960   3.295   0.469  0.5786 -0.7682 -0.0358
15058TIP3    H266666   2.033   3.373   0.362  0.5544 -0.3472  0.2522
15059TIP3   OH266667   1.155   0.756  14.516  0.1336 -0.4899  0.2229
15059TIP3    H166668   1.072   0.767  14.469 -0.4654  0.8940  1.5021
15059TIP3    H266669   1.129   0.752  14.608  1.5172  0.4650  0.6898
15060TIP3   OH266670   0.861   3.911   6.046 -0.4230 -0.0656  0.6175
15060TIP3    H166671   0.867   3.942   5.956  1.3299 -0.5909  0.5101
15060TIP3    H266672   0.905   3.826   6.045  2.2369  1.1292  2.4408
15061TIP3   OH266673   2.987   0.768   3.789 -0.3259  0.4103  0.5505
15061TIP3    H166674   3.041   0.847   3.797  0.7984 -0.4744  3.0908
15061TIP3    H266675   2.916   0.781   3.852 -0.9409 -0.0222 -0.0414
15062TIP3   OH266676   4.130   4.175   3.913  0.0390 -0.6586  0.1040
15062TIP3    H166677   4.170   4.242   3.969  2.3471 -0.4012 -1.7397
15062TIP3    H266678   4.133   4.095   3.966 -1.2006  0.2588  1.6808
15063TIP3   OH266679   3.795   2.290   0.363 -0.1416  0.2343 -0.7186
15063TIP3    H166680   3.737   2.297   0.287  0.6731 -0.1240 -1.3966
15063TIP3    H266681   3.862   2.227   0.336  0.1952  0.1471  0.2822
15064TIP3   OH266682   4.800   5.147  16.087 -0.1143  0.6495  0.8045
15064TIP3    H166683   4.853   5.073  16.059 -0.4976  0.9913 -0.9891
15064TIP3    H266684   4.737   5.110  16.149  0.5184 -0.2626  0.9203
15065TIP3   OH266685   2.536   4.540   4.884 -0.5994 -0.0623  0.6021
15065TIP3    H166686   2.560   4.509   4.971  0.3128  0.4149  0.5306
15065TIP3    H266687   2.574   4.476   4.824  0.4849  0.6680  0.4900
15066TIP3   OH266688   1.861   4.266   4.288 -0.5659 -0.0963  0.5974
15066TIP3    H166689   1.770   4.257   4.315 -1.4849 -1.4982 -2.5444
15066TIP3    H266690   1.862   4.340   4.227  0.0263 -1.1164 -0.6740
15067TIP3   OH266691   2.747   6.577   1.080 -0.1212 -0.5536  0.0069
15067TIP3    H166692   2.758   6.544   0.991 -0.7322  0.9578 -0.6602
15067TIP3    H266693   2.652   6.585   1.091 -0.0004  1.3447 -0.0390
15068TIP3   OH266694   5.466   4.216   5.733  0.2315 -0.3545 -0.3744
15068TIP3    H166695   5.401   4.280   5.705  0.7422  0.2550 -0.1781
15068TIP3    H266696   5.495   4.247   5.819  1.1123 -0.3720 -0.6601
15069TIP3   OH266697   6.090   6.501   2.954  0.2520  0.1561  0.0187
15069TIP3    H166698   6.059   6.584   2.990  1.6101  1.6650 -2.0886
15069TIP3    H266699   6.017   6.469   2.901 -1.4988 -1.7366  3.2403
15070TIP3   OH266700   5.788   4.682   4.143  0.1257  0.4905 -0.1739
15070TIP3    H166701   5.831   4.665   4.227 -1.3943  0.7544  0.6970
15070TIP3    H266702   5.774   4.777   4.142 -1.0907  0.3336 -0.0712
15071TIP3   OH266703   3.944   0.285  15.762 -0.0770 -0.1511  0.6419
15071TIP3    H166704   3.936   0.378  15.743 -0.5404  0.2418  2.5354
15071TIP3    H266705   3.999   0.281  15.841 -1.3165 -1.3417  1.4898
15072TIP3   OH266706   2.787   6.574  13.439 -0.4405 -0.3089 -0.0470
15072TIP3    H166707   2.841   6.537  13.369 -2.2108 -0.0662 -1.6120
15072TIP3    H266708   2.845   6.576  13.515  0.9470 -2.4982 -0.9461
15073TIP3   OH266709   0.874   4.316  16.436 -0.1996  0.4329  0.3089
15073TIP3    H166710   0.845   4.228  16.457 -0.7667  0.7810  1.0526
15073TIP3    H266711   0.967   4.318  16.460  0.5488 -0.7110 -2.1483
15074TIP3   OH266712   0.170   0.784  13.635  0.3476  0.3024  0.0567
15074TIP3    H166713   0.165   0.767  13.729 -0.7508  0.3014  0.0074
15074TIP3    H266714   0.257   0.754  13.610  0.2192 -0.8161  0.8590
15075TIP3   OH266715   2.695   5.097   0.546  0.1540  0.3550  0.4380
15075TIP3    H166716   2.768   5.157   0.531 -0.4162  0.5385 -2.0140
15075TIP3    H266717   2.728   5.012   0.515 -0.7778  0.5536 -1.2501
15076TIP3   OH266718   4.809   5.167   0.619  0.0759  0.0737 -0.1026
15076TIP3    H166719   4.715   5.159   0.634  0.2302 -1.0910  0.4448
15076TIP3    H266720   4.845   5.082   0.648  1.4739  1.0597  1.2344
15077TIP3   OH266721   6.738   4.268   2.683 -0.3898 -0.4015 -0.7939
15077TIP3    H166722   6.777   4.333   2.741  1.6182  0.3332 -2.8032
15077TIP3    H266723   6.758   4.184   2.724  3.3221 -0.0622 -1.5484
15078TIP3   OH266724   4.660   5.576   2.591 -0.6775  0.3989 -0.6403
15078TIP3    H166725   4.665   5.481   2.579  0.8786  0.3192  0.3847
15078TIP3    H266726   4.588   5.589   2.653 -0.7616 -0.1128 -0.6263
15079TIP3   OH266727   0.760   5.096  11.692  0.5305 -0.1159 -0.2273
15079TIP3    H166728   0.690   5.137  11.641 -0.1117 -0.9586 -0.0483
15079TIP3    H266729   0.736   5.003  11.695  0.8440 -0.1713  1.1518
15080TIP3   OH266730   0.335   1.423  15.385 -0.2545 -0.4919 -0.5234
15080TIP3    H166731   0.391   1.473  15.325 -0.7412  0.2801 -0.3410
15080TIP3    H266732   0.258   1.401  15.332  0.3404 -1.8386 -0.8755
15081TIP3   OH266733   0.796   3.493   2.138 -0.4447 -0.4712  0.0433
15081TIP3    H166734   0.740   3.420   2.164 -0.3158 -0.0108  1.6742
15081TIP3    H266735   0.881   3.452   2.122 -0.9640 -1.0325 -1.5757
15082TIP3   OH266736   4.038   5.806   3.350  0.9687 -0.1193  0.4677
15082TIP3    H166737   3.995   5.888   3.374  1.3313 -0.3549  2.0543
15082TIP3    H266738   4.131   5.822   3.364  1.0190 -0.8770  1.0929
15083TIP3   OH266739   4.148   3.190   0.084 -0.1924  0.0697 -0.2204
15083TIP3    H166740   4.077   3.233   0.036 -0.5829 -0.3635 -0.0342
15083TIP3    H266741   4.104   3.144   0.156  0.1501 -1.1420 -0.7613
15084TIP3   OH266742   2.607   6.306  14.286  0.5013  0.2049  0.0238
15084TIP3    H166743   2.513   6.320  14.288  0.2530 -0.8196 -1.9777
15084TIP3    H266744   2.624   6.247  14.360 -0.8609 -1.6422 -1.0585
15085TIP3   OH266745   4.997   2.587  14.578 -0.2715 -0.3224 -0.2057
15085TIP3    H166746   4.946   2.583  14.659  0.9192 -0.0957  0.5966
15085TIP3    H266747   4.971   2.669  14.536 -0.1426  0.0766  0.4832
15086TIP3   OH266748   5.387   4.409   0.609 -0.5505 -0.3996 -0.1141
15086TIP3    H166749   5.351   4.397   0.522 -0.3970  1.2119 -0.4301
15086TIP3    H266750   5.311   4.422   0.666 -0.5970  1.9004 -0.5989
15087TIP3   OH266751   3.158   2.616  12.308  0.4165 -0.3413  0.2672
15087TIP3    H166752   3.181   2.607  12.401 -0.8981  1.5470  0.8428
15087TIP3    H266753   3.148   2.526  12.277 -1.1482 -1.0438  2.5197
15088TIP3   OH266754   4.285   0.446  12.293 -0.2828 -0.5981 -0.5990
15088TIP3    H166755   4.346   0.395  12.241  0.4191 -0.1459 -0.2373
15088TIP3    H266756   4.305   0.537  12.270 -1.0481 -0.4519 -0.7219
15089TIP3   OH266757   5.395   0.765   1.693 -0.0438  0.8001  0.3584
15089TIP3    H166758   5.335   0.729   1.627 -0.3230  0.6946  0.6717
15089TIP3    H266759   5.395   0.700   1.763  0.1783  0.9643  0.5108
15090TIP3   OH266760   1.430   0.920  13.951 -0.5882 -0.3516  0.3086
15090TIP3    H166761   1.404   0.977  14.024 -0.8056 -2.0221  1.5865
15090TIP3    H266762   1.520   0.895  13.971 -0.3759 -0.2037 -0.4323
15091TIP3   OH266763   4.303   5.533   4.761  0.7441  0.3819  0.2493
15091TIP3    H166764   4.309   5.491   4.846 -0.2069  1.3854  0.8289
15091TIP3    H266765   4.236   5.601   4.771 -0.1209 -0.1287 -1.5698
15092TIP3   OH266766   5.992   6.484   4.392 -0.2531 -0.0637 -0.2235
15092TIP3    H166767   5.923   6.427   4.358  1.3661 -2.1175 -0.2860
15092TIP3    H266768   6.029   6.437   4.466 -0.4572  2.1053  1.3658
15093TIP3   OH266769   0.500   6.464  16.298 -0.3501 -0.9462 -0.5589
15093TIP3    H166770   0.574   6.470  16.238 -1.0031  1.7134 -1.2149
15093TIP3    H266771   0.423   6.478  16.242 -1.2211 -1.5992  0.4414
15094TIP3   OH266772   1.127   3.329   0.821  1.3128  0.2211 -0.2588
15094TIP3    H166773   1.073   3.299   0.894  0.6738 -0.7048 -1.0951
15094TIP3    H266774   1.121   3.425   0.825  1.5900  0.2047  1.1063
15095TIP3   OH266775   6.573   6.263  12.355 -0.0357 -0.0266 -0.2159
15095TIP3    H166776   6.479   6.258  12.376 -0.2104 -0.1635 -0.9622
15095TIP3    H266777   6.615   6.291  12.436 -0.7997  0.6892 -0.0499
15096TIP3   OH266778   1.467   4.284  12.142 -0.5691 -0.1525 -0.6118
15096TIP3    H166779   1.394   4.304  12.200  1.5969  1.8944  1.6165
15096TIP3    H266780   1.498   4.197  12.170  0.8049  1.0358  1.8659
15097TIP3   OH266781   1.227   0.451  15.165 -0.7527  0.8761  0.1315
15097TIP3    H166782   1.287   0.378  15.161 -0.8517  0.7127  1.2024
15097TIP3    H266783   1.264   0.517  15.107  0.3943  0.7326  0.6849
15098TIP3   OH266784   0.934   2.437   0.132 -0.1335 -0.1244 -0.2035
15098TIP3    H166785   0.934   2.459   0.039  1.1115  0.4834 -0.0818
15098TIP3    H266786   0.901   2.516   0.175 -0.2584 -0.2359 -0.0937
15099TIP3   OH266787   3.478   6.106  14.855 -0.6941 -0.5300  0.3452
15099TIP3    H166788   3.499   6.012  14.853 -1.6996 -0.7497 -0.4109
15099TIP3    H266789   3.461   6.129  14.764 -0.9614  0.2747  0.5877
15100TIP3   OH266790   4.770   2.159   2.873 -0.2293 -0.0298  0.1933
15100TIP3    H166791   4.729   2.087   2.824 -1.1483  1.6526 -1.6912
15100TIP3    H266792   4.796   2.222   2.805  1.1200  1.1337  1.7227
15101TIP3   OH266793   1.841   3.102   6.038  0.5689 -0.5544 -0.3876
15101TIP3    H166794   1.850   3.008   6.023  1.6842 -0.2557 -1.8734
15101TIP3    H266795   1.886   3.117   6.120  1.2663 -1.1889 -0.6387
15102TIP3   OH266796   1.801   0.838   2.076  0.2194  0.2435 -1.2131
15102TIP3    H166797   1.727   0.889   2.110 -0.0026 -0.7191 -0.1764
15102TIP3    H266798   1.842   0.895   2.012  1.6933  2.9859  1.8500
15103TIP3   OH266799   1.831   4.219  13.011  0.3030  0.5908 -0.3619
15103TIP3    H166800   1.787   4.261  12.937 -1.3489 -1.4788 -0.6454
15103TIP3    H266801   1.922   4.209  12.981 -0.0520  0.8743 -1.6262
15104TIP3   OH266802   0.930   1.804   5.131  0.7044 -0.1488  0.1225
15104TIP3    H166803   0.858   1.767   5.079  0.5538  0.0972  0.1550
15104TIP3    H266804   0.997   1.827   5.067  0.5924 -0.0131  0.0538
15105TIP3   OH266805   1.372   1.196   6.204  0.3738  0.1624  0.3089
15105TIP3    H166806   1.452   1.145   6.220 -0.2377 -0.8969  0.1170
15105TIP3    H266807   1.307   1.130   6.179  0.1792  1.2547 -2.4246
15106TIP3   OH266808   1.298   4.600   0.326  0.3629 -0.5740  0.4933
15106TIP3    H166809   1.312   4.590   0.231  1.4263 -1.5419  0.7368
15106TIP3    H266810   1.207   4.630   0.333  0.1864 -0.7267 -0.8242
15107TIP3   OH266811   5.414   0.675  11.721 -0.0452 -0.0252  0.4518
15107TIP3    H166812   5.319   0.683  11.727 -0.1868 -1.5570  0.5645
15107TIP3    H266813   5.432   0.665  11.628 -0.4796 -4.1569  0.6269
15108TIP3   OH266814   5.979   2.804  16.676  0.4332  0.1529 -0.1169
15108TIP3    H166815   5.994   2.781  16.584 -0.1434 -1.1819  0.0894
15108TIP3    H266816   6.042   2.750  16.724 -0.0332  0.0080  0.3335
15109TIP3   OH266817   3.030   3.728   3.215 -0.2847  0.2584 -0.0239
15109TIP3    H166818   3.080   3.659   3.259 -1.4087  0.5491  1.8402
15109TIP3    H266819   3.097   3.785   3.176  0.7380 -0.6882  0.3021
15110TIP3   OH266820   1.349   3.077   0.701 -0.3938 -0.2385 -0.1126
15110TIP3    H166821   1.265   3.032   0.712 -0.0267 -0.7960  0.4079
15110TIP3    H266822   1.415   3.008   0.704  0.3087  0.4595  2.2970
15111TIP3   OH266823   5.145   4.361  11.945  0.5559 -0.4256  0.0958
15111TIP3    H166824   5.096   4.422  11.891  2.2687  0.9151 -0.0378
15111TIP3    H266825   5.219   4.412  11.978  0.7804 -1.8203  1.8941
15112TIP3   OH266826   0.865   4.791   0.120  0.2241  0.6212 -0.4696
15112TIP3    H166827   0.911   4.815   0.040  0.1200  1.9910 -0.1416
15112TIP3    H266828   0.773   4.813   0.103 -0.4308 -2.2350 -1.1809
15113TIP3   OH266829   6.574   3.985   4.596  0.2176  0.3003 -0.1317
15113TIP3    H166830   6.554   4.027   4.512  1.5913  1.4582  0.0917
15113TIP3    H266831   6.632   4.047   4.641  0.9535 -1.1036  0.9232
15114TIP3   OH266832   4.667   1.883   5.758  0.8526 -0.0291 -0.1401
15114TIP3    H166833   4.740   1.863   5.700  0.5743  0.2963 -0.6042
15114TIP3    H266834   4.631   1.797   5.782  0.0921 -0.1432 -1.5796
15115TIP3   OH266835   1.626   1.519   4.085  0.1170 -0.0090 -0.2513
15115TIP3    H166836   1.677   1.443   4.057 -0.8646 -0.7113 -0.1935
15115TIP3    H266837   1.618   1.573   4.006 -1.7030 -1.4446 -1.1579
15116TIP3   OH266838   3.448   4.840  13.154 -0.2191 -0.2198  0.2728
15116TIP3    H166839   3.438   4.763  13.211  0.9014 -1.6487 -1.3579
15116TIP3    H266840   3.367   4.843  13.103 -1.1496  0.9602  1.7141
15117TIP3   OH266841   4.617   4.099   5.351 -0.0110 -0.0239 -0.2772
15117TIP3    H166842   4.661   4.091   5.267 -0.6696  0.9604 -0.7329
15117TIP3    H266843   4.577   4.013   5.366  0.3209 -0.2810 -0.8444
15118TIP3   OH266844   0.913   6.850   5.847  0.4736  0.5901 -0.3965
15118TIP3    H166845   0.918   6.944   5.827 -0.5886  0.5946 -0.7050
15118TIP3    H266846   0.893   6.847   5.941  1.7940  0.6278 -0.0845
15119TIP3   OH266847   2.902   2.627  14.984 -0.2442 -0.3525  0.0867
15119TIP3    H166848   2.894   2.682  14.906 -0.4426 -0.7629 -0.1859
15119TIP3    H266849   2.991   2.594  14.981 -0.2559 -0.3789  0.0287
15120TIP3   OH266850   5.179   3.195   0.226  0.4266  0.4844  0.8242
15120TIP3    H166851   5.135   3.111   0.236 -0.5994  0.6660 -1.5991
15120TIP3    H266852   5.271   3.177   0.245  0.2527 -1.2211  0.1463
15121TIP3   OH266853   0.429   2.189   4.351  0.4019  0.1537  0.5996
15121TIP3    H166854   0.351   2.135   4.361 -1.0034  1.2446 -3.0103
15121TIP3    H266855   0.502   2.127   4.345 -0.5879 -1.0510  0.7521
15122TIP3   OH266856   5.702   4.428  12.298  0.3322  0.6806 -0.3546
15122TIP3    H166857   5.624   4.483  12.301 -0.1396  0.0838 -1.1638
15122TIP3    H266858   5.730   4.431  12.206  2.8825  3.0490  0.3472
15123TIP3   OH266859   3.051   6.213   2.534 -0.7512 -0.0882  0.3102
15123TIP3    H166860   3.024   6.261   2.613 -0.6852 -2.2107  1.6905
15123TIP3    H266861   2.980   6.230   2.472 -0.9691  1.3714  0.8956
15124TIP3   OH266862   5.079   2.610   4.613 -0.0811  0.4382  0.5605
15124TIP3    H166863   5.142   2.580   4.679 -1.2606  1.1246  2.0658
15124TIP3    H266864   4.996   2.613   4.660 -1.1471  0.0535 -1.2388
15125TIP3   OH266865   5.721   6.097  12.105 -0.0558  0.3659 -0.4829
15125TIP3    H166866   5.808   6.070  12.074  0.0536 -0.1844  0.2853
15125TIP3    H266867   5.731   6.189  12.129  0.4801  0.1423  0.1787
15126TIP3   OH266868   6.763   2.615  12.729  0.2128 -0.3159  0.1703
15126TIP3    H166869   6.723   2.640  12.812 -1.8568  2.1355 -1.4293
15126TIP3    H266870   6.849   2.657  12.730 -0.3667  0.9083  0.5273
15127TIP3   OH266871   5.463   1.707   3.426  0.2658 -0.4531 -0.2581
15127TIP3    H166872   5.396   1.640   3.420 -1.0548  0.8218 -0.4647
15127TIP3    H266873   5.479   1.733   3.335 -2.4670  2.4757 -0.0886
15128TIP3   OH266874   3.434   5.685  13.162  0.2580  0.2265 -0.2505
15128TIP3    H166875   3.394   5.604  13.132 -0.0998  1.0905 -2.2268
15128TIP3    H266876   3.380   5.712  13.236 -1.5685  0.2501 -1.5141
15129TIP3   OH266877   0.265   5.935   2.664 -0.4959 -0.4827  0.5032
15129TIP3    H166878   0.265   5.913   2.757  1.2250 -0.2128  0.5983
15129TIP3    H266879   0.298   6.025   2.661 -2.9717  0.4674 -0.2133
15130TIP3   OH266880   5.366   3.258  12.176 -0.4365 -0.2762  0.1340
15130TIP3    H166881   5.434   3.293  12.234  1.7088 -2.1158 -1.1237
15130TIP3    H266882   5.308   3.210  12.234  0.5731 -0.4767  1.0141
15131TIP3   OH266883   2.665   4.227   3.990  0.0232 -0.0022  0.9303
15131TIP3    H166884   2.681   4.182   3.907 -0.0566  1.5513  0.0338
15131TIP3    H266885   2.610   4.167   4.040  1.4308 -1.6809  0.5463
15132TIP3   OH266886   5.393   6.257   1.664  0.1921 -0.2965 -0.1416
15132TIP3    H166887   5.418   6.164   1.659 -1.4601 -0.9104  1.6827
15132TIP3    H266888   5.359   6.277   1.577 -0.1121 -1.6436 -0.3607
15133TIP3   OH266889   6.197   4.381   4.397  0.2822 -0.1181  0.2716
15133TIP3    H166890   6.155   4.458   4.437 -1.5606 -0.2037 -1.2923
15133TIP3    H266891   6.282   4.413   4.368  0.7583  0.5090  2.2166
15134TIP3   OH266892   2.300   3.815   0.335 -0.6279 -0.3547 -0.2586
15134TIP3    H166893   2.325   3.770   0.254 -0.7583 -0.6545 -0.1325
15134TIP3    H266894   2.205   3.828   0.326 -0.7457 -0.9332  0.1156
15135TIP3   OH266895   6.630   1.829  16.816 -0.2123 -0.9106 -0.5156
15135TIP3    H166896   6.651   1.863  16.729 -0.0120 -2.3033 -1.0347
15135TIP3    H266897   6.712   1.790  16.847 -0.7797 -2.1829 -0.5546
15136TIP3   OH266898   5.236   3.518  17.062  0.1935 -0.4074  0.4319
15136TIP3    H166899   5.178   3.591  17.086  1.2465  0.3716  0.6410
15136TIP3    H266900   5.314   3.529  17.116  0.9661 -0.8847 -0.5459
15137TIP3   OH266901   2.330   5.663   2.204 -0.4171 -0.1436  0.2054
15137TIP3    H166902   2.374   5.729   2.257 -1.0233  0.9238 -0.5978
15137TIP3    H266903   2.237   5.681   2.215 -0.5539  0.7039 -1.9187
15138TIP3   OH266904   0.689   6.550  16.813  0.4454  0.0385  0.1147
15138TIP3    H166905   0.700   6.541  16.718  2.5895 -0.2202  0.3358
15138TIP3    H266906   0.647   6.468  16.840 -1.4863  0.6936 -0.7433
15139TIP3   OH266907   3.234   2.084  14.320 -0.1259 -0.0558  0.1846
15139TIP3    H166908   3.151   2.086  14.368 -0.4445 -0.7954 -0.3020
15139TIP3    H266909   3.241   2.170  14.279 -0.8364 -0.1015 -0.0502
15140TIP3   OH266910   1.194   4.928  13.086  0.2307  0.3550 -0.1880
15140TIP3    H166911   1.147   4.847  13.071  0.5395  0.1016  0.1981
15140TIP3    H266912   1.281   4.913  13.048  0.7319  0.0168  1.0498
15141TIP3   OH266913   4.364   3.234   4.010  0.4284 -0.1448  0.2606
15141TIP3    H166914   4.325   3.287   3.940 -0.7993 -0.8088  0.4006
15141TIP3    H266915   4.308   3.156   4.013  1.4839 -0.8930  0.8561
15142TIP3   OH266916   5.079   0.855   5.808  0.1423 -0.0944  0.2289
15142TIP3    H166917   4.989   0.841   5.838 -0.3724 -1.7015 -1.8427
15142TIP3    H266918   5.120   0.769   5.813  1.9943  0.8282  2.2401
15143TIP3   OH266919   1.805   6.711  16.528  0.2059 -0.1909  0.2209
15143TIP3    H166920   1.740   6.666  16.582 -0.5675  0.2916 -0.3028
15143TIP3    H266921   1.811   6.658  16.449  1.6447 -1.1325  0.8999
15144TIP3   OH266922   6.247   2.062  11.098  0.0625  0.0012 -0.2055
15144TIP3    H166923   6.155   2.043  11.116  0.1690 -0.8323 -0.4777
15144TIP3    H266924   6.295   1.999  11.152  0.4043 -1.9159 -2.5847
15145TIP3   OH266925   1.530   5.532   4.141  0.4670 -0.7129 -0.2142
15145TIP3    H166926   1.531   5.594   4.068 -0.6074  1.5011  1.5348
15145TIP3    H266927   1.618   5.537   4.178  0.2391  0.2471  0.2391
15146TIP3   OH266928   5.079   6.212  15.960  0.4634  0.1948  0.2485
15146TIP3    H166929   5.044   6.289  16.005  1.1021  0.5095  0.2164
15146TIP3    H266930   5.107   6.245  15.874 -1.7643 -0.6070 -0.8726
15147TIP3   OH266931   2.345   5.857   3.842 -0.2038 -0.0530  0.0535
15147TIP3    H166932   2.284   5.905   3.785 -0.9630 -2.0532 -0.9420
15147TIP3    H266933   2.288   5.811   3.903  0.2348 -1.9666 -0.8967
15148TIP3   OH266934   2.125   5.631  15.659  0.5139  0.1192  0.0487
15148TIP3    H166935   2.058   5.692  15.628  0.4219 -0.6817 -1.4296
15148TIP3    H266936   2.113   5.553  15.605  1.4298 -0.7510  1.0564
15149TIP3   OH266937   6.173   4.035   2.406 -0.1396 -0.1850  0.3216
15149TIP3    H166938   6.223   4.085   2.470 -1.3833  0.5479  0.7551
15149TIP3    H266939   6.237   3.974   2.368  0.3673 -1.6881  3.2535
15150TIP3   OH266940   3.126   5.634  12.926  0.2092 -0.4624 -0.4223
15150TIP3    H166941   3.092   5.641  13.015  0.7104 -0.5758 -0.2161
15150TIP3    H266942   3.055   5.664  12.870  0.6978  2.0349  0.1479
15151TIP3   OH266943   2.106   3.589  14.330 -0.1257  0.4649  0.0022
15151TIP3    H166944   2.013   3.611  14.329 -0.5183 -1.0547  0.2805
15151TIP3    H266945   2.149   3.670  14.356 -1.3657  1.1907 -0.0963
15152TIP3   OH266946   6.549   2.292   0.253  0.3957  0.0003 -0.2009
15152TIP3    H166947   6.548   2.220   0.316  0.1763  0.1785 -0.0000
15152TIP3    H266948   6.600   2.361   0.296  1.8802 -0.5667 -0.9879
15153TIP3   OH266949   2.982   2.171   0.353  0.5828 -0.4991  0.3705
15153TIP3    H166950   2.986   2.216   0.269  0.5293 -0.9590  0.1164
15153TIP3    H266951   3.064   2.194   0.396  1.0855 -1.0892 -0.2474
15154TIP3   OH266952   5.465   5.056  13.225  0.0546  0.1815  0.1349
15154TIP3    H166953   5.501   4.991  13.165 -1.0344  0.1875 -0.5459
15154TIP3    H266954   5.385   5.015  13.259  1.4148 -0.4796  2.8142
15155TIP3   OH266955   3.364   1.526   0.299  0.3614 -0.1095 -0.3066
15155TIP3    H166956   3.272   1.501   0.289 -0.0066  1.5245 -1.3441
15155TIP3    H266957   3.365   1.581   0.378  0.5704 -0.5666  0.0184
15156TIP3   OH266958   0.450   2.950   2.152 -0.5165 -0.1252  0.3415
15156TIP3    H166959   0.372   2.998   2.180  0.5791  0.0980  3.3551
15156TIP3    H266960   0.442   2.864   2.194  0.2241 -0.6034 -0.4506
15157TIP3   OH266961   3.253   3.479  13.753 -0.5250 -0.6723 -0.0695
15157TIP3    H166962   3.277   3.569  13.774  0.0530 -1.4071  2.7264
15157TIP3    H266963   3.328   3.426  13.779  0.0131 -1.9162 -3.5210
15158TIP3   OH266964   2.643   3.536   2.308  0.2203  0.8359  0.0067
15158TIP3    H166965   2.708   3.545   2.238  0.0835 -1.0498 -0.4228
15158TIP3    H266966   2.685   3.573   2.386  1.2250  0.9984 -0.6063
15159TIP3   OH266967   3.803   6.377   4.339 -0.1824  0.6640 -0.5118
15159TIP3    H166968   3.758   6.308   4.388  1.2714 -0.0268 -0.0897
15159TIP3    H266969   3.779   6.360   4.248  0.6456 -0.8387 -0.4907
15160TIP3   OH266970   2.453   0.351   2.251  0.3182  0.4994  0.1591
15160TIP3    H166971   2.507   0.322   2.178  0.0914 -1.4974  0.7296
15160TIP3    H266972   2.484   0.439   2.271  1.5907  0.3809 -1.1876
15161TIP3   OH266973   5.918   1.476   4.326 -0.4168  0.3170 -0.0487
15161TIP3    H166974   5.984   1.435   4.381  1.2021 -0.9406 -2.7067
15161TIP3    H266975   5.910   1.566   4.359  2.7312  0.5508  0.3033
15162TIP3   OH266976   1.421   6.134   2.831 -0.6393 -0.0439 -0.2769
15162TIP3    H166977   1.412   6.218   2.874  2.3605 -0.0431  0.6194
15162TIP3    H266978   1.417   6.070   2.902 -2.1645 -0.6237 -0.8577
15163TIP3   OH266979   0.679   5.275  11.229  0.2181 -0.2976 -0.2080
15163TIP3    H166980   0.682   5.200  11.289 -4.1616 -0.2900  0.3836
15163TIP3    H266981   0.595   5.267  11.185  0.6286  3.0010 -1.9447
15164TIP3   OH266982   4.103   3.693   0.544 -0.0585 -0.1777 -0.3883
15164TIP3    H166983   4.097   3.600   0.521 -1.0055 -0.2637  0.1222
15164TIP3    H266984   4.131   3.737   0.464  2.0268 -1.0782 -0.2055
15165TIP3   OH266985   2.064   5.719   2.278 -0.2636  0.4334 -0.0008
15165TIP3    H166986   2.008   5.788   2.243 -0.6858  0.2947  0.3874
15165TIP3    H266987   2.122   5.763   2.340  0.7095  0.7347 -1.0965
15166TIP3   OH266988   1.661   6.789   4.839  0.6140 -0.5404  0.0351
15166TIP3    H166989   1.677   6.847   4.765 -2.3702 -0.2075 -0.4733
15166TIP3    H266990   1.706   6.708   4.816  0.1709 -0.2761 -1.9252
15167TIP3   OH266991   3.163   2.347  11.311 -0.1676 -0.7837  0.0285
15167TIP3    H166992   3.074   2.344  11.277 -0.5041  0.3173  0.7897
15167TIP3    H266993   3.157   2.397  11.392  1.0199 -1.3409  0.4940
15168TIP3   OH266994   0.891   6.773  13.242  0.8789  0.1454  0.6724
15168TIP3    H166995   0.919   6.683  13.262 -0.4164 -0.3899  0.1537
15168TIP3    H266996   0.837   6.764  13.164 -1.0335  1.0835  1.8317
15169TIP3   OH266997   1.939   5.657  12.916  0.1362  0.0835 -0.4526
15169TIP3    H166998   1.949   5.648  13.011 -1.8109  0.3707 -0.1909
15169TIP3    H266999   1.928   5.751  12.901 -3.0796 -0.2200 -0.5151
15170TIP3   OH267000   2.571   4.447  14.362 -0.0628  0.1421  0.0130
15170TIP3    H167001   2.479   4.446  14.390  0.3580 -1.0942  1.5053
15170TIP3    H267002   2.575   4.515  14.295 -1.8417  0.9624  0.6779
15171TIP3   OH267003   0.937   2.530  11.013  0.0867  0.3843 -0.1307
15171TIP3    H167004   1.012   2.573  11.055 -0.2757  0.5675  0.3310
15171TIP3    H267005   0.932   2.445  11.056  0.4554  0.0929 -0.6513
15172TIP3   OH267006   4.499   5.323   6.588 -0.3816  0.8883  0.2059
15172TIP3    H167007   4.568   5.357   6.646  0.1483  1.4185 -0.7142
15172TIP3    H267008   4.418   5.334   6.638  0.2732 -0.8138  1.8045
15173TIP3   OH267009   1.493   1.464   4.964  0.3575 -0.1852  0.6912
15173TIP3    H167010   1.545   1.518   4.904  1.4203 -1.1192  0.7335
15173TIP3    H267011   1.558   1.408   5.007 -0.5366 -0.4142  1.7879
15174TIP3   OH267012   4.382   2.985   0.037  0.3783 -0.1121 -0.0430
15174TIP3    H167013   4.357   3.022   0.122 -0.9071  0.5953 -0.6892
15174TIP3    H267014   4.299   2.952   0.001  1.0545 -1.1983 -0.6574
15175TIP3   OH267015   1.373   3.414   5.053 -0.6016  0.4414 -0.4798
15175TIP3    H167016   1.416   3.416   5.138  1.3550  0.7986 -1.4150
15175TIP3    H267017   1.309   3.343   5.059 -0.5524  0.5141  1.2881
15176TIP3   OH267018   4.288   3.756  10.721 -0.0508 -0.2405  0.1317
15176TIP3    H167019   4.271   3.821  10.789 -0.2459  0.6544 -0.7484
15176TIP3    H267020   4.241   3.789  10.644  2.2391  0.1816 -1.2080
15177TIP3   OH267021   4.812   6.297  14.704  0.4834 -0.4813 -0.1582
15177TIP3    H167022   4.861   6.337  14.776 -1.5194 -0.4418  1.2612
15177TIP3    H267023   4.790   6.209  14.736 -0.6841 -0.3626 -0.6019
15178TIP3   OH267024   2.524   3.496   4.778  0.4156  0.3009 -0.2060
15178TIP3    H167025   2.498   3.415   4.822 -1.2494  0.1872 -1.2968
15178TIP3    H267026   2.619   3.499   4.788  0.4347 -1.3781  0.5287
15179TIP3   OH267027   6.330   4.740  15.962  0.5135 -0.0875  0.1620
15179TIP3    H167028   6.256   4.799  15.946  0.7554 -0.0818 -1.0674
15179TIP3    H267029   6.404   4.800  15.979  0.3583 -0.0847  0.8608
15180TIP3   OH267030   0.409   2.749   6.050  0.1550  0.0642 -0.2775
15180TIP3    H167031   0.469   2.679   6.077  0.5543  0.5570  0.1223
15180TIP3    H267032   0.392   2.732   5.958 -0.2257 -0.9096 -0.0415
15181TIP3   OH267033   6.815   5.752  13.646  0.0443 -0.1692  0.4745
15181TIP3    H167034   6.771   5.695  13.582 -0.7542  1.6723 -0.6810
15181TIP3    H267035   6.774   5.837  13.635  1.8994  0.9173  1.4470
15182TIP3   OH267036   6.332   5.392   2.490 -0.1518 -0.0531 -0.4223
15182TIP3    H167037   6.320   5.308   2.533  0.3950  0.0069 -0.1435
15182TIP3    H267038   6.379   5.446   2.554  1.5217 -0.2650 -1.4126
15183TIP3   OH267039   5.698   2.954   2.566  0.0549  0.0688  0.1573
15183TIP3    H167040   5.781   2.994   2.591 -1.1933  2.2119  1.2061
15183TIP3    H267041   5.672   3.000   2.486 -0.2857 -0.2805  0.0654
15184TIP3   OH267042   1.825   5.331  14.370 -0.0151  0.0740 -0.4852
15184TIP3    H167043   1.848   5.239  14.357  0.9483  0.5030 -2.1676
15184TIP3    H267044   1.740   5.341  14.328 -0.4389 -0.1713  0.2916
15185TIP3   OH267045   5.179   6.362  15.760 -0.6142  0.4852  0.9042
15185TIP3    H167046   5.143   6.420  15.693 -1.4061 -0.0172  0.8799
15185TIP3    H267047   5.266   6.339  15.727 -1.3351 -0.4738 -0.4172
15186TIP3   OH267048   0.784   5.421  15.012 -0.3371 -0.4555  0.0113
15186TIP3    H167049   0.815   5.468  14.935 -1.5495 -0.7176 -0.6691
15186TIP3    H267050   0.827   5.336  15.007  2.2765  0.6850  1.5335
15187TIP3   OH267051   0.210   3.624   0.897 -0.3840 -0.2323  0.1255
15187TIP3    H167052   0.279   3.566   0.930  0.0633  0.3698  0.2768
15187TIP3    H267053   0.237   3.711   0.927 -1.0569  0.0473 -0.0786
15188TIP3   OH267054   3.643   3.236  14.671  0.0943 -0.1741 -0.7334
15188TIP3    H167055   3.637   3.325  14.705 -3.3133 -1.2794  2.2043
15188TIP3    H267056   3.727   3.204  14.703  0.1859  1.1762  0.4894
15189TIP3   OH267057   6.011   0.570  12.102 -0.1074  0.0944  0.3021
15189TIP3    H167058   5.926   0.585  12.143 -0.6089  1.5654 -1.1484
15189TIP3    H267059   5.996   0.498  12.041 -0.2301  0.0845  0.3444
15190TIP3   OH267060   1.215   4.015   3.042  0.2815 -0.4647 -0.2402
15190TIP3    H167061   1.244   4.106   3.047 -0.7036 -0.1359 -0.1792
15190TIP3    H267062   1.293   3.965   3.019  0.9125  0.3490  0.1264
15191TIP3   OH267063   6.720   3.780  11.059  0.2200  0.0835 -0.0416
15191TIP3    H167064   6.652   3.806  10.997  0.5084  0.6017 -0.1476
15191TIP3    H267065   6.709   3.685  11.069  1.3832 -0.3459 -2.3656
15192TIP3   OH267066   3.703   4.992   2.074 -0.1853  0.2741 -0.6525
15192TIP3    H167067   3.713   4.901   2.100 -0.0408 -0.0309 -1.7033
15192TIP3    H267068   3.788   5.031   2.090  0.8933 -0.6731 -3.4087
15193TIP3   OH267069   0.672   2.214  14.921  0.6382  0.3431 -0.0467
15193TIP3    H167070   0.591   2.167  14.940  1.2530 -0.3161  1.0650
15193TIP3    H267071   0.647   2.305  14.914 -0.3259  0.0480 -0.5599
15194TIP3   OH267072   0.884   3.145   5.249 -0.2446  0.5190  0.7336
15194TIP3    H167073   0.929   3.229   5.255 -0.0793  0.3782  1.7213
15194TIP3    H267074   0.807   3.162   5.195 -1.1317  1.7325  2.3056
15195TIP3   OH267075   1.847   0.946  12.510 -0.4130 -0.0751 -0.0041
15195TIP3    H167076   1.787   0.993  12.568  1.2761  1.9978  0.2230
15195TIP3    H267077   1.929   0.941  12.560  0.4665 -0.1562 -1.3908
15196TIP3   OH267078   3.061   6.680   0.328 -0.0913 -0.3811  0.1974
15196TIP3    H167079   3.062   6.738   0.404 -2.3388 -0.2925  0.2338
15196TIP3    H267080   3.129   6.615   0.346  1.4211  1.3276  0.8684
15197TIP3   OH267081   4.181   4.664  11.587  0.1604 -0.1654  0.2094
15197TIP3    H167082   4.248   4.678  11.654  1.3863 -0.4587 -0.9420
15197TIP3    H267083   4.221   4.692  11.505 -0.9822 -0.7325 -0.5756
15198TIP3   OH267084   5.505   6.557  16.347 -0.1608 -0.2848  0.0841
15198TIP3    H167085   5.445   6.511  16.289  0.8247 -1.0956 -0.3338
15198TIP3    H267086   5.545   6.625  16.293  1.0740 -1.3135 -0.3565
15199TIP3   OH267087   6.619   4.500  15.727 -0.2019 -0.2010 -0.3543
15199TIP3    H167088   6.683   4.571  15.721  0.1672 -0.4719  0.2427
15199TIP3    H267089   6.643   4.439  15.658  0.1641 -0.2844 -0.1556
15200TIP3   OH267090   2.813   0.426   2.321 -0.3683  0.4849 -0.2261
15200TIP3    H167091   2.869   0.369   2.374 -0.1657 -0.1478 -1.0939
15200TIP3    H267092   2.752   0.367   2.278 -1.0382  1.0695 -0.0896
15201TIP3   OH267093   1.109   3.994  14.602  0.3717  0.4817 -0.1042
15201TIP3    H167094   1.148   4.080  14.586  0.3596  0.0586 -3.0110
15201TIP3    H267095   1.181   3.941  14.636  0.4150  1.5385  1.5795
15202TIP3   OH267096   6.103   6.762  15.669  0.1339 -0.3869 -0.7146
15202TIP3    H167097   6.055   6.807  15.739  1.0952 -1.0109  0.3841
15202TIP3    H267098   6.142   6.832  15.618 -0.5172  0.0842 -0.5804
15203TIP3   OH267099   5.893   4.689   2.141 -0.5846 -0.2446 -0.3330
15203TIP3    H167100   5.954   4.679   2.214 -1.1308 -0.8917  0.0537
15203TIP3    H267101   5.946   4.724   2.070 -0.2539  1.4025  0.6656
15204TIP3   OH267102   5.359   5.604  16.109  0.0937  0.1920 -0.1669
15204TIP3    H167103   5.320   5.518  16.092  1.3138  0.0044 -2.2895
15204TIP3    H267104   5.293   5.667  16.079 -0.5794  0.0071  0.8900
15205TIP3   OH267105   5.453   3.978   2.845 -0.0717 -0.4128 -0.1631
15205TIP3    H167106   5.424   3.951   2.758  1.3340  0.0356 -0.7924
15205TIP3    H267107   5.546   3.957   2.847  0.2062  0.8167  0.7395
15206TIP3   OH267108   5.842   2.312  16.934 -0.4086  0.2030  0.4202
15206TIP3    H167109   5.812   2.324  17.024 -0.6757  0.1093  0.3460
15206TIP3    H267110   5.917   2.252  16.941 -0.1943  0.4957  0.6147
15207TIP3   OH267111   1.876   2.584   3.804 -0.1501 -0.1126  0.3671
15207TIP3    H167112   1.928   2.544   3.874  1.3561 -1.3609 -1.3565
15207TIP3    H267113   1.816   2.644   3.849  1.3533 -0.1924  2.6195
15208TIP3   OH267114   5.028   2.487  15.247  0.2940 -0.1598  0.9210
15208TIP3    H167115   5.004   2.395  15.237 -2.1942  0.5150 -0.1317
15208TIP3    H267116   4.982   2.531  15.176  0.5002  2.0307  2.0731
15209TIP3   OH267117   2.466   1.334  14.574 -0.0003  0.0986  0.3152
15209TIP3    H167118   2.374   1.357  14.587 -0.3177 -0.7931 -0.2545
15209TIP3    H267119   2.468   1.238  14.577  0.5242 -0.0183 -1.9025
15210TIP3   OH267120   5.130   5.724  15.926 -0.2092 -0.5035  0.5063
15210TIP3    H167121   5.136   5.651  15.864 -0.2130 -1.2030  1.2997
15210TIP3    H267122   5.049   5.708  15.974  1.4713 -2.0220  3.1113
15211TIP3   OH267123   4.719   5.219  13.238 -0.3923  0.2828 -0.0772
15211TIP3    H167124   4.685   5.303  13.266 -0.6354  0.8598 -1.9272
15211TIP3    H267125   4.814   5.232  13.233 -0.4691  0.6057 -0.7996
15212TIP3   OH267126   1.625   0.980  10.323  0.3114  0.2322 -0.1086
15212TIP3    H167127   1.596   1.030  10.246  0.5247  0.4941 -0.0190
15212TIP3    H267128   1.654   0.896  10.288  0.0932  0.2259 -0.2771
15213TIP3   OH267129   4.355   6.485   1.210  0.1823  0.1183 -0.3484
15213TIP3    H167130   4.426   6.478   1.273 -0.9187 -1.0288  0.8075
15213TIP3    H267131   4.357   6.403   1.161 -1.2623 -0.5977  0.7275
15214TIP3   OH267132   5.483   4.463   1.868 -0.4295  0.8134  0.1519
15214TIP3    H167133   5.504   4.518   1.792  1.4900 -0.8108 -0.5792
15214TIP3    H267134   5.566   4.454   1.915 -0.6805 -1.3457  0.2769
15215TIP3   OH267135   5.600   4.465   5.122 -0.0950  0.3402 -0.1842
15215TIP3    H167136   5.563   4.378   5.134 -1.0583  0.7776  0.1778
15215TIP3    H267137   5.600   4.479   5.028 -0.1734  0.0407 -0.2283
15216TIP3   OH267138   4.419   3.567   0.274 -0.2357 -0.3812  0.0398
15216TIP3    H167139   4.410   3.485   0.224  1.1018  0.0424 -0.9585
15216TIP3    H267140   4.436   3.633   0.207  1.4614  0.2442  1.0482
15217TIP3   OH267141   0.791   6.828   1.443 -0.4327 -0.2632 -0.6326
15217TIP3    H167142   0.748   6.896   1.392  0.7785  0.6752 -0.4601
15217TIP3    H267143   0.801   6.866   1.530  0.7471 -0.4372 -0.6769
15218TIP3   OH267144   3.892   3.803   2.350 -0.1984 -0.5965 -0.5051
15218TIP3    H167145   3.893   3.776   2.258 -0.4082 -3.3786  0.2495
15218TIP3    H267146   3.802   3.790   2.378  0.0446 -0.5293  0.3213
15219TIP3   OH267147   6.672   1.457  10.588 -0.2460 -0.1497 -0.0901
15219TIP3    H167148   6.641   1.464  10.498 -0.7016 -0.3034  0.0500
15219TIP3    H267149   6.592   1.448  10.640  0.0898 -1.7825  0.1740
15220TIP3   OH267150   0.514   0.056   5.822 -0.0165 -0.5818  0.1938
15220TIP3    H167151   0.424   0.072   5.793  0.6529  0.3831 -1.4884
15220TIP3    H267152   0.508   0.056   5.918 -2.1065 -2.5906  0.1519
15221TIP3   OH267153   2.601   5.802   1.388  0.1752 -0.1261 -0.1354
15221TIP3    H167154   2.600   5.846   1.473 -0.6365 -0.3780 -0.0090
15221TIP3    H267155   2.510   5.781   1.370  0.4944 -1.3280 -0.4287
15222TIP3   OH267156   1.795   6.184   1.884  0.1925 -0.1055  0.2041
15222TIP3    H167157   1.715   6.210   1.839  0.2251 -0.7894 -0.2716
15222TIP3    H267158   1.845   6.264   1.894 -0.8514  0.4685  1.1404
15223TIP3   OH267159   4.396   6.171   0.260  0.1847 -0.3685 -0.3998
15223TIP3    H167160   4.303   6.148   0.264 -0.3732  1.7186 -0.2506
15223TIP3    H267161   4.397   6.265   0.243  2.2967 -0.6653 -2.4769
15224TIP3   OH267162   5.391   5.437  14.867  0.0266  0.6399  0.8047
15224TIP3    H167163   5.363   5.373  14.931 -1.3570 -1.3721 -1.6257
15224TIP3    H267164   5.456   5.391  14.813 -3.1568 -0.0940 -2.8920
15225TIP3   OH267165   4.192   2.214   0.050 -0.5758  0.2744 -0.0148
15225TIP3    H167166   4.127   2.182  -0.013 -0.8044 -0.9001  0.7939
15225TIP3    H267167   4.275   2.178   0.018 -0.7043 -0.3952  0.3916
15226TIP3   OH267168   6.508   0.803   3.675  0.3975  0.2499  0.5078
15226TIP3    H167169   6.544   0.872   3.619  0.6100  0.6647  1.1441
15226TIP3    H267170   6.585   0.754   3.704  0.1759 -0.8770 -0.7226
15227TIP3   OH267171   2.817   2.650   0.644  0.4070  0.2484 -0.2192
15227TIP3    H167172   2.897   2.672   0.690  0.5029  0.2313 -0.3783
15227TIP3    H267173   2.845   2.597   0.570  0.1169 -0.9886  0.5268
15228TIP3   OH267174   0.386   5.865  16.223 -0.3876  0.0929  0.3899
15228TIP3    H167175   0.450   5.936  16.217  0.2626 -0.6135 -2.6970
15228TIP3    H267176   0.431   5.797  16.273  1.1756 -0.2028 -1.3114
15229TIP3   OH267177   2.343   1.146   5.781  0.6940  1.0111 -0.0283
15229TIP3    H167178   2.311   1.210   5.718 -0.8661  0.6349  0.3342
15229TIP3    H267179   2.438   1.153   5.777  0.5961  1.6753 -1.6981
15230TIP3   OH267180   4.040   1.426   4.490 -0.6848  0.0814  0.8369
15230TIP3    H167181   4.105   1.479   4.443 -0.6036 -0.7327  0.0117
15230TIP3    H267182   3.968   1.487   4.507  0.6228  1.2637  2.5697
15231TIP3   OH267183   2.728   4.308   4.809  0.1175 -0.2989  0.3837
15231TIP3    H167184   2.774   4.351   4.738 -0.7114  1.3201  0.7680
15231TIP3    H267185   2.796   4.286   4.872  0.6522 -0.2174 -0.1551
15232TIP3   OH267186   3.792   4.962   0.235 -0.3133  0.1449 -0.0687
15232TIP3    H167187   3.765   5.015   0.310 -2.2426 -1.7394  0.6781
15232TIP3    H267188   3.718   4.968   0.174 -0.5535 -1.5618  0.0047
15233TIP3   OH267189   4.562   6.180  11.943  0.8215  0.3501 -0.4913
15233TIP3    H167190   4.496   6.194  12.011  0.7800 -2.7882  0.2878
15233TIP3    H267191   4.559   6.260  11.890 -1.5085  1.5376  1.2162
15234TIP3   OH267192   1.107   0.677   4.242  0.2769  0.2326  0.2847
15234TIP3    H167193   1.181   0.647   4.295  0.6336  2.9186  1.4972
15234TIP3    H267194   1.080   0.600   4.192  2.7320 -1.3000  1.1328
15235TIP3   OH267195   0.852   5.544   6.107 -0.0143  0.9782  0.2736
15235TIP3    H167196   0.792   5.475   6.081 -1.1585  1.3329  1.8350
15235TIP3    H267197   0.909   5.557   6.031  0.9335 -2.3632  0.2574
15236TIP3   OH267198   0.392   0.157  13.667 -0.4100  0.3392 -1.1942
15236TIP3    H167199   0.366   0.103  13.742 -0.0534  2.0644  0.2432
15236TIP3    H267200   0.309   0.186  13.629 -0.5952 -0.7255 -1.6307
15237TIP3   OH267201   6.003   3.741   0.979  0.3949  0.6630 -0.6071
15237TIP3    H167202   6.004   3.645   0.979  0.6359  0.6618 -0.1487
15237TIP3    H267203   5.933   3.764   0.918  0.0497  0.1879 -0.3976
15238TIP3   OH267204   3.175   5.489  13.723  0.4881 -0.2916  0.0131
15238TIP3    H167205   3.101   5.470  13.665  0.5142 -0.3914  0.0127
15238TIP3    H267206   3.152   5.573  13.764  1.6811  1.1944 -2.1471
15239TIP3   OH267207   5.978   5.307  12.094 -0.3733 -0.0770 -0.3326
15239TIP3    H167208   5.986   5.348  12.180 -0.3792  0.4327 -0.5749
15239TIP3    H267209   5.955   5.378  12.035  2.2294  0.1172 -1.2505
15240TIP3   OH267210   4.251   4.104   4.594  0.2949  0.1823  0.2156
15240TIP3    H167211   4.258   4.013   4.563 -2.1109 -0.9704  2.6996
15240TIP3    H267212   4.220   4.097   4.684  0.3865  3.5065  0.6329
15241TIP3   OH267213   0.911   4.368   4.069  0.2027 -0.4683  0.1611
15241TIP3    H167214   0.823   4.333   4.082  0.2689 -0.7652 -0.1696
15241TIP3    H267215   0.897   4.452   4.026 -0.0394  0.6854  2.3297
15242TIP3   OH267216   2.998   1.826  15.325  0.6310 -0.5286 -0.2285
15242TIP3    H167217   2.951   1.767  15.384  0.7784  0.1454  0.5801
15242TIP3    H267218   2.931   1.863  15.269 -0.1398  1.7666  2.0525
15243TIP3   OH267219   4.633   6.618   1.817  0.2069  0.3946  0.0240
15243TIP3    H167220   4.721   6.654   1.831  0.0319  1.6004 -1.6630
15243TIP3    H267221   4.575   6.693   1.829 -0.5096 -0.1803  0.1713
15244TIP3   OH267222   1.022   1.503  11.174 -0.5793 -0.6833  0.2029
15244TIP3    H167223   1.060   1.465  11.095  2.0890 -0.2468  1.1684
15244TIP3    H267224   1.030   1.597  11.162 -0.0933 -0.6120  1.0051
15245TIP3   OH267225   0.793   6.189  17.113  0.1415  0.0375 -0.0846
15245TIP3    H167226   0.803   6.284  17.109 -3.3757  0.5203 -0.6672
15245TIP3    H267227   0.840   6.156  17.036  2.0557  1.1230  0.5344
15246TIP3   OH267228   0.803   3.931  15.823 -0.2642  0.3830  0.2960
15246TIP3    H167229   0.827   3.885  15.742 -1.5408 -0.3634  0.3049
15246TIP3    H267230   0.874   3.912  15.883 -0.7583 -1.7182  0.3106
15247TIP3   OH267231   4.939   3.222  16.865  0.1153  0.4213  0.0316
15247TIP3    H167232   4.861   3.275  16.847 -0.9655 -1.0741  0.1189
15247TIP3    H267233   4.973   3.256  16.948 -1.1122  0.3582  0.5741
15248TIP3   OH267234   3.098   0.628  11.918  0.4591 -0.3567  0.5973
15248TIP3    H167235   3.047   0.689  11.864 -0.6514 -1.7511  0.0043
15248TIP3    H267236   3.043   0.613  11.995  0.4845 -0.9852  0.4991
15249TIP3   OH267237   4.750   4.784  15.497 -0.0999  0.0735 -0.2344
15249TIP3    H167238   4.661   4.749  15.503  0.3457 -1.0084  0.4082
15249TIP3    H267239   4.774   4.802  15.588  0.6077 -0.3659 -0.3296
15250TIP3   OH267240   5.657   4.640   4.905  0.0112 -0.3208  0.6438
15250TIP3    H167241   5.721   4.694   4.951 -0.1981  1.5141 -1.0930
15250TIP3    H267242   5.708   4.566   4.871  0.1775 -1.7309  3.6215
15251TIP3   OH267243   1.372   4.747   4.831  0.3745 -0.0895 -0.1566
15251TIP3    H167244   1.466   4.748   4.811  0.3475  0.3792 -0.2824
15251TIP3    H267245   1.366   4.705   4.916  0.5189 -1.8726 -0.9898
15252TIP3   OH267246   2.495   2.882   5.670  0.5616  0.9428 -0.2731
15252TIP3    H167247   2.441   2.903   5.745  1.0874  0.1199  0.3491
15252TIP3    H267248   2.570   2.942   5.677 -0.1639  1.9883 -1.0602
15253TIP3   OH267249   5.333   2.494   3.855  0.2055 -0.2075 -0.3908
15253TIP3    H167250   5.271   2.542   3.799  0.7890 -0.0607 -0.9265
15253TIP3    H267251   5.393   2.562   3.888 -0.5263 -0.1905  0.9678
15254TIP3   OH267252   4.598   5.628   5.578  0.0639 -0.5972  0.1994
15254TIP3    H167253   4.634   5.548   5.540 -0.3164 -0.4931 -0.3989
15254TIP3    H267254   4.639   5.699   5.528  1.9823 -0.2859  2.0498
15255TIP3   OH267255   3.470   6.079   3.096 -0.4828 -0.3745  0.3907
15255TIP3    H167256   3.475   6.127   3.179  0.0982 -0.5635  0.4723
15255TIP3    H267257   3.441   5.991   3.120  1.3586 -0.9719  0.6475
15256TIP3   OH267258   4.016   4.522   0.801  0.0639  0.1474  0.4110
15256TIP3    H167259   4.101   4.478   0.807 -0.3397 -0.5547  1.0225
15256TIP3    H267260   3.960   4.476   0.862 -1.3011 -0.5548 -1.2846
15257TIP3   OH267261   5.950   5.291   3.829 -0.0097 -0.3879  0.2804
15257TIP3    H167262   5.942   5.355   3.759 -0.6512 -1.4160 -0.6275
15257TIP3    H267263   6.015   5.328   3.889  0.0099  0.8491 -0.4777
15258TIP3   OH267264   4.800   0.008   3.984 -0.2642 -0.1736 -0.1613
15258TIP3    H167265   4.874   0.064   4.007 -0.5163  0.0796  0.0343
15258TIP3    H267266   4.793   0.017   3.889 -1.6778  1.8744  0.0909
15259TIP3   OH267267   2.818   0.742  11.432  0.4430  0.5520  0.1235
15259TIP3    H167268   2.880   0.813  11.419  1.6504 -0.2635  1.1801
15259TIP3    H267269   2.868   0.674  11.478 -0.4285 -1.3332 -1.5653
15260TIP3   OH267270   6.377   3.162   0.508 -0.3420 -0.4749  0.0556
15260TIP3    H167271   6.424   3.096   0.558 -3.8843 -2.1505  1.5625
15260TIP3    H267272   6.374   3.238   0.566  1.1945  0.0200 -0.4594
15261TIP3   OH267273   2.686   4.465  11.301 -0.6332  0.2408  0.0308
15261TIP3    H167274   2.629   4.515  11.360 -0.7134 -0.7153  0.7828
15261TIP3    H267275   2.688   4.377  11.339  0.1580 -0.1151 -0.8203
15262TIP3   OH267276   5.489   4.277  12.077  0.4039  0.2762  0.0521
15262TIP3    H167277   5.451   4.282  12.165 -1.5691  0.4405 -0.7537
15262TIP3    H267278   5.449   4.199  12.038  2.2070 -0.5274 -0.3161
15263TIP3   OH267279   2.675   1.438  13.504 -0.3877 -0.0968  0.7138
15263TIP3    H167280   2.612   1.473  13.568  0.2545  0.4344  1.0696
15263TIP3    H267281   2.640   1.466  13.419 -0.4110  0.5717  0.9348
15264TIP3   OH267282   0.896   1.769  17.102 -0.2243 -0.5804  0.2756
15264TIP3    H167283   0.959   1.699  17.084  0.7331  0.5333 -0.8932
15264TIP3    H267284   0.950   1.847  17.111 -1.4399  0.4286 -0.8480
15265TIP3   OH267285   1.030   0.133  13.677  0.3360  0.1078 -0.6578
15265TIP3    H167286   1.034   0.048  13.635  1.1494 -0.8136  1.1470
15265TIP3    H267287   0.949   0.172  13.645  0.5158 -0.8294 -2.4028
15266TIP3   OH267288   3.262   1.412   2.723 -0.2778 -0.0729 -0.2221
15266TIP3    H167289   3.298   1.430   2.809  0.7069  0.4767 -0.7293
15266TIP3    H267290   3.275   1.318   2.711  0.9684  0.0900 -0.3537
15267TIP3   OH267291   2.380   0.302  14.203  0.1291 -0.0772  0.3880
15267TIP3    H167292   2.395   0.385  14.160 -0.2842  0.3968  1.1303
15267TIP3    H267293   2.465   0.278  14.240  1.2906 -1.9238 -2.9908
15268TIP3   OH267294   0.864   5.929   2.826 -0.6909 -0.3361 -0.1013
15268TIP3    H167295   0.945   5.961   2.867 -0.3685 -0.3326 -0.7201
15268TIP3    H267296   0.877   5.834   2.820 -0.3714 -0.2489 -0.9405
15269TIP3   OH267297   1.656   5.494  11.842  0.0629  0.7835 -0.3365
15269TIP3    H167298   1.630   5.415  11.793  0.1264  1.4405 -1.4576
15269TIP3    H267299   1.590   5.501  11.912 -0.3269  0.1030 -0.6232
15270TIP3   OH267300   6.752   0.696  17.093 -0.1523 -0.0328 -0.6512
15270TIP3    H167301   6.776   0.758  17.025 -0.9434 -0.7209 -1.5965
15270TIP3    H267302   6.794   0.614  17.067 -0.3937 -0.2812 -0.2797
15271TIP3   OH267303   3.183   2.878  15.318 -1.3360  0.1041 -0.0484
15271TIP3    H167304   3.196   2.966  15.352 -0.1331  0.4062 -1.2018
15271TIP3    H267305   3.263   2.830  15.340 -2.2883 -0.9639  1.2505
15272TIP3   OH267306   1.167   2.860   6.607  0.2725 -1.0120 -0.1569
15272TIP3    H167307   1.119   2.778   6.606  1.4594 -1.7341 -1.4646
15272TIP3    H267308   1.256   2.836   6.633  0.4927 -0.0545  0.0296
15273TIP3   OH267309   6.373   0.621   5.117 -0.5292 -0.2135  0.0217
15273TIP3    H167310   6.425   0.578   5.184  0.0844 -0.1528 -0.4079
15273TIP3    H267311   6.333   0.696   5.162 -1.1673 -0.9017  0.6320
15274TIP3   OH267312   6.803   4.639   5.023  0.4630 -0.0066 -0.1873
15274TIP3    H167313   6.779   4.727   5.054 -1.3040 -0.7998  0.8692
15274TIP3    H267314   6.873   4.654   4.960 -1.3803  2.4244 -1.8475
15275TIP3   OH267315   0.773   2.016  14.730  0.2660  0.6987  0.2747
15275TIP3    H167316   0.711   2.027  14.658 -0.2607 -1.1108  0.4035
15275TIP3    H267317   0.757   2.092  14.786 -1.9447  0.2631  0.3416
15276TIP3   OH267318   6.133   3.933   0.240  0.5136 -0.1505  0.0540
15276TIP3    H167319   6.204   3.998   0.240  1.0392 -0.7124 -0.0430
15276TIP3    H267320   6.176   3.851   0.264  0.0121 -0.6294 -0.6430
15277TIP3   OH267321   0.006   5.137   4.979  0.1303  0.3388 -0.4992
15277TIP3    H167322   0.068   5.066   4.994  0.7267  1.1905  1.3745
15277TIP3    H267323   0.058   5.206   4.938  0.1818  0.6290  0.0386
15278TIP3   OH267324   3.611   3.236  10.876 -0.4848 -0.1711 -0.0630
15278TIP3    H167325   3.628   3.148  10.842 -0.1712 -1.2045  2.5318
15278TIP3    H267326   3.698   3.277  10.880 -0.0807 -1.0885  1.9766
15279TIP3   OH267327   1.048   3.045  11.135 -0.0258  0.0213 -0.0843
15279TIP3    H167328   1.050   3.126  11.187  0.7427 -0.2391  0.3020
15279TIP3    H267329   1.016   3.073  11.049  2.4077  1.1916 -0.6917
15280TIP3   OH267330   6.796   2.770  11.483 -0.6266  0.3211 -0.8030
15280TIP3    H167331   6.789   2.677  11.505  0.0048  0.8709  2.1079
15280TIP3    H267332   6.749   2.778  11.399 -0.2720 -2.6604 -1.4148
15281TIP3   OH267333   2.897   6.216   3.219  0.1208  0.4107  0.2552
15281TIP3    H167334   2.968   6.160   3.250 -0.4789 -1.3698 -1.3771
15281TIP3    H267335   2.832   6.212   3.289  0.1771 -0.8300  0.2611
15282TIP3   OH267336   4.275   5.967  13.825  0.4040 -0.0404  0.0405
15282TIP3    H167337   4.295   5.886  13.872  1.6728 -1.1629 -2.2422
15282TIP3    H267338   4.224   5.938  13.749 -1.0368  1.6036  0.3424
15283TIP3   OH267339   3.293   3.655   1.556  0.0495 -0.1795 -0.1815
15283TIP3    H167340   3.208   3.632   1.593  0.5115  0.4497  1.3742
15283TIP3    H267341   3.338   3.570   1.546 -0.1716 -0.3920  0.5432
15284TIP3   OH267342   3.744   6.154  14.700 -0.5432  0.2416  0.0967
15284TIP3    H167343   3.755   6.248  14.713  0.6700 -0.0875  1.7486
15284TIP3    H267344   3.671   6.130  14.757  0.8812 -0.2047  1.8401
15285TIP3   OH267345   1.276   3.469  13.602  0.3278 -0.4688 -0.4043
15285TIP3    H167346   1.206   3.404  13.588 -1.7164  1.5091 -0.0146
15285TIP3    H267347   1.265   3.531  13.530  0.7145  0.6627  0.4878
15286TIP3   OH267348   3.627   3.970   2.959 -0.5665  0.3078 -0.4446
15286TIP3    H167349   3.665   3.883   2.949 -2.9323 -0.6709 -1.7384
15286TIP3    H267350   3.576   3.983   2.880 -2.2981  1.8054  0.8359
15287TIP3   OH267351   4.531   2.693  12.850  0.0395 -0.2668 -0.4083
15287TIP3    H167352   4.523   2.611  12.800  0.1234 -0.5613  0.0506
15287TIP3    H267353   4.441   2.726  12.856  0.2303  0.8089 -2.4237
15288TIP3   OH267354   6.010   4.367  15.077  0.7245  0.0776 -0.2249
15288TIP3    H167355   5.926   4.396  15.112  1.0470  1.4808 -0.5241
15288TIP3    H267356   6.027   4.284  15.120  0.7003  1.3172  2.3644
15289TIP3   OH267357   4.364   1.933   1.881 -0.2731  0.0144  0.1507
15289TIP3    H167358   4.452   1.897   1.869  0.5342  1.0044  2.5150
15289TIP3    H267359   4.316   1.864   1.927 -0.0209  0.3529  0.9224
15290TIP3   OH267360   1.231   3.383  11.656 -0.1526  0.0006  0.5798
15290TIP3    H167361   1.322   3.388  11.687 -0.7162  0.2328  2.3412
15290TIP3    H267362   1.217   3.291  11.636  0.2742 -0.1519  0.9647
15291TIP3   OH267363   1.608   0.715  11.585 -0.7737  0.4549 -0.6257
15291TIP3    H167364   1.584   0.626  11.557  0.2193  0.8808 -3.1166
15291TIP3    H267365   1.645   0.703  11.672  1.7011 -2.0464 -1.8397
15292TIP3   OH267366   3.064   2.376   2.384  0.5528 -0.1252  0.1489
15292TIP3    H167367   2.979   2.378   2.430  0.6276  2.2566  0.2966
15292TIP3    H267368   3.047   2.418   2.300  1.6774  0.8407  0.3805
15293TIP3   OH267369   4.157   3.383   0.425  0.3040 -0.1574 -0.0013
15293TIP3    H167370   4.132   3.451   0.362  1.0358  0.1135 -0.0098
15293TIP3    H267371   4.239   3.415   0.463  0.6996 -1.0650 -0.0596
15294TIP3   OH267372   4.337   2.976   1.979 -0.1800  0.1293 -0.0093
15294TIP3    H167373   4.353   3.010   1.891  2.1308 -1.2522 -0.2131
15294TIP3    H267374   4.396   3.026   2.035 -1.6896  1.0509  0.8155
15295TIP3   OH267375   2.645   0.903   2.822 -0.6354 -0.0340 -0.0853
15295TIP3    H167376   2.706   0.836   2.853 -0.8259  0.8034  2.2666
15295TIP3    H267377   2.693   0.950   2.754  0.4579 -0.8843  0.0804
15296TIP3   OH267378   0.005   1.306  14.151 -0.2279  0.3169  0.6167
15296TIP3    H167379   0.043   1.306  14.063 -1.2324  2.0734  0.1280
15296TIP3    H267380   0.064   1.359  14.203 -0.6895  0.9861  0.4717
15297TIP3   OH267381   3.101   1.948  11.938 -0.1050 -0.1304 -0.8071
15297TIP3    H167382   3.185   1.960  11.895  0.4494 -0.8665  0.0601
15297TIP3    H267383   3.069   1.863  11.907  0.7881 -1.1705  0.9827
15298TIP3   OH267384   3.798   3.635  14.304 -0.5674 -0.4129 -0.1393
15298TIP3    H167385   3.769   3.689  14.231  0.9080 -0.5061 -0.8194
15298TIP3    H267386   3.870   3.684  14.344  0.3639 -1.5516 -0.3710
15299TIP3   OH267387   1.480   1.616  16.934 -0.0285 -0.0091  0.1666
15299TIP3    H167388   1.419   1.652  16.869 -0.2266 -2.7667 -1.3061
15299TIP3    H267389   1.428   1.609  17.014 -0.9922 -0.2661 -0.4651
15300TIP3   OH267390   5.963   2.939   4.288 -0.1136  0.2043  0.3628
15300TIP3    H167391   6.055   2.916   4.303  0.1422  1.0882  0.1771
15300TIP3    H267392   5.929   2.957   4.376 -0.6034 -1.8266  0.6458
15301TIP3   OH267393   1.009   5.418  13.415  0.3635 -0.2494 -0.2030
15301TIP3    H167394   1.097   5.426  13.453  0.1948 -2.4294  0.7956
15301TIP3    H267395   0.973   5.506  13.419  1.9938  0.4206  0.6516
15302TIP3   OH267396   1.988   0.106   5.935  0.4253 -0.4345  0.3546
15302TIP3    H167397   2.022   0.145   6.016 -1.1280  0.2674  0.7122
15302TIP3    H267398   1.920   0.167   5.906  1.0891 -0.5605 -1.6222
15303TIP3   OH267399   4.801   0.487  12.803  0.0831 -0.8395  0.5522
15303TIP3    H167400   4.797   0.553  12.734 -0.9665 -1.1708  0.2782
15303TIP3    H267401   4.849   0.414  12.765 -0.7538 -1.1414  0.0565
15304TIP3   OH267402   1.914   2.582  14.013 -0.1368  0.3362  0.3467
15304TIP3    H167403   1.835   2.593  13.960 -0.0749  1.2245  0.4363
15304TIP3    H267404   1.912   2.489  14.038 -1.4388  0.4561  0.7840
15305TIP3   OH267405   1.872   0.118  14.790  0.5057  0.0649  0.4114
15305TIP3    H167406   1.879   0.026  14.764 -1.8277  0.2325 -1.0668
15305TIP3    H267407   1.930   0.163  14.729 -0.0939 -0.2141 -0.3846
15306TIP3   OH267408   6.801   2.122   1.095 -0.1698  0.8390  0.4470
15306TIP3    H167409   6.746   2.197   1.072  1.2504  2.1700  1.0984
15306TIP3    H267410   6.885   2.162   1.121  0.0872 -0.8636  2.5360
15307TIP3   OH267411   0.879   1.702  15.258  0.0164  0.4168  0.6388
15307TIP3    H167412   0.896   1.691  15.352 -0.7442  0.5256  0.7961
15307TIP3    H267413   0.956   1.748  15.225 -0.6533  2.4153  1.6505
15308TIP3   OH267414   5.379   5.317  10.701 -0.3898  0.4489 -0.6457
15308TIP3    H167415   5.458   5.346  10.746  0.7871  1.5831 -3.2539
15308TIP3    H267416   5.310   5.375  10.734 -0.8742 -2.0846  3.4808
15309TIP3   OH267417   5.349   1.405   1.094 -0.7254 -0.0294 -0.0750
15309TIP3    H167418   5.254   1.395   1.105 -0.6507 -1.6522 -0.6661
15309TIP3    H267419   5.367   1.369   1.007  0.4213  0.3504 -0.0066
15310TIP3   OH267420   5.819   5.970   1.633 -0.5762 -0.3893  0.0493
15310TIP3    H167421   5.825   5.895   1.574  0.0161 -0.7502  0.5549
15310TIP3    H267422   5.741   6.017   1.605 -0.3446 -0.5937 -0.9781
15311TIP3   OH267423   3.646   6.185   4.482  0.0243  0.0319 -0.6859
15311TIP3    H167424   3.676   6.097   4.459  0.9501  0.5882 -1.7056
15311TIP3    H267425   3.638   6.183   4.577  0.7683 -0.9285 -0.6212
15312TIP3   OH267426   1.052   4.025   1.983 -0.2651 -0.7455 -0.0221
15312TIP3    H167427   0.977   4.026   1.925 -1.2688  2.4438  1.0970
15312TIP3    H267428   1.122   4.067   1.933 -0.4828  0.0089  0.2898
15313TIP3   OH267429   0.584   2.030  17.006  0.3384 -0.6414  0.0795
15313TIP3    H167430   0.537   2.091  16.948 -0.4062  0.1480  1.4583
15313TIP3    H267431   0.556   1.944  16.977 -1.7001 -0.2120  0.5658
15314TIP3   OH267432   6.643   1.654   4.834  0.0053 -0.2334 -0.2524
15314TIP3    H167433   6.552   1.627   4.827  0.0907 -0.7554  0.4358
15314TIP3    H267434   6.647   1.705   4.915 -0.3161  2.6670 -1.9337
15315TIP3   OH267435   3.819   3.584   4.427 -0.2654 -0.2118  0.3492
15315TIP3    H167436   3.859   3.638   4.359  0.4862 -2.1116 -0.8088
15315TIP3    H267437   3.756   3.642   4.469  2.1476  2.2978  0.8345
15316TIP3   OH267438   5.008   0.231   1.487 -0.3789 -0.9517  0.0638
15316TIP3    H167439   5.077   0.297   1.484  1.2279 -2.4939  0.9720
15316TIP3    H267440   4.996   0.203   1.396  0.6708 -1.1005 -0.0409
15317TIP3   OH267441   6.166   5.150  12.262  0.0101  0.4990 -0.0437
15317TIP3    H167442   6.142   5.059  12.283  0.1311  0.5958  0.5218
15317TIP3    H267443   6.244   5.142  12.208 -2.6105  0.0253 -4.2080
15318TIP3   OH267444   1.134   0.787  13.273 -0.6149  0.3633 -0.0424
15318TIP3    H167445   1.059   0.835  13.238  0.5155  2.0736 -0.2022
15318TIP3    H267446   1.172   0.743  13.197  0.0944  1.6776 -0.4797
15319TIP3   OH267447   3.891   3.155  13.487 -0.2788 -0.3295  0.1777
15319TIP3    H167448   3.839   3.085  13.448 -1.8075  0.3871  0.8552
15319TIP3    H267449   3.937   3.195  13.413 -0.5824 -1.0708 -0.4195
15320TIP3   OH267450   0.141   6.037  16.657  0.3335  0.2893 -0.4759
15320TIP3    H167451   0.136   6.132  16.643 -2.2403  0.5927  1.6481
15320TIP3    H267452   0.070   6.018  16.719  2.1716 -2.7164  0.9562
15321TIP3   OH267453   1.939   6.653  13.713 -0.4691  0.4949  0.1153
15321TIP3    H167454   2.000   6.726  13.724  0.8368 -0.5344 -0.0689
15321TIP3    H267455   1.864   6.692  13.668  0.7258  1.4846 -1.1279
15322TIP3   OH267456   1.506   1.610  10.912  0.1743 -0.1651  0.0588
15322TIP3    H167457   1.529   1.701  10.931 -0.5187 -0.3895  2.2000
15322TIP3    H267458   1.423   1.595  10.958  0.0066 -1.7446 -0.6691
15323TIP3   OH267459   0.878   2.121   4.117 -0.3662  0.0574 -0.3393
15323TIP3    H167460   0.813   2.076   4.063 -1.3997  0.9377  0.1339
15323TIP3    H267461   0.827   2.177   4.175  0.8370  3.0702 -1.9701
15324TIP3   OH267462   1.875   0.977   5.306 -0.6469 -0.1346 -0.1490
15324TIP3    H167463   1.779   0.970   5.314 -0.4801 -1.3142  1.1612
15324TIP3    H267464   1.891   0.982   5.212 -2.0160  0.4513 -0.3752
15325TIP3   OH267465   4.269   5.885  12.165  0.2347 -0.3490 -0.2665
15325TIP3    H167466   4.266   5.806  12.112  1.2322 -0.0719 -0.7509
15325TIP3    H267467   4.288   5.956  12.103 -1.2215  0.3728  0.0673
15326TIP3   OH267468   1.244   2.309   4.666 -0.4994 -0.7300  0.4985
15326TIP3    H167469   1.275   2.344   4.583  1.4145 -1.5267  0.8269
15326TIP3    H267470   1.257   2.380   4.728 -2.9712  0.2705  0.0009
15327TIP3   OH267471   2.953   5.482  10.861  0.3391  0.3483  0.0017
15327TIP3    H167472   2.946   5.506  10.768 -0.7795 -0.6110 -0.1909
15327TIP3    H267473   2.954   5.387  10.860 -1.0888  0.3006  1.0454
15328TIP3   OH267474   3.776   2.086  13.103  0.0166 -0.3131  0.1927
15328TIP3    H167475   3.684   2.074  13.127  0.0269  2.4305  2.0061
15328TIP3    H267476   3.777   2.074  13.008 -2.0715 -1.0251  0.1889
15329TIP3   OH267477   0.183   0.107   6.431 -0.0680 -0.5187  0.1754
15329TIP3    H167478   0.185   0.181   6.492  1.5493 -0.7022  0.3864
15329TIP3    H267479   0.099   0.064   6.448 -1.1489  1.3798 -0.1199
15330TIP3   OH267480   1.953   4.963   0.383  0.3165 -0.2403  0.2716
15330TIP3    H167481   1.983   4.885   0.430  1.6814  0.0064 -0.1461
15330TIP3    H267482   1.946   5.031   0.451  0.0066 -0.4849  0.4869
15331TIP3   OH267483   2.252   6.630   3.930  0.5035  0.1226 -0.0137
15331TIP3    H167484   2.296   6.547   3.910 -1.5239 -1.3409  1.1544
15331TIP3    H267485   2.242   6.673   3.845  4.2513  0.6983 -0.3348
15332TIP3   OH267486   1.507   4.955   4.670 -0.1637  0.3752  0.0632
15332TIP3    H167487   1.601   4.974   4.677 -0.3770  2.4726 -1.7500
15332TIP3    H267488   1.502   4.860   4.671  1.9116  0.2171  0.9079
15333TIP3   OH267489   2.573   6.324   4.758  0.0138 -0.4274 -0.3153
15333TIP3    H167490   2.499   6.373   4.723  1.0486  1.5066  0.1032
15333TIP3    H267491   2.535   6.270   4.827 -1.2071 -0.4805 -0.9994
15334TIP3   OH267492   0.907   3.331  17.069 -0.3105  0.1027 -0.6144
15334TIP3    H167493   0.850   3.370  17.002  0.5244 -0.2629 -1.5584
15334TIP3    H267494   0.995   3.363  17.047 -0.2759  1.8484  1.6906
15335TIP3   OH267495   5.766   0.846   1.957 -0.7901 -0.4915 -0.4876
15335TIP3    H167496   5.750   0.816   2.047 -1.2316 -1.5110 -0.8990
15335TIP3    H267497   5.827   0.919   1.967 -1.6625  0.0997  0.7265
15336TIP3   OH267498   5.274   1.109  14.171 -1.0935 -0.4065 -0.4229
15336TIP3    H167499   5.350   1.111  14.113  0.1077 -0.6757  1.0780
15336TIP3    H267500   5.280   1.190  14.221 -2.5947  0.2314 -1.2189
15337TIP3   OH267501   5.897   6.666  12.505  0.0075 -1.0621  0.5145
15337TIP3    H167502   5.913   6.571  12.506  0.3662 -1.0528  3.0005
15337TIP3    H267503   5.980   6.704  12.475 -0.4213 -1.5315 -1.3585
15338TIP3   OH267504   4.918   2.634   1.215  0.6157  0.7240 -0.3191
15338TIP3    H167505   4.913   2.543   1.244 -0.4991  0.9207  0.1717
15338TIP3    H267506   4.983   2.634   1.144 -0.1404 -0.6358 -1.0396
15339TIP3   OH267507   2.297   1.334  15.792  0.3580  0.2972 -0.0930
15339TIP3    H167508   2.260   1.420  15.813 -1.2032 -0.1921 -0.7621
15339TIP3    H267509   2.380   1.354  15.749 -0.6395  1.5429 -1.5604
15340TIP3   OH267510   3.509   2.291   2.939 -1.0960  0.5739 -0.1602
15340TIP3    H167511   3.519   2.219   2.877  1.5457 -0.1349  0.9444
15340TIP3    H267512   3.451   2.258   3.006  0.7464 -0.9623  0.7777
15341TIP3   OH267513   1.289   0.984   2.027 -0.6646  0.0273  0.3300
15341TIP3    H167514   1.249   1.030   2.101 -0.3468  0.3764  0.2904
15341TIP3    H267515   1.224   0.990   1.957 -1.0071 -0.3887  0.6071
15342TIP3   OH267516   0.207   3.389   1.113 -0.3044 -0.1456 -0.4141
15342TIP3    H167517   0.208   3.339   1.032  2.4235 -0.2659 -0.3849
15342TIP3    H267518   0.269   3.461   1.098  0.3465 -0.2323  1.5591
15343TIP3   OH267519   3.650   6.418  14.232 -0.2464  0.2334 -0.7407
15343TIP3    H167520   3.744   6.436  14.222  0.4800 -2.0171  1.1147
15343TIP3    H267521   3.626   6.370  14.153  0.8196 -1.3813 -0.1163
15344TIP3   OH267522   3.648   3.688  13.711  0.4877  0.1891 -0.5730
15344TIP3    H167523   3.680   3.775  13.736 -2.5413  1.4512 -0.6722
15344TIP3    H267524   3.642   3.692  13.615 -0.8455  0.3925 -0.5035
15345TIP3   OH267525   0.384   0.497  11.457 -0.7613 -0.2234 -0.1437
15345TIP3    H167526   0.307   0.499  11.513 -0.1341  1.3836  0.7153
15345TIP3    H267527   0.456   0.526  11.513 -0.1241  1.5013 -1.7477
15346TIP3   OH267528   0.178   6.711   1.793  0.0738  0.1507  0.1187
15346TIP3    H167529   0.106   6.743   1.739 -0.5504 -0.0369  0.8219
15346TIP3    H267530   0.154   6.620   1.812  0.6799 -0.0251  0.0593
15347TIP3   OH267531   4.669   4.142   0.759 -0.3062 -0.3017 -0.1161
15347TIP3    H167532   4.704   4.074   0.816 -0.3690  1.5947  2.3678
15347TIP3    H267533   4.744   4.197   0.737 -0.5796  0.0112 -0.2914
15348TIP3   OH267534   4.602   2.394   3.377  0.3053 -0.3111  0.5147
15348TIP3    H167535   4.572   2.485   3.383 -0.7906 -0.5836 -0.5277
15348TIP3    H267536   4.675   2.397   3.315  2.0556  0.2406  2.5061
15349TIP3   OH267537   0.232   3.149  11.962  0.4251  0.2212 -0.4385
15349TIP3    H167538   0.227   3.227  11.907  1.9366  0.9845  0.4329
15349TIP3    H267539   0.176   3.085  11.919  1.8437  0.6439 -3.0846
15350TIP3   OH267540   0.196   0.742  13.920 -0.5283  0.1378 -0.0339
15350TIP3    H167541   0.160   0.678  13.980  0.6503 -0.2768  0.2434
15350TIP3    H267542   0.290   0.725  13.919  0.0199  2.6772  1.0536
15351TIP3   OH267543   1.559   4.589   5.624  0.3178 -0.2159 -0.6598
15351TIP3    H167544   1.471   4.594   5.586 -0.3847 -1.5555  0.6693
15351TIP3    H267545   1.599   4.513   5.582 -0.0881 -1.0823  0.4608
15352TIP3   OH267546   3.737   1.566   3.696  0.3787 -0.2475 -0.0428
15352TIP3    H167547   3.741   1.585   3.603  0.4107 -0.1741 -0.0260
15352TIP3    H267548   3.701   1.646   3.736 -0.8495 -0.7204 -0.1438
15353TIP3   OH267549   2.095   3.235  11.668 -0.0173 -0.0978 -0.0807
15353TIP3    H167550   2.063   3.317  11.631  1.1731  1.6642  2.4717
15353TIP3    H267551   2.026   3.207  11.728  1.1733  1.3246  2.0901
15354TIP3   OH267552   3.194   2.336   3.489  0.3032 -0.1260  0.2064
15354TIP3    H167553   3.150   2.301   3.567 -0.0668 -0.1261 -0.0015
15354TIP3    H267554   3.286   2.346   3.516  0.0641  0.4568  0.8455
15355TIP3   OH267555   3.671   4.580  11.063 -0.3541 -0.2081 -0.5044
15355TIP3    H167556   3.650   4.629  10.984  0.7340 -0.0383 -0.7064
15355TIP3    H267557   3.669   4.488  11.036 -0.4970 -0.1769 -0.5975
15356TIP3   OH267558   5.799   6.554   0.433  0.5139  0.5210  0.0034
15356TIP3    H167559   5.703   6.555   0.436  0.4864 -1.3500  1.5583
15356TIP3    H267560   5.826   6.607   0.507  0.6203 -0.7402  0.8943
15357TIP3   OH267561   0.582   1.494  10.226  0.0614  0.2509  0.4640
15357TIP3    H167562   0.651   1.551  10.192  0.4972 -0.6616 -0.1932
15357TIP3    H267563   0.541   1.547  10.295 -1.5934  2.6089 -2.0945
15358TIP3   OH267564   2.779   4.885  16.877 -0.3400  0.4995  0.1367
15358TIP3    H167565   2.704   4.826  16.885  0.1575 -0.8319 -3.2401
15358TIP3    H267566   2.747   4.956  16.820  0.9970 -0.3048 -1.6897
15359TIP3   OH267567   5.708   1.543   5.657 -0.8346 -0.0107  0.6627
15359TIP3    H167568   5.681   1.603   5.727 -2.9896 -1.2877  0.9877
15359TIP3    H267569   5.672   1.582   5.577  3.2289  2.5043 -0.2607
15360TIP3   OH267570   6.221   0.616   2.249  0.5024  0.0692 -0.9113
15360TIP3    H167571   6.207   0.523   2.233 -1.9463 -0.5087  3.2563
15360TIP3    H267572   6.152   0.660   2.200 -0.9428 -0.7508  0.3270
15361TIP3   OH267573   0.207   5.612   2.455 -0.0807  0.0988 -0.2181
15361TIP3    H167574   0.146   5.683   2.434  0.5204  0.3138 -1.3555
15361TIP3    H267575   0.162   5.560   2.520 -1.5862  0.1029 -1.1983
15362TIP3   OH267576   5.549   1.872  16.394  0.0767 -0.0682 -0.9400
15362TIP3    H167577   5.543   1.792  16.341  2.3590 -0.7958 -0.2255
15362TIP3    H267578   5.641   1.897  16.390  0.3203  0.0491  2.2819
15363TIP3   OH267579   5.465   0.342   2.378 -0.1263 -0.1787 -0.4004
15363TIP3    H167580   5.474   0.248   2.361 -2.0013 -0.7217  1.2408
15363TIP3    H267581   5.398   0.348   2.446 -0.6826  2.4159 -1.0718
15364TIP3   OH267582   2.192   5.010   1.515  0.1035 -0.3275 -0.3818
15364TIP3    H167583   2.167   4.935   1.462  0.0378  0.1983 -1.1165
15364TIP3    H267584   2.270   5.046   1.471  0.2284 -0.0646  0.0487
15365TIP3   OH267585   5.962   6.430   0.259 -0.4278  0.4523  0.5502
15365TIP3    H167586   5.915   6.471   0.331 -2.6006  0.4876 -0.7920
15365TIP3    H267587   6.033   6.382   0.301 -2.4474 -0.7252  2.8969
15366TIP3   OH267588   0.403   2.870   4.585 -0.2310  0.1243  0.0549
15366TIP3    H167589   0.403   2.787   4.537 -0.4769  0.5866 -0.7617
15366TIP3    H267590   0.311   2.887   4.603 -0.0862 -0.5124  1.5547
15367TIP3   OH267591   4.096   1.994   2.118  0.4446 -0.0164 -0.8053
15367TIP3    H167592   4.168   2.046   2.083 -0.7213  0.0645 -3.3079
15367TIP3    H267593   4.110   1.907   2.082 -0.9885  0.1431 -1.7996
15368TIP3   OH267594   6.834   1.133   0.229  0.5726 -0.0125 -1.1757
15368TIP3    H167595   6.848   1.045   0.194  1.2858  0.3969 -1.9455
15368TIP3    H267596   6.860   1.127   0.321 -2.8846 -1.5303 -0.1488
15369TIP3   OH267597   0.011   1.279   2.098 -0.2783  0.9424 -0.5044
15369TIP3    H167598  -0.049   1.209   2.070  1.5051  0.0509 -2.3657
15369TIP3    H267599  -0.044   1.357   2.101 -1.6139  0.1295 -1.9992
15370TIP3   OH267600   5.204   3.030   3.765  0.4556 -0.0451  0.2347
15370TIP3    H167601   5.269   2.970   3.729  0.5950  0.0448  0.3362
15370TIP3    H267602   5.130   2.974   3.788 -0.6838  0.1522 -2.5220
15371TIP3   OH267603   4.416   1.670  15.969  0.3341 -0.5845 -0.4518
15371TIP3    H167604   4.425   1.685  15.875  0.6540  0.6987 -0.2354
15371TIP3    H267605   4.396   1.577  15.977  1.6062 -0.9914 -1.7135
15372TIP3   OH267606   2.097   6.837   0.001  0.2656 -0.3329  0.2390
15372TIP3    H167607   2.034   6.887   0.053  0.5002  0.2584 -0.0367
15372TIP3    H267608   2.052   6.755  -0.019 -0.6465  0.3101 -0.4423
15373TIP3   OH267609   2.101   2.930  11.224 -0.0600  0.3373  0.4726
15373TIP3    H167610   2.097   2.993  11.152 -2.0860  0.9941  1.1054
15373TIP3    H267611   2.093   2.984  11.303 -0.1450 -0.5671  1.0907
15374TIP3   OH267612   5.057   1.614   2.771 -0.2846 -0.0738 -0.1688
15374TIP3    H167613   5.106   1.610   2.853  1.5491 -1.3905 -1.2454
15374TIP3    H267614   4.976   1.566   2.789 -0.9101  1.4722  1.4214
15375TIP3   OH267615   0.873   3.995  11.627  0.0612  0.4803 -0.5852
15375TIP3    H167616   0.905   3.997  11.718 -1.9956  2.6125  0.2120
15375TIP3    H267617   0.936   4.048  11.579  0.3030  0.7080 -0.0363
15376TIP3   OH267618   2.353   5.418  12.598 -0.2933  0.5694 -0.1549
15376TIP3    H167619   2.303   5.400  12.519  0.1167 -2.5977  0.1714
15376TIP3    H267620   2.437   5.450  12.567 -0.8660  1.3837 -0.8922
15377TIP3   OH267621   1.641   5.424  14.851 -0.1676 -0.0140  0.2777
15377TIP3    H167622   1.637   5.428  14.756  2.1387 -0.2210  0.1237
15377TIP3    H267623   1.554   5.453  14.880 -1.7717 -2.2184 -1.8975
15378TIP3   OH267624   3.204   0.151   4.781 -0.0917  0.1046  0.1815
15378TIP3    H167625   3.200   0.163   4.686 -0.4568  0.4624  0.2366
15378TIP3    H267626   3.297   0.140   4.801 -0.0156  0.0168 -0.2184
15379TIP3   OH267627   2.230   3.326  16.961 -0.3008  0.1996  0.8962
15379TIP3    H167628   2.152   3.272  16.954 -0.0577 -0.0273 -0.4407
15379TIP3    H267629   2.258   3.340  16.870  2.1023 -1.0371  1.3434
15380TIP3   OH267630   2.028   3.945  13.760 -0.1718  0.8873 -0.3971
15380TIP3    H167631   1.999   3.865  13.804  1.3225 -0.5351 -1.8852
15380TIP3    H267632   2.063   3.999  13.830 -0.5879 -0.0518  0.5633
15381TIP3   OH267633   0.432   4.464  11.284 -0.3124  0.0322 -0.0910
15381TIP3    H167634   0.377   4.418  11.347 -0.9740  0.5018 -0.3093
15381TIP3    H267635   0.381   4.542  11.259  1.0889  1.3079  0.8444
15382TIP3   OH267636   3.422   3.675   0.560  0.5798  0.1226  0.1833
15382TIP3    H167637   3.433   3.585   0.591 -2.3058 -0.1084  0.7416
15382TIP3    H267638   3.405   3.727   0.638  0.9214  0.9373 -0.2646
15383TIP3   OH267639   1.741   2.896  10.869  0.7305 -0.1314  0.5650
15383TIP3    H167640   1.810   2.957  10.842  0.9386 -0.9090 -0.6852
15383TIP3    H267641   1.664   2.952  10.880  1.4236  0.6805  1.5592
15384TIP3   OH267642   4.968   4.582  11.847  0.6300 -0.2676 -0.0028
15384TIP3    H167643   4.886   4.629  11.860  0.4989  0.3291 -2.4591
15384TIP3    H267644   5.027   4.647  11.808  2.2764 -0.7188  1.5868
15385TIP3   OH267645   6.213   5.632  13.149 -0.0919 -0.4279  0.0032
15385TIP3    H167646   6.176   5.611  13.235  1.7670 -1.3329  0.6400
15385TIP3    H267647   6.260   5.714  13.162 -1.0202  0.2134 -0.5557
15386TIP3   OH267648   4.857   1.957  16.409 -0.1723  0.2752 -0.9110
15386TIP3    H167649   4.882   1.926  16.496  2.2415  1.4755 -1.1006
15386TIP3    H267650   4.867   1.880  16.352 -1.8085 -0.5268 -0.1649
15387TIP3   OH267651   3.937   4.521  13.740 -0.6289  0.0838  0.1179
15387TIP3    H167652   3.932   4.535  13.646 -0.3409 -0.5373  0.0098
15387TIP3    H267653   4.008   4.578  13.769  0.9464 -1.5110 -0.4092
15388TIP3   OH267654   2.649   5.045   4.341  0.7683 -0.1053  0.3309
15388TIP3    H167655   2.726   5.098   4.323  0.5890 -0.0360 -0.2592
15388TIP3    H267656   2.670   4.997   4.421  1.7845 -0.7857 -0.3248
15389TIP3   OH267657   1.682   5.659  12.749  0.2994  0.2979  0.6458
15389TIP3    H167658   1.658   5.750  12.766  0.2597  0.4216 -0.0261
15389TIP3    H267659   1.773   5.652  12.779  0.0669  0.3547  1.3845
15390TIP3   OH267660   2.008   4.628  11.151 -0.5390  0.0704  0.5907
15390TIP3    H167661   1.973   4.697  11.095 -0.4811  0.0153  0.4849
15390TIP3    H267662   2.095   4.660  11.176 -1.8058  1.6800  3.4202
15391TIP3   OH267663   5.704   5.723  12.671  0.0257  0.0720  0.7417
15391TIP3    H167664   5.798   5.739  12.679  0.2985 -1.7057  1.5696
15391TIP3    H267665   5.697   5.630  12.651 -1.5043  0.5881 -1.4332
15392TIP3   OH267666   0.006   6.742   1.592  0.0840  0.0896 -0.1640
15392TIP3    H167667   0.042   6.828   1.569  2.1463 -0.9726 -1.2365
15392TIP3    H267668   0.005   6.694   1.509  1.2608 -1.6817  0.7893
15393TIP3   OH267669   4.610   0.734  15.349 -0.5356  0.2219  0.4580
15393TIP3    H167670   4.654   0.667  15.297  1.3544  0.9916  0.9694
15393TIP3    H267671   4.517   0.717  15.337 -0.1215 -1.2759 -0.9790
15394TIP3   OH267672   3.596   2.957   3.576 -0.2270  0.4685  0.4262
15394TIP3    H167673   3.606   2.966   3.481  0.4296  1.9326  0.6102
15394TIP3    H267674   3.655   2.886   3.600  0.1592  0.5831 -0.1625
15395TIP3   OH267675   2.860   1.881  13.755 -0.2353  0.0082 -0.3785
15395TIP3    H167676   2.871   1.893  13.661 -1.2843  0.5195 -0.4444
15395TIP3    H267677   2.832   1.790  13.765  2.5024 -0.9149 -0.3123
15396TIP3   OH267678   5.253   5.915   3.003  0.2425 -0.1920 -0.4377
15396TIP3    H167679   5.347   5.897   3.015  0.4844  0.0259 -1.8081
15396TIP3    H267680   5.251   5.991   2.945 -0.7912  1.9666  2.1811
15397TIP3   OH267681   0.714   6.619  14.951  0.4014 -0.0833 -0.5302
15397TIP3    H167682   0.628   6.609  14.991 -0.1961  1.5290 -1.3317
15397TIP3    H267683   0.775   6.584  15.016 -0.7382  0.0983  0.6816
15398TIP3   OH267684   1.324   1.679  11.095 -0.3411  0.1870 -0.1985
15398TIP3    H167685   1.235   1.688  11.060  0.2234  0.7721 -1.5710
15398TIP3    H267686   1.349   1.768  11.120  0.3158  0.2516 -1.0391
15399TIP3   OH267687   0.495   6.163   5.992 -0.5090  0.0970 -0.0945
15399TIP3    H167688   0.550   6.240   5.976 -0.1986  0.0567  0.7294
15399TIP3    H267689   0.520   6.102   5.922  0.0912  0.2935 -0.0609
15400TIP3   OH267690   0.924   5.922   2.245 -0.1862  0.1800  0.1126
15400TIP3    H167691   0.990   5.990   2.249 -1.5866  1.6409 -0.3602
15400TIP3    H267692   0.862   5.944   2.314 -1.2209  0.0158 -0.7255
15401TIP3   OH267693   3.133   3.441  11.358 -0.3718 -0.0281  0.3849
15401TIP3    H167694   3.054   3.486  11.387 -0.7474 -0.5749  0.2374
15401TIP3    H267695   3.183   3.425  11.438 -0.5525  0.0549  0.5147
15402TIP3   OH267696   1.022   5.141  11.261 -0.4892  0.2728 -0.4949
15402TIP3    H167697   0.943   5.091  11.280  0.5862 -1.2199  0.2539
15402TIP3    H267698   1.024   5.208  11.329 -0.9363  0.1005 -0.3041
15403TIP3   OH267699   5.871   3.011   5.476  0.2792  0.3654  0.2870
15403TIP3    H167700   5.948   3.065   5.497  0.4670 -0.0098  0.5807
15403TIP3    H267701   5.870   3.006   5.380  0.5439  0.4833  0.2774
15404TIP3   OH267702   1.673   6.236   1.538 -0.3506  0.1813  0.5857
15404TIP3    H167703   1.649   6.145   1.555  0.2773 -0.3020 -0.9839
15404TIP3    H267704   1.648   6.251   1.447  0.3147  1.3207  0.5743
15405TIP3   OH267705   4.905   1.866   2.869  0.3057  0.2465 -0.5487
15405TIP3    H167706   4.837   1.895   2.807  1.2016  0.8285 -1.2832
15405TIP3    H267707   4.951   1.796   2.823 -0.3868 -0.8287  0.3322
15406TIP3   OH267708   0.514   0.149   0.448 -0.1681  0.1411  0.4297
15406TIP3    H167709   0.490   0.062   0.416  1.4577 -0.0367 -0.4116
15406TIP3    H267710   0.512   0.205   0.371  1.5676  0.2029  0.3898
15407TIP3   OH267711   3.633   0.063   1.464  0.0625 -0.4523 -0.7273
15407TIP3    H167712   3.563   0.009   1.428  0.6337 -1.6621 -0.0799
15407TIP3    H267713   3.682   0.004   1.521  0.0161  1.0445  0.9457
15408TIP3   OH267714   6.557   1.547  13.533 -0.4267  0.1145 -0.1697
15408TIP3    H167715   6.478   1.601  13.529 -0.4663  0.0573 -0.1672
15408TIP3    H267716   6.585   1.541  13.442  0.8551  1.9976  0.0404
15409TIP3   OH267717   5.970   2.453   3.070  0.2081  0.0003 -0.3071
15409TIP3    H167718   5.958   2.452   3.165 -0.2759  0.6370 -0.3508
15409TIP3    H267719   6.038   2.388   3.053 -0.3384 -0.7744  0.3890
15410TIP3   OH267720   5.171   1.086   0.293 -0.1838  0.1898 -0.2487
15410TIP3    H167721   5.079   1.066   0.305  0.2540 -0.5651  2.5649
15410TIP3    H267722   5.202   1.021   0.231 -0.5459 -3.0270  2.6624
15411TIP3   OH267723   5.794   3.889  11.251 -0.1678  0.4456 -0.4716
15411TIP3    H167724   5.813   3.979  11.222 -3.0364  0.9365 -1.1128
15411TIP3    H267725   5.790   3.838  11.171  1.5588 -0.3326 -0.0980
15412TIP3   OH267726   3.546   0.430   3.689 -0.2209 -0.1443 -0.3468
15412TIP3    H167727   3.475   0.367   3.700 -0.7517  0.5820  0.4101
15412TIP3    H267728   3.617   0.379   3.649 -1.0078 -0.9710 -0.7057
15413TIP3   OH267729   1.133   3.829   1.672 -0.0215 -0.1236  0.4205
15413TIP3    H167730   1.169   3.808   1.758  1.2072  0.0403 -0.0478
15413TIP3    H267731   1.038   3.815   1.683  0.0041  0.6910  2.0301
15414TIP3   OH267732   6.292   3.899  12.776  0.3654  0.7202 -0.0219
15414TIP3    H167733   6.217   3.886  12.835  0.3538 -0.0770 -0.2004
15414TIP3    H267734   6.342   3.969  12.816  0.8105 -0.3649  1.4060
15415TIP3   OH267735   2.565   5.211   0.000  0.3856  0.0735  0.0311
15415TIP3    H167736   2.646   5.159   0.001  0.7020  0.5603  0.2908
15415TIP3    H267737   2.537   5.213   0.092  0.4678  0.5005  0.0472
15416TIP3   OH267738   6.224   6.036  12.602 -0.5153  0.8024 -0.1387
15416TIP3    H167739   6.210   5.944  12.579 -4.1421  0.7656  1.5159
15416TIP3    H267740   6.292   6.034  12.669 -0.4753 -0.6771 -0.1952
15417TIP3   OH267741   4.675   1.270   3.734 -0.0153  0.4968 -0.3251
15417TIP3    H167742   4.599   1.293   3.787  0.9576  3.2960  0.0344
15417TIP3    H267743   4.684   1.176   3.743 -1.3500  0.5591  2.4852
15418TIP3   OH267744   1.190   2.736   6.306  0.1359 -0.2989  0.0082
15418TIP3    H167745   1.250   2.721   6.380  1.0457 -1.6226 -0.9661
15418TIP3    H267746   1.145   2.652   6.295  0.7202 -0.4284 -1.5419
15419TIP3   OH267747   1.564   5.269   1.536  0.2571  0.5597 -0.0954
15419TIP3    H167748   1.550   5.331   1.464 -0.2850 -0.7471 -1.1641
15419TIP3    H267749   1.477   5.255   1.574  0.1099 -0.6015 -0.7999
15420TIP3   OH267750   6.827   0.981   2.059  0.0436 -0.6076  0.0356
15420TIP3    H167751   6.857   0.890   2.062  0.8677 -0.4764 -2.1179
15420TIP3    H267752   6.752   0.979   2.000 -1.7023 -0.2529  2.1184
15421TIP3   OH267753   5.374   4.371  16.407 -0.7230 -0.3430 -0.0527
15421TIP3    H167754   5.361   4.466  16.407  0.4641 -0.1667  0.3925
15421TIP3    H267755   5.365   4.346  16.499  3.8833  0.1266  0.7559
15422TIP3   OH267756   3.217   3.119  10.748  0.8271  0.4857  0.2023
15422TIP3    H167757   3.178   3.153  10.667 -0.5849 -2.2331 -0.3535
15422TIP3    H267758   3.308   3.100  10.724  0.6453  0.4682 -0.4906
15423TIP3   OH267759   0.501   3.352   1.447 -0.6162  0.0093  0.2168
15423TIP3    H167760   0.459   3.287   1.503 -1.1291 -1.1541 -1.4618
15423TIP3    H267761   0.575   3.384   1.499 -1.5583 -0.3824  1.8813
15424TIP3   OH267762   1.594   6.249   3.080  0.1500  0.0111  0.2568
15424TIP3    H167763   1.580   6.344   3.078 -0.5304 -0.0707 -2.2198
15424TIP3    H267764   1.527   6.216   3.139  0.5389  1.0786  1.3254
15425TIP3   OH267765   1.941   4.319   3.714 -0.5461 -0.1387 -0.6941
15425TIP3    H167766   2.034   4.340   3.727 -0.6702  0.1325 -0.2256
15425TIP3    H267767   1.895   4.397   3.743 -1.0313 -1.1195  1.3858
15426TIP3   OH267768   1.900   5.054   2.886 -0.2060 -0.2203 -0.2112
15426TIP3    H167769   1.895   4.959   2.871 -1.4120 -0.1806 -0.1409
15426TIP3    H267770   1.991   5.069   2.914  0.0072 -1.3461 -0.2494
15427TIP3   OH267771   4.647   6.806  15.515  0.1220 -0.7427 -0.7245
15427TIP3    H167772   4.578   6.854  15.562  2.6530  1.3205  1.2124
15427TIP3    H267773   4.700   6.767  15.585  1.5316 -1.3181 -2.0742
15428TIP3   OH267774   5.281   2.204  10.596  0.5695  0.0047  0.0828
15428TIP3    H167775   5.360   2.152  10.582  3.9928  4.1970  1.7211
15428TIP3    H267776   5.273   2.257  10.516 -1.6885 -1.4080 -0.7304
15429TIP3   OH267777   2.925   1.647   2.340 -0.0037 -0.1816  0.3415
15429TIP3    H167778   2.857   1.665   2.405  1.8965  1.1155  2.1072
15429TIP3    H267779   2.992   1.598   2.387  0.8478 -0.3932 -1.0148
15430TIP3   OH267780   5.451   5.580   5.150 -0.6663  0.0687 -0.0030
15430TIP3    H167781   5.377   5.524   5.128 -0.4805 -1.1177  2.1306
15430TIP3    H267782   5.519   5.557   5.087 -1.5733  0.0194 -0.9745
15431TIP3   OH267783   5.731   5.071   1.735  0.0580 -0.4409  0.7387
15431TIP3    H167784   5.686   5.110   1.660 -0.8577 -3.4334 -0.4355
15431TIP3    H267785   5.687   5.108   1.811 -0.9629  0.5159 -0.2742
15432TIP3   OH267786   6.493   2.435  10.464 -0.8890  0.1279  0.4412
15432TIP3    H167787   6.545   2.512  10.439 -0.8895  0.3889  1.2013
15432TIP3    H267788   6.423   2.431  10.399  0.8519 -1.0828 -1.4793
15433TIP3   OH267789   5.956   0.274   5.534  0.1285 -0.0803 -0.0309
15433TIP3    H167790   5.866   0.273   5.502  0.0122  0.5417  0.2605
15433TIP3    H267791   5.955   0.213   5.608 -0.2890  0.6078  0.5537
15434TIP3   OH267792   5.008   2.638  16.872  0.2890 -0.0429 -0.1640
15434TIP3    H167793   5.048   2.553  16.890 -0.0892 -0.1568  0.1345
15434TIP3    H267794   5.066   2.701  16.915  1.5175  0.0111 -1.7911
15435TIP3   OH267795   4.723   4.606   3.204  0.2332  0.5229 -0.1939
15435TIP3    H167796   4.770   4.683   3.234  1.1763  0.9722 -2.6229
15435TIP3    H267797   4.791   4.542   3.185 -0.4031 -0.1275 -0.3447
15436TIP3   OH267798   1.459   1.566  12.407  0.2262 -0.7422  0.4728
15436TIP3    H167799   1.409   1.618  12.344  0.5894  0.0027  0.7852
15436TIP3    H267800   1.396   1.544  12.476  0.3343  0.3253  0.9440
15437TIP3   OH267801   3.179   5.628  14.453  0.1226 -0.2455  0.1411
15437TIP3    H167802   3.171   5.536  14.429 -1.8156 -0.3438  1.0452
15437TIP3    H267803   3.223   5.627  14.538  0.5574 -0.3017 -0.0828
15438TIP3   OH267804   2.963   3.204  14.811 -0.3911 -1.0539  0.3338
15438TIP3    H167805   2.949   3.156  14.730 -1.6198  0.9865 -0.7477
15438TIP3    H267806   3.055   3.228  14.809 -0.2526 -1.6005 -0.1180
15439TIP3   OH267807   6.563   5.982   0.177  0.0757 -0.0813 -0.0049
15439TIP3    H167808   6.625   5.923   0.218  1.5139 -0.0677 -2.0051
15439TIP3    H267809   6.494   5.925   0.143 -0.6788 -0.1650  1.5776
15440TIP3   OH267810   0.318   5.375   2.819 -0.0019  0.1679 -0.0631
15440TIP3    H167811   0.409   5.386   2.791  0.8013 -3.8995  0.3072
15440TIP3    H267812   0.311   5.429   2.898  1.0733  2.9364 -1.7263
15441TIP3   OH267813   3.680   1.307   2.194  0.3439  0.4455 -0.7500
15441TIP3    H167814   3.663   1.366   2.120  0.0830  0.8315 -0.3801
15441TIP3    H267815   3.732   1.360   2.255  0.4405  0.1679 -0.5903
15442TIP3   OH267816   5.852   6.325   0.031 -0.4925  0.7997  0.7349
15442TIP3    H167817   5.871   6.344   0.123  0.8630  1.1760  0.3935
15442TIP3    H267818   5.780   6.384   0.009 -1.1292  0.3931  1.6662
15443TIP3   OH267819   4.035   0.420  11.076  0.7168 -0.3300  0.2286
15443TIP3    H167820   4.017   0.474  11.152  0.7955 -0.9190  0.6793
15443TIP3    H267821   3.959   0.431  11.019  0.3996 -0.3191  0.6530
15444TIP3   OH267822   1.479   6.174   1.941 -0.0044 -0.1698 -0.3691
15444TIP3    H167823   1.414   6.143   1.877 -0.3873 -1.6600  0.7057
15444TIP3    H267824   1.526   6.243   1.894 -0.5584 -0.9084 -2.1155
15445TIP3   OH267825   2.262   1.012   0.393  0.2274  0.1461 -1.0278
15445TIP3    H167826   2.207   0.940   0.425 -0.0736  0.8615  0.1269
15445TIP3    H267827   2.321   0.970   0.331  0.8406 -1.3474  0.4513
15446TIP3   OH267828   0.729   1.674  16.902 -0.4535 -0.6387 -0.1679
15446TIP3    H167829   0.790   1.694  16.972  0.1993  0.4763 -1.0065
15446TIP3    H267830   0.650   1.641  16.946 -0.0666  0.0476  1.0701
15447TIP3   OH267831   6.686   2.934   4.025  0.1543 -0.3695  0.5586
15447TIP3    H167832   6.742   2.858   4.038  0.3398 -0.6170 -1.3878
15447TIP3    H267833   6.609   2.918   4.079  0.4952 -1.6268  0.6909
15448TIP3   OH267834   2.524   4.868   3.589 -0.0879  0.1955  0.4571
15448TIP3    H167835   2.466   4.941   3.568  0.1599 -0.2236 -1.8947
15448TIP3    H267836   2.596   4.875   3.527 -0.1842 -2.1840 -0.0253
15449TIP3   OH267837   5.086   0.179  13.052 -0.3879  0.3222  0.1096
15449TIP3    H167838   5.000   0.200  13.088  0.0479  0.8646  0.8758
15449TIP3    H267839   5.135   0.145  13.127  0.4763  1.2836  0.0023
15450TIP3   OH267840   3.865   0.625   2.256  0.3924  0.2297 -0.1875
15450TIP3    H167841   3.869   0.718   2.279  0.7093  0.6070 -1.6649
15450TIP3    H267842   3.924   0.616   2.181 -1.7571 -0.5859 -1.8921
15451TIP3   OH267843   2.159   4.052  13.988 -0.3247 -0.1551 -1.0541
15451TIP3    H167844   2.250   4.069  13.965  0.2883  1.1770  1.8347
15451TIP3    H267845   2.163   3.975  14.046 -0.8914  0.3950 -0.2599
15452TIP3   OH267846   2.677   2.304  14.058  0.7311 -0.4530 -0.0261
15452TIP3    H167847   2.692   2.213  14.031  1.1203 -0.3512 -0.1666
15452TIP3    H267848   2.585   2.307  14.084  0.0277 -0.2982 -2.3463
15453TIP3   OH267849   2.431   2.167   4.481  0.1471  0.0083 -0.0698
15453TIP3    H167850   2.364   2.224   4.521 -1.3567 -0.4594 -1.7845
15453TIP3    H267851   2.505   2.171   4.541 -0.7121  2.0779  0.9484
15454TIP3   OH267852   3.689   0.105   0.608  0.1076 -0.1616 -0.4002
15454TIP3    H167853   3.766   0.053   0.585  0.4816 -0.7926  1.9844
15454TIP3    H267854   3.726   0.189   0.638 -0.3287  0.4916 -1.6142
15455TIP3   OH267855   5.832   6.583  11.544  0.1847  0.4568 -0.1104
15455TIP3    H167856   5.749   6.609  11.583  0.4384  1.2492 -0.0723
15455TIP3    H267857   5.840   6.490  11.562 -2.2137 -0.4319 -2.8655
15456TIP3   OH267858   4.824   2.473  16.659  0.2340 -0.1730  0.5309
15456TIP3    H167859   4.772   2.405  16.615  0.9085 -0.5457  0.2941
15456TIP3    H267860   4.871   2.427  16.728  1.0700 -0.0540  0.0616
15457TIP3   OH267861   0.345   0.149  10.818  0.2167 -0.7205  0.2631
15457TIP3    H167862   0.287   0.224  10.819 -1.1941 -1.6940 -1.6666
15457TIP3    H267863   0.293   0.078  10.855  0.4011 -1.4292 -0.7864
15458TIP3   OH267864   2.880   4.062   5.234 -0.6985 -0.3897  0.2761
15458TIP3    H167865   2.804   4.007   5.251 -0.4470 -0.9934 -0.4878
15458TIP3    H267866   2.913   4.084   5.321 -1.6264 -0.2817  0.6099
15459TIP3   OH267867   3.502   3.205   4.880  0.0214 -0.4897 -0.0309
15459TIP3    H167868   3.466   3.203   4.968  0.1569 -1.1174  0.0119
15459TIP3    H267869   3.515   3.113   4.856  0.3379 -0.3166 -0.5588
15460TIP3   OH267870   4.115   6.517  13.943  0.3043 -0.2584  0.5504
15460TIP3    H167871   4.109   6.443  14.002 -1.3191 -0.5878  0.0242
15460TIP3    H267872   4.204   6.514  13.909 -0.3265 -3.3464 -1.1845
15461TIP3   OH267873   4.053   3.883  16.411  0.1722 -0.4337  0.6875
15461TIP3    H167874   4.050   3.938  16.333 -3.3400 -0.9481  0.2996
15461TIP3    H267875   4.065   3.794  16.377 -0.6516 -0.5801  0.7629
15462TIP3   OH267876   2.489   6.751   6.056 -0.2229 -0.1710  0.4398
15462TIP3    H167877   2.400   6.771   6.084 -0.1716  1.6544 -0.5173
15462TIP3    H267878   2.542   6.760   6.135 -0.5684  1.2156  0.5442
15463TIP3   OH267879   4.091   2.898   2.052  0.2508  0.3104 -0.4149
15463TIP3    H167880   4.182   2.919   2.028  0.1271  0.5307 -0.6968
15463TIP3    H267881   4.092   2.895   2.147 -0.0632  3.2341 -0.2395
15464TIP3   OH267882   4.747   0.059   3.707  0.1034 -0.2487  0.4648
15464TIP3    H167883   4.779   0.077   3.619  1.2955 -1.4382  0.6254
15464TIP3    H267884   4.675  -0.003   3.695 -0.1987  0.1247  0.3031
15465TIP3   OH267885   0.483   2.259  13.698  0.3763  0.5177  0.2762
15465TIP3    H167886   0.472   2.294  13.609  0.3735  0.6931  0.3439
15465TIP3    H267887   0.515   2.334  13.749  1.8378  0.0466  0.1057
15466TIP3   OH267888   0.169   3.367  10.883  0.4906 -0.3600  0.1896
15466TIP3    H167889   0.126   3.404  10.960 -0.6067 -0.6038 -0.3016
15466TIP3    H267890   0.098   3.331  10.830  0.9266  1.9835 -2.1697
15467TIP3   OH267891   2.681   4.683   3.759  0.0914  0.0324 -0.2196
15467TIP3    H167892   2.685   4.601   3.711 -1.7083 -0.0708 -0.2629
15467TIP3    H267893   2.633   4.743   3.702 -2.7667 -0.3080  1.6114
15468TIP3   OH267894   4.465   6.329   6.041 -0.0296 -0.0072 -0.2492
15468TIP3    H167895   4.408   6.398   6.008 -0.2057 -0.3810 -0.7516
15468TIP3    H267896   4.441   6.252   5.989  0.5073 -0.3190 -0.0417
15469TIP3   OH267897   4.951   2.928   5.797 -0.8214  0.7507  0.0925
15469TIP3    H167898   4.981   2.978   5.873 -1.0932  1.6554 -0.3895
15469TIP3    H267899   4.890   2.863   5.833  1.2546 -0.8037  1.0364
15470TIP3   OH267900   5.741   2.568   3.692 -0.2864 -0.2025  0.6547
15470TIP3    H167901   5.707   2.480   3.704  2.1379 -1.3599 -0.2604
15470TIP3    H267902   5.697   2.601   3.614 -1.0100 -0.7045  0.8439
15471TIP3   OH267903   5.576   5.162   0.705 -0.3892 -0.0981  0.0272
15471TIP3    H167904   5.498   5.166   0.650 -0.7730  0.2597  0.5820
15471TIP3    H267905   5.617   5.078   0.683 -0.9882 -0.3356 -0.1944
15472TIP3   OH267906   2.564   0.853  14.599  0.5635  0.3164  0.1631
15472TIP3    H167907   2.571   0.841  14.693 -1.6367  2.1826  0.6671
15472TIP3    H267908   2.655   0.863  14.569  1.3777 -1.3172  1.8636
15473TIP3   OH267909   5.137   1.858  12.549  0.3522 -0.3668  0.4182
15473TIP3    H167910   5.146   1.789  12.615  1.1072 -2.0979 -1.3640
15473TIP3    H267911   5.186   1.932  12.584  0.8558 -1.2792  1.7290
15474TIP3   OH267912   1.394   0.833   2.913 -0.2455 -0.2126  0.0753
15474TIP3    H167913   1.376   0.741   2.895 -1.5262  0.2051 -0.9359
15474TIP3    H267914   1.381   0.841   3.008 -3.3774 -0.4596 -0.2245
15475TIP3   OH267915   6.191   5.916   5.384 -0.0079 -0.3973  0.1375
15475TIP3    H167916   6.113   5.904   5.330  0.6701 -0.2370 -0.8913
15475TIP3    H267917   6.158   5.957   5.464 -0.6752  1.9469 -1.2477
15476TIP3   OH267918   2.753   1.215   4.274 -0.6890 -0.3354 -0.1656
15476TIP3    H167919   2.766   1.219   4.179 -1.5516 -0.6410 -0.3054
15476TIP3    H267920   2.745   1.122   4.293  1.1524 -0.3889  0.4614
15477TIP3   OH267921   3.509   6.363   1.096  0.3720  0.4410  1.3563
15477TIP3    H167922   3.600   6.336   1.084 -0.4139 -0.9582 -3.4176
15477TIP3    H267923   3.460   6.281   1.096 -1.0491  1.2278  2.8999
15478TIP3   OH267924   3.459   1.618  11.299  0.0856  0.2481 -0.2957
15478TIP3    H167925   3.493   1.576  11.378 -0.7877 -1.2819 -0.7015
15478TIP3    H267926   3.365   1.625  11.313 -0.0166  0.4302 -0.9987
15479TIP3   OH267927   4.126   5.248   1.613 -0.3370 -0.1752  0.1342
15479TIP3    H167928   4.178   5.327   1.596  1.0319 -0.5569  2.1367
15479TIP3    H267929   4.152   5.187   1.544 -0.0524  0.5122 -0.3825
15480TIP3   OH267930   5.397   4.597  14.968 -0.1062 -0.0610 -0.5728
15480TIP3    H167931   5.453   4.634  14.900 -1.1164  2.7147 -0.0188
15480TIP3    H267932   5.312   4.587  14.925 -0.3077  0.0267 -0.1985
15481TIP3   OH267933   3.273   3.858  10.620  0.5741  0.0207 -0.6113
15481TIP3    H167934   3.333   3.797  10.578 -0.4830 -2.6012  1.3957
15481TIP3    H267935   3.202   3.870  10.556  0.9856 -0.5452 -1.1801
15482TIP3   OH267936   5.424   1.913   0.335  0.0222 -0.4439  0.3042
15482TIP3    H167937   5.467   1.831   0.311  2.7012  0.5208  1.5270
15482TIP3    H267938   5.396   1.900   0.425  0.3304 -0.0766  0.4555
15483TIP3   OH267939   1.140   1.269   5.230  0.2063  0.1916  0.0852
15483TIP3    H167940   1.165   1.259   5.138  1.5897 -1.0593  0.5613
15483TIP3    H267941   1.119   1.361   5.239  4.2770  1.3666 -0.5345
15484TIP3   OH267942   4.254   1.384  15.968  0.4764 -0.1005 -0.1460
15484TIP3    H167943   4.222   1.348  15.885 -1.7356  0.7628  0.2521
15484TIP3    H267944   4.270   1.307  16.023  1.1338 -0.6408 -1.0769
15485TIP3   OH267945   0.437   6.288  11.403  0.7584 -0.3716  0.0077
15485TIP3    H167946   0.343   6.307  11.407  0.8568  0.2112 -0.3215
15485TIP3    H267947   0.461   6.266  11.493  0.0043 -2.0778 -0.1837
15486TIP3   OH267948   3.074   2.604   5.868 -0.0860  0.1415 -0.5128
15486TIP3    H167949   3.016   2.673   5.836  0.6708  1.6638  1.2446
15486TIP3    H267950   3.015   2.532   5.891 -0.8596  0.0012 -2.6457
15487TIP3   OH267951   2.343   0.288   4.111 -0.0245  0.0556 -0.0349
15487TIP3    H167952   2.407   0.255   4.048 -1.1175  0.7536 -1.6028
15487TIP3    H267953   2.392   0.352   4.163  0.8410 -0.2839 -0.4090
15488TIP3   OH267954   5.965   2.074  15.743 -0.4439 -0.1275  0.1437
15488TIP3    H167955   5.967   1.994  15.691  1.2362  0.2558 -0.4380
15488TIP3    H267956   6.016   2.053  15.821  0.3623  0.4826 -0.2080
15489TIP3   OH267957   0.476   4.641  14.870 -0.0331 -0.3177 -0.0015
15489TIP3    H167958   0.501   4.552  14.894  0.2738 -0.5859 -1.2483
15489TIP3    H267959   0.554   4.693  14.888  0.1942 -0.5148 -0.4018
15490TIP3   OH267960   4.567   5.148   1.935  1.0108 -0.1569  0.3361
15490TIP3    H167961   4.574   5.062   1.893  0.7995 -0.2038  0.3951
15490TIP3    H267962   4.651   5.191   1.916  0.8351 -0.0894 -0.3130
15491TIP3   OH267963   0.945   2.827  16.342 -0.6916  0.3337  0.0118
15491TIP3    H167964   1.007   2.899  16.332 -1.0194  0.7937  1.1506
15491TIP3    H267965   0.999   2.749  16.353 -0.2877  0.0089 -3.2206
15492TIP3   OH267966   6.040   0.555  11.394 -0.1854  0.4349  0.5991
15492TIP3    H167967   6.098   0.611  11.342  0.4975  0.0276  0.9154
15492TIP3    H267968   5.956   0.559  11.348  0.0601  1.1256  0.2034
15493TIP3   OH267969   5.893   4.110  14.965  0.1543  0.0080  0.2801
15493TIP3    H167970   5.837   4.177  14.924  0.4174  0.1544  0.1514
15493TIP3    H267971   5.929   4.153  15.042  1.0349  0.3285 -0.2921
15494TIP3   OH267972   2.516   4.278  11.642 -0.2827 -0.4281  0.0573
15494TIP3    H167973   2.501   4.282  11.736 -0.0697  1.3911  0.0321
15494TIP3    H267974   2.454   4.340  11.605 -0.7176 -1.4963 -1.0673
15495TIP3   OH267975   0.138   1.810   3.547  0.2561  0.7610 -0.1597
15495TIP3    H167976   0.233   1.798   3.542  0.2334  0.6882 -0.4425
15495TIP3    H267977   0.126   1.904   3.536  0.3171  0.8116  0.2089
15496TIP3   OH267978   6.782   4.136   0.103 -0.1452 -0.1512 -0.7740
15496TIP3    H167979   6.800   4.228   0.082  1.2745 -0.3989 -0.7077
15496TIP3    H267980   6.866   4.091   0.090 -0.7735 -1.4156 -0.6344
15497TIP3   OH267981   5.429   0.865   0.724 -0.3571 -0.1467  0.0188
15497TIP3    H167982   5.336   0.844   0.734 -0.6023  0.7210 -0.3322
15497TIP3    H267983   5.441   0.947   0.772 -0.1447  0.6220 -1.2949
15498TIP3   OH267984   0.699   0.140   1.680 -0.4591  0.5730  0.2656
15498TIP3    H167985   0.702   0.053   1.721 -0.5477  0.7561  0.6624
15498TIP3    H267986   0.607   0.150   1.653 -0.1450 -0.0881 -1.1706
15499TIP3   OH267987   0.156   1.268   0.768  0.8544  0.4740 -0.1281
15499TIP3    H167988   0.181   1.179   0.744  0.0947  0.7121 -1.9269
15499TIP3    H267989   0.208   1.324   0.710 -0.0131  1.1309 -0.2886
15500TIP3   OH267990   6.150   3.475   5.279 -0.3599 -0.3635  0.4450
15500TIP3    H167991   6.125   3.506   5.366  1.6823  2.2007  0.2695
15500TIP3    H267992   6.100   3.530   5.218 -1.0904 -1.5130 -0.0218
15501TIP3   OH267993   3.831   2.274   6.221 -0.3274 -0.2342  0.5759
15501TIP3    H167994   3.754   2.217   6.220  0.7574 -1.7529 -1.1856
15501TIP3    H267995   3.795   2.362   6.235 -2.3451 -0.9426  0.1562
15502TIP3   OH267996   0.918   5.187  14.988 -0.1355  0.2094 -0.5453
15502TIP3    H167997   0.826   5.167  15.007  0.1362 -0.8371 -0.2729
15502TIP3    H267998   0.967   5.126  15.042  0.7409  1.0594 -0.3566
15503TIP3   OH267999   1.668   0.963  15.949  0.3661  1.0577 -0.6181
15503TIP3    H168000   1.731   0.900  15.986 -0.2249  0.6159 -0.3370
15503TIP3    H268001   1.722   1.036  15.919  1.0428  0.5477 -0.6724
15504TIP3   OH268002   4.378   6.596   2.612  0.3833 -1.0606 -0.4446
15504TIP3    H168003   4.372   6.550   2.529 -1.3008  0.4043 -1.2098
15504TIP3    H268004   4.449   6.658   2.601 -0.5635 -0.0796 -1.2595
15505TIP3   OH268005   0.733   3.261  12.209  0.2116 -0.1208  0.1214
15505TIP3    H168006   0.825   3.237  12.197  0.3499  0.0118  0.8762
15505TIP3    H268007   0.703   3.205  12.280 -0.1763  0.1237  0.1507
15506TIP3   OH268008   1.912   1.624  16.291 -0.4829  0.4140 -0.4662
15506TIP3    H168009   1.929   1.715  16.317 -0.2624  0.1739  0.2392
15506TIP3    H268010   1.992   1.577  16.312 -1.0255 -0.1828  0.3332
15507TIP3   OH268011   1.069   3.877  17.036  0.3938  0.4266 -0.6337
15507TIP3    H168012   1.092   3.961  17.076  1.9730 -0.8305  1.3409
15507TIP3    H268013   1.143   3.857  16.978  1.0279 -0.4185  0.3984
15508TIP3   OH268014   4.449   2.318   0.251 -0.6809  0.0345 -0.3300
15508TIP3    H168015   4.477   2.310   0.342 -1.0724  1.9374  0.0150
15508TIP3    H268016   4.531   2.323   0.202 -0.3723  1.8997  0.2758
15509TIP3   OH268017   1.524   3.778  13.182 -0.8224 -0.6933 -0.2292
15509TIP3    H168018   1.592   3.843  13.165 -2.2970  2.1048  3.4064
15509TIP3    H268019   1.553   3.733  13.261 -1.3154 -2.4289 -0.9836
15510TIP3   OH268020   3.629   0.706  12.303 -0.7011  0.7306 -0.1844
15510TIP3    H168021   3.586   0.791  12.301 -1.0399  0.5389 -1.4794
15510TIP3    H268022   3.585   0.654  12.235 -1.7713 -1.1085  1.7721
15511TIP3   OH268023   3.324   5.717  14.149  0.0971 -0.0551  0.0404
15511TIP3    H168024   3.375   5.768  14.085 -2.3000  2.5394  0.0075
15511TIP3    H268025   3.389   5.684  14.210  1.9142  3.3980  0.2456
15512TIP3   OH268026   1.478   0.798   3.203  0.6496  0.1867  0.1929
15512TIP3    H168027   1.553   0.812   3.146  0.4592  1.8190  0.2987
15512TIP3    H268028   1.515   0.795   3.291  0.7604 -0.6557  0.1220
15513TIP3   OH268029   3.185   4.529  16.347  0.0729 -0.5647 -0.2042
15513TIP3    H168030   3.099   4.568  16.361  0.2128  0.2497 -1.4324
15513TIP3    H268031   3.178   4.487  16.261  0.5583 -1.4780  0.1992
15514TIP3   OH268032   5.831   6.147   4.025  0.7089  0.0947  0.2230
15514TIP3    H168033   5.822   6.174   3.934  0.8587 -2.1080 -0.4921
15514TIP3    H268034   5.914   6.101   4.028  1.3658  1.2872  1.8192
15515TIP3   OH268035   0.911   3.794   4.650 -0.6056 -0.0888  0.1509
15515TIP3    H168036   0.875   3.876   4.683 -1.8221 -0.6833  0.3488
15515TIP3    H268037   0.872   3.784   4.563  0.3213  0.0275 -0.2917
15516TIP3   OH268038   0.241   5.429  14.099  0.4331  0.1579  0.0777
15516TIP3    H168039   0.318   5.420  14.155 -0.2179  0.8587  1.1223
15516TIP3    H268040   0.241   5.521  14.073  1.3725 -0.3848 -2.0851
15517TIP3   OH268041   1.461   3.285   4.580 -0.3041 -0.1021 -0.1952
15517TIP3    H168042   1.367   3.284   4.601 -0.0597  1.4171  1.1073
15517TIP3    H268043   1.488   3.375   4.595  1.2322 -0.3432 -1.3105
15518TIP3   OH268044   4.575   0.020   3.332  0.1214  0.6464 -0.5257
15518TIP3    H168045   4.481   0.011   3.350 -0.0220 -0.0367 -1.5772
15518TIP3    H268046   4.583   0.105   3.288  0.1282  1.1207  0.3727
15519TIP3   OH268047   2.473   2.313  11.202 -0.1251 -0.4998 -0.2046
15519TIP3    H168048   2.469   2.292  11.109  2.1661 -2.0287 -0.0288
15519TIP3    H268049   2.556   2.359  11.213 -0.9400  0.8016  0.9323
15520TIP3   OH268050   2.808   3.679   6.170 -0.7435 -0.3310  0.4704
15520TIP3    H168051   2.758   3.597   6.166 -1.2417 -0.0007 -0.2485
15520TIP3    H268052   2.745   3.746   6.144 -0.2784  0.2604  0.8512
15521TIP3   OH268053   3.138   3.671   2.809 -0.2356 -0.2220  0.0460
15521TIP3    H168054   3.125   3.745   2.750  0.9883  0.1122  0.1664
15521TIP3    H268055   3.050   3.634   2.822 -0.8048  0.9669 -0.3183
15522TIP3   OH268056   5.454   0.770   5.834  0.6911 -0.2707 -0.1895
15522TIP3    H168057   5.423   0.732   5.752  0.3609 -1.1229  0.3194
15522TIP3    H268058   5.422   0.711   5.902  3.3188 -1.1626  0.3934
15523TIP3   OH268059   1.431   2.522  12.849  0.3236 -0.0252  0.3515
15523TIP3    H168060   1.392   2.509  12.762 -0.9020 -0.0396  0.8785
15523TIP3    H268061   1.448   2.616  12.854  0.6961 -0.0691 -0.0182
15524TIP3   OH268062   4.258   3.469   1.000 -0.2778 -0.0981  0.4433
15524TIP3    H168063   4.178   3.518   0.981  0.5354  1.1538  0.1137
15524TIP3    H268064   4.271   3.481   1.095 -0.6061 -0.5031  0.5401
15525TIP3   OH268065   4.166   4.665  13.704  0.5267  0.1027 -0.4744
15525TIP3    H168066   4.158   4.636  13.614  0.1054  0.4851 -0.5623
15525TIP3    H268067   4.208   4.750  13.699 -0.3404  0.5457 -0.3787
15526TIP3   OH268068   3.352   2.155   5.143 -0.2828 -0.1814  0.0505
15526TIP3    H168069   3.270   2.141   5.097 -0.1820  1.3857 -0.6853
15526TIP3    H268070   3.366   2.075   5.193 -2.4157 -0.3502  0.4652
15527TIP3   OH268071   6.463   6.038   2.581  0.0626  0.5696 -0.5443
15527TIP3    H168072   6.545   6.021   2.536 -0.9482 -2.1481 -1.5691
15527TIP3    H268073   6.415   5.955   2.576 -2.2390  1.6859  1.0939
15528TIP3   OH268074   1.103   5.206   4.493  0.3322  0.1653  0.4971
15528TIP3    H168075   1.173   5.254   4.448 -0.5671 -0.4840 -1.7485
15528TIP3    H268076   1.149   5.149   4.555  1.7436  0.3836 -0.3032
15529TIP3   OH268077   1.433   6.599  10.684  0.6206 -0.0709 -0.4119
15529TIP3    H168078   1.512   6.598  10.631  0.9588  2.5788 -0.0697
15529TIP3    H268079   1.372   6.654  10.635 -0.2352 -0.2684  0.3971
15530TIP3   OH268080   5.138   0.031  14.438 -0.7262  0.0809 -0.7056
15530TIP3    H168081   5.071   0.070  14.495 -1.0881  0.6411 -1.4819
15530TIP3    H268082   5.204   0.100  14.429  0.5173 -0.8295  0.8905
15531TIP3   OH268083   4.903   3.234   4.444 -0.1460  0.0004 -0.3075
15531TIP3    H168084   4.824   3.185   4.465 -0.6948  0.4023 -1.4019
15531TIP3    H268085   4.952   3.236   4.527 -1.4526  0.0845  0.4960
15532TIP3   OH268086   6.671   4.130  13.577 -0.1247  0.1999 -0.9516
15532TIP3    H168087   6.603   4.122  13.509  0.0607 -0.1501 -1.1005
15532TIP3    H268088   6.707   4.041  13.585  0.0532  0.3026 -0.6009
15533TIP3   OH268089   2.135   5.573   0.665 -0.0048 -0.4544 -0.1243
15533TIP3    H168090   2.222   5.606   0.641  0.8360 -1.8534  0.8570
15533TIP3    H268091   2.134   5.483   0.633 -1.3692 -0.2477 -0.7185
15534TIP3   OH268092   4.471   3.142  11.044  0.6572  0.1776  0.1450
15534TIP3    H168093   4.428   3.168  10.962 -1.3360 -1.7257  0.4906
15534TIP3    H268094   4.441   3.207  11.108  0.8657  0.7025 -0.2812
15535TIP3   OH268095   0.304   6.218  15.208 -0.1569 -0.1626  0.0140
15535TIP3    H168096   0.374   6.234  15.145  1.7402  2.5449  2.5527
15535TIP3    H268097   0.234   6.179  15.157  2.0773 -0.2276 -3.2665
15536TIP3   OH268098   3.990   1.469   2.203 -0.3658  0.6746 -0.2950
15536TIP3    H168099   4.041   1.429   2.273 -2.0469  0.9618  1.1601
15536TIP3    H268100   4.015   1.421   2.124 -0.4472 -1.5431  0.9594
15537TIP3   OH268101   3.397   3.248   6.383  0.2038  0.1460  0.5200
15537TIP3    H168102   3.487   3.277   6.370  0.3589  0.0545  1.3514
15537TIP3    H268103   3.402   3.182   6.452 -0.6876  1.2696  1.7141
15538TIP3   OH268104   2.235   2.756  16.356 -0.0996 -0.0956  0.3021
15538TIP3    H168105   2.210   2.838  16.399 -2.5041  0.1392 -1.3475
15538TIP3    H268106   2.208   2.688  16.417 -0.9773  0.2958  0.3669
15539TIP3   OH268107   4.937   6.772   2.123  0.1966 -0.0334  0.3281
15539TIP3    H168108   5.023   6.735   2.141  0.8661  0.4093 -1.7513
15539TIP3    H268109   4.901   6.718   2.053 -0.9701  0.1623  0.7481
15540TIP3   OH268110   6.277   2.677   3.059  0.0013 -0.5413  0.2605
15540TIP3    H168111   6.232   2.596   3.035  1.3545 -1.5241  0.8387
15540TIP3    H268112   6.231   2.746   3.012 -0.6378 -1.7614 -0.9728
15541TIP3   OH268113   3.564   1.842  14.586  0.0972 -0.2480  0.1145
15541TIP3    H168114   3.496   1.848  14.519 -0.1008  1.6965  0.4247
15541TIP3    H268115   3.518   1.859  14.669  0.9095  0.9818  0.3405
15542TIP3   OH268116   1.968   2.085  16.653 -0.2087 -0.4220 -0.2583
15542TIP3    H168117   1.876   2.102  16.673 -0.0555  0.3055 -0.1430
15542TIP3    H268118   2.011   2.169  16.666  0.5792 -0.8944  0.2872
15543TIP3   OH268119   5.960   1.750  14.932  0.6413  0.6448 -0.3487
15543TIP3    H168120   5.983   1.673  14.880  0.7388  0.9679 -0.7866
15543TIP3    H268121   6.040   1.771  14.980 -0.0971 -1.0665  1.7766
15544TIP3   OH268122   1.343   2.150  14.238 -0.4265 -0.1915  0.0124
15544TIP3    H168123   1.373   2.240  14.255  0.9369 -0.8923  1.7948
15544TIP3    H268124   1.392   2.122  14.161  0.5563  0.0155  0.5454
15545TIP3   OH268125   6.535   0.780   1.433 -0.2781  0.6568 -0.2360
15545TIP3    H168126   6.601   0.821   1.490 -0.6566  1.1043 -0.1109
15545TIP3    H268127   6.586   0.726   1.372  0.4013  2.5023 -1.4039
15546TIP3   OH268128   3.712   1.294   4.988 -0.2732  0.2065  0.4183
15546TIP3    H168129   3.716   1.386   4.964 -1.5710  0.5148  1.3157
15546TIP3    H268130   3.650   1.290   5.061 -1.6545 -1.5871 -0.7573
15547TIP3   OH268131   1.448   6.758   0.635 -0.3040 -0.4341  0.2205
15547TIP3    H168132   1.433   6.676   0.589 -0.1036 -0.2726 -0.1361
15547TIP3    H268133   1.491   6.732   0.716  0.7605 -0.5949 -0.3846
15548TIP3   OH268134   2.669   2.792   1.640 -0.6175 -0.8295  0.3262
15548TIP3    H168135   2.733   2.722   1.650  0.5280  0.3413  1.8447
15548TIP3    H268136   2.636   2.807   1.729  1.2754  2.3639  0.6478
15549TIP3   OH268137   3.184   3.593  16.699 -0.1092 -0.1939 -0.7045
15549TIP3    H168138   3.257   3.532  16.703 -0.3143 -0.4221 -0.3124
15549TIP3    H268139   3.106   3.538  16.710 -0.2104  0.3471  1.9577
15550TIP3   OH268140   4.690   4.151  15.713  0.6448  0.4673  0.3035
15550TIP3    H168141   4.693   4.113  15.801  0.2724  0.3035  0.2473
15550TIP3    H268142   4.765   4.113  15.669  0.0921 -0.4734  0.1469
15551TIP3   OH268143   2.066   2.657   4.199  0.0621 -0.1971 -0.1692
15551TIP3    H168144   2.109   2.634   4.281  0.9331 -0.5639 -0.7116
15551TIP3    H268145   1.992   2.711   4.225  1.4541  1.3770  0.7689
15552TIP3   OH268146   5.317   6.285  11.645  0.4567 -0.1968 -0.1650
15552TIP3    H168147   5.287   6.375  11.657  0.9365  0.1348 -1.2997
15552TIP3    H268148   5.394   6.293  11.589  2.1072 -1.0985  1.8215
15553TIP3   OH268149   2.510   5.155  15.245 -0.7929  0.5794 -0.1789
15553TIP3    H168150   2.515   5.251  15.240  1.6155  0.6576  1.6905
15553TIP3    H268151   2.590   5.125  15.202  0.4750 -0.3086  2.5659
15554TIP3   OH268152   6.614   1.007  16.513  0.3138 -0.3409 -0.2721
15554TIP3    H168153   6.632   0.928  16.463  2.9472 -0.0181  0.0347
15554TIP3    H268154   6.595   0.977  16.602  0.0946 -0.6691 -0.4297
15555TIP3   OH268155   1.954   3.004   2.143  0.2963 -0.0032 -0.0442
15555TIP3    H168156   1.873   3.039   2.181  0.0696 -2.0654  1.5853
15555TIP3    H268157   1.935   2.996   2.049  0.3885  3.9737 -0.6015
15556TIP3   OH268158   2.453   3.888   1.788 -0.0755  0.4787 -0.1047
15556TIP3    H168159   2.417   3.951   1.850 -2.0576  0.3574 -1.0672
15556TIP3    H268160   2.473   3.939   1.710 -0.7650  0.0889 -0.5421
15557TIP3   OH268161   6.710   2.074   3.137 -0.5454  0.1949 -0.4228
15557TIP3    H168162   6.637   2.014   3.152 -3.3824  2.9428 -1.9508
15557TIP3    H268163   6.700   2.141   3.204  0.8568  0.4441 -0.4373
15558TIP3   OH268164   1.425   5.495   5.419 -0.2018  0.1233  0.4905
15558TIP3    H168165   1.409   5.590   5.417  1.0866  0.3813  1.2930
15558TIP3    H268166   1.420   5.471   5.511  1.3387 -0.2253  0.5117
15559TIP3   OH268167   5.053   6.296   5.987 -0.2535 -0.0049 -0.7094
15559TIP3    H168168   5.066   6.357   5.914 -0.0363  0.3144 -0.4057
15559TIP3    H268169   5.119   6.322   6.052  0.9980 -1.6164 -1.2647
15560TIP3   OH268170   1.725   3.991   0.693 -0.2759  0.0145  0.1560
15560TIP3    H168171   1.778   4.067   0.717 -0.3869  0.5948 -1.3171
15560TIP3    H268172   1.642   4.003   0.739  0.1021  0.2103  0.7931
15561TIP3   OH268173   1.436   6.642  13.148 -0.3905  0.8217  0.3244
15561TIP3    H168174   1.466   6.555  13.174 -0.5093  0.2696 -1.3158
15561TIP3    H268175   1.401   6.680  13.229 -1.2365 -1.0332  0.8876
15562TIP3   OH268176   5.476   3.730   1.676  0.1877 -0.1815 -0.2594
15562TIP3    H168177   5.501   3.800   1.615  0.0754  0.2807  0.2146
15562TIP3    H268178   5.554   3.717   1.730  0.5556 -1.1295 -0.9847
15563TIP3   OH268179   3.168   0.716  14.909 -0.3778 -0.2057 -0.0765
15563TIP3    H168180   3.208   0.633  14.934  0.0281  0.1641  0.5261
15563TIP3    H268181   3.231   0.783  14.936 -1.0249  0.3383  0.1304
15564TIP3   OH268182   4.644   2.922   3.902 -0.2026  0.5087 -0.8706
15564TIP3    H168183   4.592   2.872   3.965  0.9804  1.4658  0.9387
15564TIP3    H268184   4.663   3.004   3.946 -0.8513  2.0147 -3.2066
15565TIP3   OH268185   0.388   0.482  15.471  0.3266 -0.2859 -1.2475
15565TIP3    H168186   0.482   0.484  15.489  0.4697  2.7848 -1.8702
15565TIP3    H268187   0.382   0.452  15.380  0.7659  0.2988 -1.4710
15566TIP3   OH268188   2.253   1.249  16.413 -0.0504 -0.2392  0.1107
15566TIP3    H168189   2.347   1.259  16.399  0.0940 -1.0024  0.4558
15566TIP3    H268190   2.245   1.235  16.508 -0.4648 -0.6416  0.0188
15567TIP3   OH268191   4.084   0.108   1.810 -0.6112 -0.3459  0.3245
15567TIP3    H168192   4.067   0.183   1.867 -2.0047  0.7246 -1.3754
15567TIP3    H268193   4.177   0.089   1.822 -0.4929  0.8918  1.6888
15568TIP3   OH268194   6.182   4.685  14.143 -0.3014  0.7417 -0.1066
15568TIP3    H168195   6.116   4.658  14.207 -1.7989  0.2052 -1.7915
15568TIP3    H268196   6.152   4.647  14.060  1.9039  0.8847 -1.0277
15569TIP3   OH268197   6.430   2.637  10.179  0.4589 -0.5988  0.0247
15569TIP3    H168198   6.371   2.569  10.211 -0.9749  1.7403  2.8047
15569TIP3    H268199   6.503   2.637  10.241  0.6670  0.0532 -0.2037
15570TIP3   OH268200   0.034   3.296   3.367 -0.1729 -0.2498 -0.1899
15570TIP3    H168201   0.072   3.209   3.371 -1.7280 -0.9397  0.2468
15570TIP3    H268202   0.108   3.355   3.380  0.6627 -1.5318  1.1388
15571TIP3   OH268203   4.104   6.117   6.281 -0.4468 -0.4688  0.1885
15571TIP3    H168204   4.103   6.200   6.329 -0.0727 -1.0797  1.2649
15571TIP3    H268205   4.163   6.061   6.330 -1.6414 -1.7916  0.1654
15572TIP3   OH268206   1.780   4.742  10.695 -0.1282  0.1798 -0.5902
15572TIP3    H168207   1.832   4.740  10.614  1.8768 -0.3258  0.6338
15572TIP3    H268208   1.696   4.703  10.671  0.2829  0.4086 -2.5171
15573TIP3   OH268209   3.934   3.087   1.520 -0.0517 -0.2207 -0.6740
15573TIP3    H168210   3.939   3.133   1.436  0.4577  0.4376 -0.2983
15573TIP3    H268211   4.002   3.128   1.573 -1.0911  0.1576  0.4267
15574TIP3   OH268212   3.017   1.532  11.170  0.0555 -0.2503  0.0268
15574TIP3    H168213   2.955   1.524  11.098 -0.5874  0.6978  0.4673
15574TIP3    H268214   3.096   1.568  11.130 -0.6691  1.3397 -0.0328
15575TIP3   OH268215   6.420   2.423   1.270  0.5218 -0.6331  0.4908
15575TIP3    H168216   6.361   2.350   1.286 -0.4013 -0.7762 -2.7878
15575TIP3    H268217   6.368   2.501   1.291  0.4667 -0.8386  1.1285
15576TIP3   OH268218   3.574   2.527   3.963  0.0190  0.0414 -0.1559
15576TIP3    H168219   3.490   2.481   3.967 -0.1156  0.1687 -1.1780
15576TIP3    H268220   3.593   2.551   4.054 -0.3526 -1.2329  0.2746
15577TIP3   OH268221   3.961   2.687   3.084  0.2067 -0.0678 -0.6332
15577TIP3    H168222   3.976   2.732   3.001 -0.3793  2.7941  0.7155
15577TIP3    H268223   3.901   2.615   3.061 -0.8107  1.3015 -2.5344
15578TIP3   OH268224   3.003   1.938   5.618  0.3119  0.1980 -0.3429
15578TIP3    H168225   3.086   1.892   5.606  0.5467  0.4657  0.2272
15578TIP3    H268226   2.949   1.876   5.669  0.4254  0.3219 -0.0709
15579TIP3   OH268227   5.762   3.288   2.199  0.1710 -0.5277  0.3891
15579TIP3    H168228   5.735   3.371   2.160  2.9900 -0.6976 -2.2975
15579TIP3    H268229   5.754   3.225   2.128  1.6184 -1.7731  1.2818
15580TIP3   OH268230   5.322   3.173   4.605  0.6073 -0.7617  0.2072
15580TIP3    H168231   5.387   3.167   4.535  0.3704  2.2216 -0.3892
15580TIP3    H268232   5.260   3.102   4.586  0.4969 -0.0261 -2.7323
15581TIP3   OH268233   4.261   0.073  15.425 -0.4255  0.2629  0.0115
15581TIP3    H168234   4.226   0.022  15.497 -0.2762  0.6179  0.3381
15581TIP3    H268235   4.347   0.103  15.456 -0.8886  1.4710  0.1845
15582TIP3   OH268236   5.133   4.094   1.137  0.2264  0.3173  0.2682
15582TIP3    H168237   5.108   4.050   1.056  0.0602  0.3631  0.2934
15582TIP3    H268238   5.089   4.044   1.206  0.8722 -0.0961  0.3828
15583TIP3   OH268239   2.886   2.747  12.952  0.4032 -0.2447  0.0951
15583TIP3    H168240   2.856   2.656  12.953 -2.0960  0.4437 -1.8421
15583TIP3    H268241   2.981   2.741  12.941  0.6103 -2.5729  2.2424
15584TIP3   OH268242   2.196   3.983   3.719 -0.3915 -0.3925 -0.0519
15584TIP3    H168243   2.126   4.041   3.689 -0.1863 -0.5588 -0.8639
15584TIP3    H268244   2.177   3.969   3.812 -0.0990  1.4596  0.3240
15585TIP3   OH268245   3.450   2.855  11.398 -0.1278  0.4248  0.0316
15585TIP3    H168246   3.437   2.899  11.314  0.9898 -0.1906 -0.4877
15585TIP3    H268247   3.507   2.915  11.448  1.1111 -0.2414 -0.5460
15586TIP3   OH268248   3.109   4.756  13.216  0.2328 -0.5685  0.3913
15586TIP3    H168249   3.031   4.704  13.236 -0.6244  0.3285 -0.5200
15586TIP3    H268250   3.155   4.705  13.149 -0.5456 -0.2403 -0.4202
15587TIP3   OH268251   3.666   0.254  16.984 -0.8222 -0.4988  0.8923
15587TIP3    H168252   3.724   0.182  17.012 -0.6111  0.2136  2.4478
15587TIP3    H268253   3.684   0.324  17.048 -0.2012  1.3692 -1.1963
15588TIP3   OH268254   1.662   3.908   2.089  0.0499  0.5703 -0.8197
15588TIP3    H168255   1.687   3.983   2.035  2.9948 -0.2073 -0.6734
15588TIP3    H268256   1.741   3.855   2.095 -1.5927 -1.9535  0.1183
15589TIP3   OH268257   5.276   6.720   5.528  0.2585 -0.0246  0.1725
15589TIP3    H168258   5.333   6.734   5.603 -0.4240 -2.3226  1.1788
15589TIP3    H268259   5.293   6.796   5.472  4.0460 -0.3902  0.5322
15590TIP3   OH268260   6.473   2.003  12.104 -0.3126 -0.7061 -0.0888
15590TIP3    H168261   6.527   2.016  12.182  0.0526 -3.1403  0.1358
15590TIP3    H268262   6.383   2.001  12.137 -0.3885  0.9411 -0.1334
15591TIP3   OH268263   4.075   1.146   4.224 -0.2336  0.0329  0.0282
15591TIP3    H168264   4.166   1.117   4.219 -0.4348 -0.7115  0.5910
15591TIP3    H268265   4.071   1.222   4.165  0.4329 -0.7292 -1.0184
15592TIP3   OH268266   2.760   3.534  15.639 -0.7214  0.1286 -0.1425
15592TIP3    H168267   2.817   3.577  15.703 -1.0406 -0.7196  0.7394
15592TIP3    H268268   2.694   3.491  15.693 -2.2006  1.0680 -1.1271
15593TIP3   OH268269   2.133   3.346  10.242 -0.9224 -0.3592  0.3289
15593TIP3    H168270   2.195   3.387  10.183 -1.0836 -0.4307  0.1075
15593TIP3    H268271   2.096   3.418  10.294 -0.9075 -0.2757  0.2221
15594TIP3   OH268272   6.860   0.362  12.178 -0.1822  0.1911  0.5909
15594TIP3    H168273   6.902   0.284  12.213  0.1580 -0.5776 -1.4411
15594TIP3    H268274   6.767   0.350  12.197 -0.3260 -1.4177 -0.8734
15595TIP3   OH268275   1.042   6.281  16.044  0.1711  0.1811 -0.0059
15595TIP3    H168276   1.025   6.187  16.038  0.1792  0.1412  0.5687
15595TIP3    H268277   0.961   6.323  16.015 -0.5165 -0.0077  1.5563
15596TIP3   OH268278   1.031   2.624   2.312  0.0311  0.5851  0.2606
15596TIP3    H168279   1.119   2.597   2.285  0.1759  1.2572  0.0415
15596TIP3    H268280   0.973   2.557   2.274  0.3988  0.4337 -0.0461
15597TIP3   OH268281   1.434   0.223   1.326  0.4294 -0.9700  0.2525
15597TIP3    H168282   1.406   0.310   1.353  0.1616 -1.4563  1.6275
15597TIP3    H268283   1.504   0.239   1.262 -0.4164  0.2333 -0.4180
15598TIP3   OH268284   3.218   4.968   1.656 -0.3843 -0.1289 -0.6586
15598TIP3    H168285   3.253   5.019   1.729  2.2376  1.0958 -2.6111
15598TIP3    H268286   3.233   4.876   1.681  0.6015  0.2737  0.3053
15599TIP3   OH268287   4.255   5.369  15.831 -0.0334  0.0969 -0.6177
15599TIP3    H168288   4.195   5.348  15.903 -0.0882  0.0854 -0.6671
15599TIP3    H268289   4.202   5.420  15.770 -0.3663 -1.0012 -1.2837
15600TIP3   OH268290   0.574   3.466   4.023  0.5683 -0.1142 -0.6897
15600TIP3    H168291   0.631   3.475   3.946  1.1392 -0.6093 -0.3334
15600TIP3    H268292   0.519   3.391   4.005  0.2897  0.1301 -0.8671
15601TIP3   OH268293   1.466   1.348  10.436 -0.2955  0.4026 -0.3886
15601TIP3    H168294   1.554   1.370  10.406 -0.6898  0.7156 -1.3355
15601TIP3    H268295   1.464   1.375  10.528  0.8715 -0.4110 -0.0961
15602TIP3   OH268296   2.171   2.179   3.380 -0.3226  0.0623 -0.0464
15602TIP3    H168297   2.249   2.211   3.425  0.4781 -0.7507 -0.8079
15602TIP3    H268298   2.168   2.086   3.400  1.2902 -0.8225 -3.2934
15603TIP3   OH268299   0.099   5.984  14.045 -0.2003  0.3050 -0.1032
15603TIP3    H168300   0.077   5.969  14.137 -1.5941  1.4123 -0.2201
15603TIP3    H268301   0.083   6.078  14.031 -0.4427  0.0781 -1.5718
15604TIP3   OH268302   3.217   1.335  11.959  0.2425  0.2129 -0.3641
15604TIP3    H168303   3.311   1.350  11.950  0.3902 -0.3633  0.1057
15604TIP3    H268304   3.209   1.279  12.036 -0.4235 -0.3842 -0.8499
15605TIP3   OH268305   3.592   5.507  15.640  0.0694 -0.2670  0.3615
15605TIP3    H168306   3.650   5.548  15.577  2.3958 -1.3486  1.6809
15605TIP3    H268307   3.649   5.454  15.696 -2.3667 -2.8140  0.7053
15606TIP3   OH268308   4.465   5.412  12.511 -0.1694  0.1695 -0.2058
15606TIP3    H168309   4.377   5.377  12.520 -0.3307  0.3543 -0.9998
15606TIP3    H268310   4.519   5.355  12.567 -0.5142 -1.0040 -1.0330
15607TIP3   OH268311   4.204   0.392  16.623 -0.0678  0.3776 -0.1663
15607TIP3    H168312   4.290   0.372  16.659  0.6474  3.2244 -0.1010
15607TIP3    H268313   4.217   0.471  16.571 -2.3170 -0.1151 -1.6097
15608TIP3   OH268314   4.883   6.445  16.644 -0.0036 -0.1179 -0.1739
15608TIP3    H168315   4.961   6.389  16.650  0.9987  1.0268 -1.5562
15608TIP3    H268316   4.872   6.482  16.732  1.1350 -0.1744  0.0058
15609TIP3   OH268317   2.801   4.492  11.974 -0.0180 -0.2010  0.3882
15609TIP3    H168318   2.713   4.507  11.938  0.6404  2.1303 -0.4386
15609TIP3    H268319   2.788   4.494  12.069 -1.1212 -1.9752  0.3294
15610TIP3   OH268320   4.748   6.652   4.178  0.1767 -0.4324 -0.0891
15610TIP3    H168321   4.744   6.727   4.119 -1.1002  0.6900  1.3091
15610TIP3    H268322   4.790   6.583   4.128  0.1026  0.7893 -1.9157
15611TIP3   OH268323   6.708   6.723   1.799 -0.1393  0.7791 -0.1966
15611TIP3    H168324   6.770   6.731   1.727 -0.4786  3.3240 -0.2994
15611TIP3    H268325   6.697   6.629   1.812  0.5114  0.2619 -2.9433
15612TIP3   OH268326   6.500   3.787   1.447  0.1365  0.3799  0.4246
15612TIP3    H168327   6.429   3.842   1.415  0.8646  0.4090 -1.2370
15612TIP3    H268328   6.485   3.702   1.407 -0.2506 -0.3013  1.9433
15613TIP3   OH268329   5.804   2.258   2.454  0.0503 -0.4465  0.0860
15613TIP3    H168330   5.713   2.232   2.437  0.9619 -3.9627 -0.0524
15613TIP3    H268331   5.832   2.204   2.527  2.4607 -0.4965 -0.7828
15614TIP3   OH268332   2.938   1.088  15.011  0.0845 -0.1669 -0.2086
15614TIP3    H168333   2.940   1.144  15.088  3.0204 -0.4057 -0.0248
15614TIP3    H268334   2.926   0.999  15.045  0.6524 -0.1954 -0.0818
15615TIP3   OH268335   0.348   2.417  12.387  0.5958  0.1342  0.0369
15615TIP3    H168336   0.314   2.406  12.298  1.3529  0.0295 -0.2441
15615TIP3    H268337   0.341   2.331  12.426 -2.1985  0.6813  0.9997
15616TIP3   OH268338   3.733   1.644  16.003 -0.5264  0.3990  0.3791
15616TIP3    H168339   3.705   1.683  16.086 -2.2700  2.2730 -0.9719
15616TIP3    H268340   3.823   1.675  15.992 -0.1532 -0.1429  1.6852
15617TIP3   OH268341   3.755   6.061  14.262 -0.5856 -0.0108 -0.1758
15617TIP3    H168342   3.679   6.023  14.304  0.4545 -1.6221  0.3374
15617TIP3    H268343   3.775   6.001  14.190  2.4895 -1.9393  2.0577
15618TIP3   OH268344   6.676   3.348   4.473 -0.1775  0.6361 -1.1254
15618TIP3    H168345   6.590   3.307   4.482  0.0943  0.4877  2.1702
15618TIP3    H268346   6.671   3.426   4.529  2.1376 -0.0106  0.1133
15619TIP3   OH268347   3.055   2.189   1.386  0.6111  0.3958 -0.4747
15619TIP3    H168348   3.096   2.122   1.440 -2.7976 -1.3660  0.1926
15619TIP3    H268349   2.984   2.144   1.341 -1.0875  3.2729 -0.9505
15620TIP3   OH268350   3.713   1.825   4.700 -0.2586  0.0406 -0.6055
15620TIP3    H168351   3.721   1.917   4.674 -2.4193  0.3958 -0.2214
15620TIP3    H268352   3.648   1.826   4.770  1.5775 -1.5052  1.2734
15621TIP3   OH268353   4.302   3.915   4.192  0.6574  0.0259 -0.2819
15621TIP3    H168354   4.302   3.832   4.239 -0.9944  0.8847  1.3165
15621TIP3    H268355   4.232   3.905   4.127  2.2597 -0.7752 -1.9911
15622TIP3   OH268356   5.379   0.184  12.364 -0.1050 -0.0378  0.2923
15622TIP3    H168357   5.380   0.097  12.405 -0.5314  0.7721  2.1166
15622TIP3    H268358   5.425   0.240  12.426 -0.1350  1.1196 -0.6999
15623TIP3   OH268359   5.642   6.429   5.050  0.6290 -0.0634 -0.2533
15623TIP3    H168360   5.566   6.376   5.076  0.1097  0.5117 -0.5653
15623TIP3    H268361   5.702   6.422   5.124  0.5109 -0.9760 -0.2346
15624TIP3   OH268362   6.544   0.480   4.451 -0.1034  0.3116 -0.5627
15624TIP3    H168363   6.582   0.447   4.533  0.5918 -2.9739 -2.0504
15624TIP3    H268364   6.456   0.443   4.448  0.1772 -0.3022 -1.6542
15625TIP3   OH268365   6.608   1.833   5.645 -0.1572 -0.1346 -0.2173
15625TIP3    H168366   6.607   1.852   5.739  1.2764 -0.5477 -0.0984
15625TIP3    H268367   6.556   1.752   5.636  0.8684 -0.8825  0.4257
15626TIP3   OH268368   4.719   0.868   2.365  0.5881 -1.1954  0.3438
15626TIP3    H168369   4.678   0.794   2.318 -0.4441 -0.2212 -0.3492
15626TIP3    H268370   4.651   0.898   2.425  0.4298  0.1566 -0.4804
15627TIP3   OH268371   0.690   6.379   4.702 -0.9327  0.3514  0.0116
15627TIP3    H168372   0.640   6.304   4.735 -0.5081 -0.2895 -0.7779
15627TIP3    H268373   0.649   6.400   4.618  0.4696 -0.5859 -0.9603
15628TIP3   OH268374   1.338   1.278   2.733  0.0286 -0.7323  0.3095
15628TIP3    H168375   1.279   1.333   2.682 -0.8199 -1.0292  0.9471
15628TIP3    H268376   1.425   1.312   2.713 -0.5206  2.1994  2.1328
15629TIP3   OH268377   1.807   3.643  15.917 -0.1132  0.8615  0.0698
15629TIP3    H168378   1.786   3.709  15.984 -1.2834 -0.1797  0.7724
15629TIP3    H268379   1.895   3.613  15.939 -0.9351 -0.3550  1.9588
15630TIP3   OH268380   0.552   4.906  11.473  0.1332  0.4436  0.3741
15630TIP3    H168381   0.469   4.948  11.494  0.6916  2.0118 -0.3916
15630TIP3    H268382   0.533   4.812  11.475 -1.5189  0.7597  0.7061
15631TIP3   OH268383   2.347   3.143  14.191 -0.3415 -0.1757  0.6466
15631TIP3    H168384   2.397   3.061  14.183  1.8316  1.0821  0.3309
15631TIP3    H268385   2.401   3.198  14.247 -2.0489  0.8699  1.3395
15632TIP3   OH268386   1.459   5.662   2.376 -0.6695  0.6944  0.0003
15632TIP3    H168387   1.393   5.601   2.343  0.7932 -0.2115 -1.3834
15632TIP3    H268388   1.418   5.748   2.369 -2.4550  0.0202  1.1646
15633TIP3   OH268389   0.867   1.080   0.769 -0.4152  0.7578 -0.0935
15633TIP3    H168390   0.831   1.012   0.825 -1.4813  0.4496 -1.0984
15633TIP3    H268391   0.818   1.072   0.687  0.5067  1.7345 -0.7747
15634TIP3   OH268392   5.526   3.142  16.147  0.1209 -0.1286  0.0948
15634TIP3    H168393   5.509   3.233  16.123 -2.6271 -0.6394 -0.2292
15634TIP3    H268394   5.615   3.126  16.117 -0.3329  1.6124 -2.6357
15635TIP3   OH268395   2.816   2.757   4.059  0.1707 -0.3144  0.1760
15635TIP3    H168396   2.882   2.821   4.031 -1.6928  1.0987 -1.2252
15635TIP3    H268397   2.859   2.672   4.047  2.3659  0.5871  1.1146
15636TIP3   OH268398   2.064   3.079  11.001 -0.3746  0.6342 -0.0836
15636TIP3    H168399   2.150   3.056  10.965 -0.9979 -0.9579 -0.6195
15636TIP3    H268400   2.007   3.088  10.925 -0.8333  1.0917  0.3053
15637TIP3   OH268401   3.341   6.476   4.597 -0.2744  0.0885  0.5509
15637TIP3    H168402   3.389   6.547   4.554 -0.9422 -0.1053 -0.5618
15637TIP3    H268403   3.250   6.505   4.596 -1.0332 -1.9333 -2.5234
15638TIP3   OH268404   4.399   1.622  11.247 -0.1706  0.3799 -0.2516
15638TIP3    H168405   4.378   1.647  11.157  0.8235 -1.0628 -0.9125
15638TIP3    H268406   4.400   1.705  11.295 -2.1748  1.0445 -1.2248
15639TIP3   OH268407   3.798   0.521  13.535  0.2921 -0.2028  0.4148
15639TIP3    H168408   3.756   0.472  13.464  0.9865 -0.0045 -0.1453
15639TIP3    H268409   3.769   0.477  13.615 -1.9748  0.6974  0.1329
15640TIP3   OH268410   2.414   4.291  16.952  0.7366  0.0413  0.4009
15640TIP3    H168411   2.430   4.337  16.869  2.1944 -2.1907 -0.6623
15640TIP3    H268412   2.502   4.272  16.986  0.1716 -1.0708  1.2847
15641TIP3   OH268413   6.298   0.572   3.873 -0.4177 -0.4091  0.5316
15641TIP3    H168414   6.345   0.567   3.790 -2.1748 -0.6726 -0.5018
15641TIP3    H268415   6.366   0.591   3.938  1.4341 -2.8279 -0.5396
15642TIP3   OH268416   1.008   5.242   3.497 -0.0122 -0.1266  0.3006
15642TIP3    H168417   1.034   5.335   3.502 -1.5705  0.2847  1.4399
15642TIP3    H268418   1.060   5.207   3.424  1.6424  1.2890  0.7201
15643TIP3   OH268419   4.768   4.382  16.320 -0.0723  0.2207  0.0583
15643TIP3    H168420   4.858   4.357  16.339 -0.3103  0.4826  1.5984
15643TIP3    H268421   4.770   4.477  16.309 -0.0849  0.1681 -0.4494
15644TIP3   OH268422   0.458   4.466  13.732  0.2514  0.4310 -0.4975
15644TIP3    H168423   0.463   4.561  13.742  2.9334  0.4956 -1.5848
15644TIP3    H268424   0.525   4.432  13.792 -0.5863 -0.7766 -0.2139
15645TIP3   OH268425   0.920   5.367   1.758 -0.4797 -0.6236  0.1741
15645TIP3    H168426   0.871   5.447   1.738  0.9799 -0.2241 -2.1333
15645TIP3    H268427   0.994   5.398   1.810  1.2476 -0.0164 -2.4445
15646TIP3   OH268428   5.768   4.287  15.177  0.2006  0.0097 -0.3799
15646TIP3    H168429   5.832   4.221  15.204  0.6484  0.0768 -1.2530
15646TIP3    H268430   5.684   4.240  15.177  0.6828 -0.9618 -2.2793
15647TIP3   OH268431   5.126   5.628  13.965 -0.2501 -0.2133  0.5296
15647TIP3    H168432   5.114   5.700  13.903  3.6356 -1.1984 -1.6787
15647TIP3    H268433   5.177   5.666  14.037  2.8187 -0.7620 -1.1795
15648TIP3   OH268434   4.417   0.005  16.688  0.7032 -0.4338 -0.3977
15648TIP3    H168435   4.480  -0.016  16.757  0.3929 -0.1534 -0.0247
15648TIP3    H268436   4.353   0.062  16.730  0.2370 -0.6549 -0.7922
15649TIP3   OH268437   4.679   3.103   3.350 -0.1980  0.9250 -0.3352
15649TIP3    H168438   4.700   3.010   3.340  1.3618  1.3604 -1.6386
15649TIP3    H268439   4.632   3.125   3.269  0.9756  1.6163 -0.8642
15650TIP3   OH268440   4.815   2.277   0.370  0.0974  0.3950  0.1678
15650TIP3    H168441   4.782   2.188   0.361 -0.1544  0.5166 -0.1411
15650TIP3    H268442   4.849   2.282   0.459  1.8698 -0.5930 -0.4034
15651TIP3   OH268443   2.778   3.134   4.397 -0.4612 -0.9215  0.3159
15651TIP3    H168444   2.808   3.043   4.391 -2.3819 -1.5810  0.2058
15651TIP3    H268445   2.688   3.128   4.429 -0.9689  0.8883 -0.6292
15652TIP3   OH268446   4.425   1.041   3.142 -0.2637  0.7988  0.1849
15652TIP3    H168447   4.510   1.051   3.099 -0.8438  1.7242 -0.8244
15652TIP3    H268448   4.382   0.970   3.094 -0.2489  0.6857  0.3430
15653TIP3   OH268449   5.588   2.629  11.655 -0.3481 -0.0481 -0.2090
15653TIP3    H168450   5.597   2.621  11.560  0.5132 -0.6946 -0.0861
15653TIP3    H268451   5.512   2.575  11.677 -0.3851 -0.1149 -0.5013
15654TIP3   OH268452   5.684   0.997  11.130  0.7856 -0.6315  0.4567
15654TIP3    H168453   5.761   1.038  11.170  1.3733 -0.1165 -1.1468
15654TIP3    H268454   5.699   1.004  11.036 -1.6677  0.2934  0.0867
15655TIP3   OH268455   2.973   6.192   1.649  0.2806  0.3722 -0.1881
15655TIP3    H168456   3.032   6.151   1.711  1.4275 -1.5648 -2.3962
15655TIP3    H268457   2.960   6.281   1.682  1.5691 -0.2701  2.2339
15656TIP3   OH268458   3.255   2.640   1.403  0.4602 -1.2032  0.2481
15656TIP3    H168459   3.299   2.712   1.449 -1.2821 -0.4887  0.8617
15656TIP3    H268460   3.306   2.628   1.323  1.3320  0.0808  0.5769
15657TIP3   OH268461   4.415   6.795  13.488  1.1367 -0.5448 -0.2246
15657TIP3    H168462   4.353   6.772  13.419  0.1583 -1.2288  0.8532
15657TIP3    H268463   4.465   6.714  13.502 -0.6497 -1.3504  1.8732
15658TIP3   OH268464   2.723   1.762   1.386  0.0316  0.0313  0.4189
15658TIP3    H168465   2.693   1.674   1.406 -1.6588  0.7994  1.4688
15658TIP3    H268466   2.647   1.818   1.401  0.7467  1.5668 -1.2203
15659TIP3   OH268467   2.224   1.547  14.395  0.0461  0.2485  0.0841
15659TIP3    H168468   2.252   1.599  14.319 -0.9728  1.0371  0.2297
15659TIP3    H268469   2.302   1.542  14.450  0.9677 -0.7946 -1.2443
15660TIP3   OH268470   3.591   2.077  12.194 -0.3323  0.4684  0.1910
15660TIP3    H168471   3.501   2.060  12.164  0.0230 -0.1636 -0.5639
15660TIP3    H268472   3.637   2.108  12.116  0.3746 -0.2527  0.3123
15661TIP3   OH268473   6.519   4.518   0.267 -0.7661  0.0478  0.1825
15661TIP3    H168474   6.536   4.539   0.359  1.0691  1.0236 -0.3217
15661TIP3    H268475   6.571   4.582   0.218  0.7483 -2.3157 -1.5310
15662TIP3   OH268476   3.135   3.630   6.446  0.4221 -0.1187 -0.1534
15662TIP3    H168477   3.041   3.646   6.440  0.3888  0.0777  0.8037
15662TIP3    H268478   3.174   3.717   6.452  0.6448 -0.2135 -0.2032
15663TIP3   OH268479   0.461   3.502   0.992  0.4047 -0.1256 -0.0924
15663TIP3    H168480   0.524   3.509   1.063 -0.0127  1.7490  0.1459
15663TIP3    H268481   0.497   3.557   0.922 -0.9046  0.9625  0.0410
15664TIP3   OH268482   0.462   6.397  15.857  0.2083 -0.3799  0.1747
15664TIP3    H168483   0.408   6.320  15.841  0.0307  0.0258 -1.4643
15664TIP3    H268484   0.428   6.462  15.794  0.7870  0.7997  1.0532
15665TIP3   OH268485   3.052   1.729   5.965  0.5606  0.1406 -0.0142
15665TIP3    H168486   3.025   1.754   6.053  1.9197 -1.5323  0.9501
15665TIP3    H268487   3.029   1.637   5.958  0.4664  0.2529 -1.4382
15666TIP3   OH268488   1.190   3.587   1.365  0.1335  0.4177  0.5162
15666TIP3    H168489   1.202   3.506   1.315 -0.2591 -0.0452  1.1363
15666TIP3    H268490   1.169   3.556   1.454 -1.6179  1.1681  0.3974
15667TIP3   OH268491   0.557   6.563   5.574  0.3447 -0.0940  0.2765
15667TIP3    H168492   0.605   6.508   5.512 -0.2268  0.4770 -0.7156
15667TIP3    H268493   0.615   6.638   5.590  0.8361 -0.6366  1.0920
15668TIP3   OH268494   6.156   2.203   2.427 -0.1012  0.2561 -0.0915
15668TIP3    H168495   6.143   2.117   2.389 -0.5283  0.1387  0.3235
15668TIP3    H268496   6.079   2.253   2.401 -0.1072  0.3557  0.1157
15669TIP3   OH268497   4.030   0.287   0.915 -0.4319 -0.0506  1.0756
15669TIP3    H168498   3.993   0.256   0.997 -2.0046  0.4070  0.5891
15669TIP3    H268499   4.043   0.381   0.929  0.6912 -0.2253  1.2750
15670TIP3   OH268500   1.787   2.465   5.258  0.6305 -0.0038 -0.0280
15670TIP3    H168501   1.773   2.408   5.333  1.6819  1.3392  1.2588
15670TIP3    H268502   1.721   2.439   5.194 -0.4290 -1.0428  1.4528
15671TIP3   OH268503   3.350   1.502   5.008  0.3547  0.1507  0.3978
15671TIP3    H168504   3.359   1.415   5.047 -1.6038 -0.5037 -0.5005
15671TIP3    H268505   3.306   1.487   4.925  0.2136  1.9917  0.0893
15672TIP3   OH268506   6.656   3.866   2.676  0.4590  0.6541  0.4694
15672TIP3    H168507   6.581   3.920   2.648 -0.3509 -0.7194 -0.1510
15672TIP3    H268508   6.619   3.807   2.741  0.3795 -1.5965 -1.4822
15673TIP3   OH268509   4.614   2.060   2.277 -0.5852 -0.0431 -0.0031
15673TIP3    H168510   4.667   2.069   2.199 -1.6790 -2.9239 -1.2295
15673TIP3    H268511   4.537   2.115   2.260 -0.4028  0.0514 -0.5501
15674TIP3   OH268512   0.635   5.641  10.141  0.0650  0.3671  0.0866
15674TIP3    H168513   0.568   5.618  10.205 -1.2952  1.9569 -0.6740
15674TIP3    H268514   0.615   5.732  10.117  1.0732  0.1219 -1.9141
15675TIP3   OH268515   4.942   4.849  14.130 -0.4784  0.7153 -0.1335
15675TIP3    H168516   4.986   4.860  14.045 -0.0545  1.1069  0.1299
15675TIP3    H268517   5.013   4.832  14.191 -0.8069  0.2273  0.1077
15676TIP3   OH268518   5.990   1.023   2.590  0.6792  0.7575 -0.2867
15676TIP3    H168519   6.020   0.939   2.624 -0.7461  0.8070  1.2299
15676TIP3    H268520   5.933   1.000   2.516  1.6551  0.5012 -0.9735
15677TIP3   OH268521   1.280   4.282  15.172 -0.1844  0.0163 -0.1184
15677TIP3    H168522   1.277   4.186  15.170 -0.5065  0.0170  0.3532
15677TIP3    H268523   1.209   4.307  15.230 -1.9739  0.6430 -2.4276
15678TIP3   OH268524   4.120   4.834  15.455  0.3885  0.7000 -0.0985
15678TIP3    H168525   4.150   4.839  15.365  0.2775 -2.1950 -0.3886
15678TIP3    H268526   4.064   4.756  15.457  1.1781  0.1015  2.6661
15679TIP3   OH268527   0.953   4.218  14.935  0.3405  0.9420  0.1542
15679TIP3    H168528   0.989   4.130  14.951  1.5177  1.4088  0.2070
15679TIP3    H268529   0.862   4.203  14.909  0.5915 -0.3056 -0.0542
15680TIP3   OH268530   2.073   6.220  12.510 -0.1462 -0.4767  0.1444
15680TIP3    H168531   2.056   6.304  12.553 -0.8941  0.0616 -1.1538
15680TIP3    H268532   2.004   6.211  12.445  0.4618 -1.6722 -0.3806
15681TIP3   OH268533   0.405   5.102   4.198 -0.0585  0.2738 -0.6172
15681TIP3    H168534   0.462   5.163   4.245 -1.2899 -0.3462  1.8858
15681TIP3    H268535   0.464   5.035   4.164  0.8455  0.1935  1.0065
15682TIP3   OH268536   3.830   2.819  11.519 -0.1994  0.4642 -0.7277
15682TIP3    H168537   3.749   2.865  11.542 -1.0233 -1.3046  0.0897
15682TIP3    H268538   3.816   2.787  11.430  0.0118  0.9989 -0.9571
15683TIP3   OH268539   3.392   2.849   0.917 -0.2371 -0.4862  0.0287
15683TIP3    H168540   3.423   2.761   0.936 -1.3742 -0.6178  1.4302
15683TIP3    H268541   3.468   2.893   0.878  0.2434 -2.1526 -1.0265
15684TIP3   OH268542   3.307   6.278  12.857  0.0229 -0.5633 -0.7847
15684TIP3    H168543   3.285   6.230  12.937 -1.5017 -1.1351 -1.5070
15684TIP3    H268544   3.375   6.225  12.816  1.8764  0.4693  0.7698
15685TIP3   OH268545   3.737   2.509  10.734 -0.2515  0.7183  0.0083
15685TIP3    H168546   3.703   2.591  10.697 -0.0151  1.0768  0.5777
15685TIP3    H268547   3.667   2.445  10.717 -0.8537  1.2563  0.4143
15686TIP3   OH268548   0.423   4.879   2.252  0.0990 -0.4192 -0.0805
15686TIP3    H168549   0.352   4.933   2.287 -0.3098 -1.3906  0.6385
15686TIP3    H268550   0.499   4.903   2.304  0.4845  1.0887 -1.2745
15687TIP3   OH268551   3.603   0.340   3.394 -0.0156 -0.3716  0.4146
15687TIP3    H168552   3.647   0.401   3.336 -0.4924 -0.6239 -0.2178
15687TIP3    H268553   3.655   0.343   3.475  0.2110  0.5439  0.2482
15688TIP3   OH268554   1.276   2.741   2.657  0.0443  0.5025  0.5449
15688TIP3    H168555   1.331   2.663   2.645 -0.9671 -0.3005  0.9935
15688TIP3    H268556   1.264   2.776   2.569 -1.0071 -0.9316  0.0871
15689TIP3   OH268557   4.177   0.556  11.539 -0.2993 -0.0293 -0.1155
15689TIP3    H168558   4.164   0.584  11.630  0.7252  0.8608 -0.2299
15689TIP3    H268559   4.264   0.587  11.516 -0.7779  0.2934 -1.6084
15690TIP3   OH268560   3.907   0.287   4.809  0.5094 -0.2655 -0.6086
15690TIP3    H168561   3.836   0.347   4.831 -0.9485 -2.4358  1.0344
15690TIP3    H268562   3.872   0.233   4.738  0.9281 -0.6178 -0.5500
15691TIP3   OH268563   0.127   2.706   4.016  0.5198  0.1711  0.3125
15691TIP3    H168564   0.130   2.787   3.965  0.4417 -0.1480 -0.2009
15691TIP3    H268565   0.062   2.652   3.972 -0.9942  0.6184  1.8530
15692TIP3   OH268566   2.011   0.435  15.806  0.0446 -0.2509 -0.5774
15692TIP3    H168567   1.931   0.404  15.849  0.6066 -0.8382  0.0796
15692TIP3    H268568   2.074   0.364  15.819  0.1732 -0.5749 -2.6305
15693TIP3   OH268569   0.086   6.378  15.960 -0.3395  0.2232 -0.1138
15693TIP3    H168570   0.047   6.365  16.046  0.2195  1.7860  0.4093
15693TIP3    H268571   0.170   6.421  15.977 -0.1500  0.4346 -1.4257
15694TIP3   OH268572   4.419   1.912   4.023 -0.1087  0.1390 -0.1977
15694TIP3    H168573   4.386   1.964   4.096  1.4890 -0.7702  1.2208
15694TIP3    H268574   4.475   1.973   3.974  1.4819 -0.0835  1.2659
15695TIP3   OH268575   0.495   0.102   5.213 -0.3544  0.2845 -0.2149
15695TIP3    H168576   0.519   0.070   5.126 -1.4192  0.3837 -0.5508
15695TIP3    H268577   0.579   0.108   5.260  0.0125 -2.1081 -0.4227
15696TIP3   OH268578   3.019   1.560  13.062  0.2767  0.6587  0.3681
15696TIP3    H168579   2.929   1.563  13.094  0.1825 -3.2014  0.8709
15696TIP3    H268580   3.014   1.601  12.975 -2.5611 -1.4861 -0.6527
15697TIP3   OH268581   6.472   0.168  16.009  0.0944  0.2208 -0.1757
15697TIP3    H168582   6.546   0.189  15.951  0.0485  1.9519  0.3390
15697TIP3    H268583   6.407   0.130  15.951  1.2715 -1.0965 -0.6888
15698TIP3   OH268584   6.413   1.466  11.358  0.3641 -0.0601  0.0252
15698TIP3    H168585   6.490   1.475  11.303 -0.7767  3.2235 -1.2821
15698TIP3    H268586   6.446   1.474  11.447  1.6382  0.5361 -0.4738
15699TIP3   OH268587   5.236   0.296  13.274  0.8160 -0.3516  0.8883
15699TIP3    H168588   5.186   0.329  13.349  0.2857 -0.5156  0.6171
15699TIP3    H268589   5.254   0.373  13.221 -0.0921 -0.4280  0.4463
15700TIP3   OH268590   0.015   2.622  15.486  0.0245 -0.0110 -0.5827
15700TIP3    H168591  -0.070   2.609  15.445  0.6422 -0.2615 -1.8162
15700TIP3    H268592   0.070   2.552  15.450  0.0080 -1.7792  2.4852
15701TIP3   OH268593   5.667   0.880   3.311  0.1106 -0.7212  0.5534
15701TIP3    H168594   5.659   0.897   3.217  1.1292 -1.5429  0.3032
15701TIP3    H268595   5.714   0.956   3.345  0.8090 -0.9871  0.1889
15702TIP3   OH268596   2.545   1.393   4.323  0.1036 -0.3629 -0.1279
15702TIP3    H168597   2.493   1.344   4.387  1.2578  0.7919  1.7679
15702TIP3    H268598   2.630   1.349   4.321  0.0676 -0.4209 -0.9507
15703TIP3   OH268599   6.724   0.981   4.599 -0.0446 -0.2851 -0.4430
15703TIP3    H168600   6.703   0.896   4.636  0.7886 -0.5521 -0.5645
15703TIP3    H268601   6.641   1.015   4.567 -1.1355  0.5325  2.8124
15704TIP3   OH268602   5.220   6.672  14.261 -0.1826  0.2666  0.6638
15704TIP3    H168603   5.247   6.644  14.174 -1.4411 -1.0400  0.6461
15704TIP3    H268604   5.147   6.732  14.245  0.9967  1.7865  0.7817
15705TIP3   OH268605   6.751   3.549  14.972  0.2229 -0.0944  0.1997
15705TIP3    H168606   6.661   3.537  14.944  0.3944  1.8923 -1.4340
15705TIP3    H268607   6.785   3.618  14.915  1.9616  1.1182  2.5370
15706TIP3   OH268608   3.399   0.694  11.819 -0.2289 -0.0045  0.0985
15706TIP3    H168609   3.352   0.767  11.861 -0.5332 -0.0425 -0.1697
15706TIP3    H268610   3.490   0.724  11.814 -0.2407  0.1184  0.5227
15707TIP3   OH268611   2.588   0.784   5.768 -0.1701 -0.3928  0.2804
15707TIP3    H168612   2.666   0.813   5.816 -0.7533  0.6014  0.6662
15707TIP3    H268613   2.522   0.770   5.836 -0.0941 -2.1096  0.0454
15708TIP3   OH268614   6.588   2.420  10.977  0.4434  0.0531 -0.4435
15708TIP3    H168615   6.619   2.330  10.963 -0.9435 -0.4744 -0.2921
15708TIP3    H268616   6.546   2.444  10.895 -1.3897 -0.4022  0.3034
15709TIP3   OH268617   4.902   5.400  10.487  0.2514  0.6213 -0.1516
15709TIP3    H168618   4.989   5.368  10.464 -0.3200 -0.9028 -0.3512
15709TIP3    H268619   4.849   5.383  10.409 -0.4319  0.6277  0.3005
15710TIP3   OH268620   1.016   1.332  16.707  0.1712  0.0086  0.5903
15710TIP3    H168621   1.018   1.290  16.621  1.5934  0.1283  0.5418
15710TIP3    H268622   1.023   1.259  16.769 -1.2784 -0.1145  0.6428
15711TIP3   OH268623   0.612   2.007  13.630 -0.1964 -0.1208 -0.1932
15711TIP3    H168624   0.647   2.047  13.550 -0.6767  0.3186 -0.1859
15711TIP3    H268625   0.563   2.077  13.672 -0.3861 -0.5020  0.2230
15712TIP3   OH268626   6.510   6.090  15.802  0.0601 -0.6697  0.0084
15712TIP3    H168627   6.496   6.007  15.756  1.7840 -1.8748  1.5156
15712TIP3    H268628   6.602   6.111  15.785  0.3133 -0.3650  1.6248
15713TIP3   OH268629   2.355   3.003   1.768 -1.2398  0.1650 -0.1444
15713TIP3    H168630   2.423   2.942   1.796  0.1203  1.0721 -1.3499
15713TIP3    H268631   2.342   3.060   1.843  0.5889  1.0411 -0.4540
15714TIP3   OH268632   6.484   6.186   4.825 -0.0682  0.0085  0.4523
15714TIP3    H168633   6.480   6.096   4.856 -2.1816 -0.2421 -0.3834
15714TIP3    H268634   6.410   6.194   4.765  0.6266  2.0437 -0.2140
15715TIP3   OH268635   3.910   0.872   2.715 -0.3081 -0.0520 -0.4746
15715TIP3    H168636   3.921   0.909   2.627  0.8802 -1.6139 -1.0403
15715TIP3    H268637   3.899   0.948   2.772  0.0985  1.0615 -1.8168
15716TIP3   OH268638   0.269   0.780   5.572  0.0518  0.0405 -0.0638
15716TIP3    H168639   0.291   0.869   5.544 -1.0124  0.5812  0.7219
15716TIP3    H268640   0.335   0.759   5.638  0.0306  0.4317  0.0860
15717TIP3   OH268641   4.136   6.705   2.719 -0.5315 -0.2789 -0.1026
15717TIP3    H168642   4.132   6.800   2.732 -1.7794  0.2235 -3.2112
15717TIP3    H268643   4.227   6.688   2.697 -0.6406  0.5898 -1.3885
15718TIP3   OH268644   1.159   4.518   2.365 -0.1693 -0.5136  0.2575
15718TIP3    H168645   1.243   4.564   2.370 -0.3950  0.2241 -1.9038
15718TIP3    H268646   1.170   4.456   2.293 -1.6303 -0.0500 -0.4006
15719TIP3   OH268647   0.100   4.874   2.835 -0.4106 -0.3776 -0.3491
15719TIP3    H168648   0.124   4.845   2.747 -0.4896 -0.0642 -0.4729
15719TIP3    H268649   0.142   4.810   2.893  1.9528  0.9589 -0.4872
15720TIP3   OH268650   0.445   0.937   5.118 -0.0812  0.1407  0.0419
15720TIP3    H168651   0.396   0.963   5.039 -0.1609 -1.5961 -0.5263
15720TIP3    H268652   0.421   1.003   5.183 -3.2639 -0.6344 -0.1837
15721TIP3   OH268653   0.045   0.669   5.670  0.1120 -0.0023  0.3468
15721TIP3    H168654   0.087   0.617   5.737 -1.5998  0.3566  1.7831
15721TIP3    H268655   0.115   0.721   5.632  1.0864  0.0589  2.1319
15722TIP3   OH268656   6.821   0.671  15.738  0.0945  0.5547  0.6796
15722TIP3    H168657   6.858   0.712  15.661  1.1503  3.2286  2.4666
15722TIP3    H268658   6.892   0.673  15.803 -0.7843 -1.4712  1.7948
15723TIP3   OH268659   2.036   0.863  16.089  0.6076 -0.3934 -0.3269
15723TIP3    H168660   2.043   0.928  16.159  1.2775  1.0406 -1.6988
15723TIP3    H268661   1.954   0.816  16.109  1.6763 -1.2786  2.4342
15724TIP3   OH268662   0.320   1.781   2.674 -0.2163  0.0199  0.7644
15724TIP3    H168663   0.390   1.786   2.740 -0.0385 -0.6661  0.6273
15724TIP3    H268664   0.251   1.839   2.708  0.4285  0.7417  0.8805
15725TIP3   OH268665   0.183   2.928  16.628 -0.5622 -0.3638  0.1906
15725TIP3    H168666   0.144   2.915  16.541  0.1199 -2.2147  0.1352
15725TIP3    H268667   0.159   3.018  16.651 -1.6595 -0.1924 -1.4483
15726TIP3   OH268668   2.852   3.848  15.997 -0.3247 -0.1912 -0.2045
15726TIP3    H168669   2.813   3.922  16.044  0.2991 -0.1331  0.2382
15726TIP3    H268670   2.886   3.887  15.916  2.1669  0.5456  1.0862
15727TIP3   OH268671   1.366   4.654   5.427  0.2344 -0.0906  0.7253
15727TIP3    H168672   1.359   4.730   5.370  0.1234 -1.3837 -1.0883
15727TIP3    H268673   1.453   4.618   5.408  0.8939  0.3762  2.6577
15728TIP3   OH268674   1.616   4.508  11.230  0.0999 -0.1074 -0.0180
15728TIP3    H168675   1.678   4.444  11.265 -1.2038 -1.0616  0.6484
15728TIP3    H268676   1.594   4.563  11.305  1.8239  1.7001 -0.7662
15729TIP3   OH268677   0.743   3.269  15.222 -0.3841 -0.0891  0.3668
15729TIP3    H168678   0.669   3.234  15.173 -0.9838  0.1170  1.1073
15729TIP3    H268679   0.817   3.262  15.162 -0.4249 -2.7960  0.4988
15730TIP3   OH268680   0.199   2.445  14.046  0.2772 -0.2020 -0.1049
15730TIP3    H168681   0.113   2.484  14.033  0.8187  1.2109  0.4178
15730TIP3    H268682   0.180   2.359  14.086 -0.8723  1.3925  3.1794
15731TIP3   OH268683   2.641   4.916   3.935 -0.3856 -0.3596 -0.0168
15731TIP3    H168684   2.722   4.884   3.974  0.0840 -0.1697 -0.8244
15731TIP3    H268685   2.627   4.860   3.859 -0.0660  0.7318 -0.8961
15732TIP3   OH268686   0.026   1.364   4.238  0.0194  0.3427  0.1651
15732TIP3    H168687   0.049   1.423   4.310 -0.8200  0.4792  0.3347
15732TIP3    H268688  -0.036   1.303   4.276 -0.2056  0.2340 -0.3719
15733TIP3   OH268689   5.368   0.539   4.962  0.8042  0.2181 -0.0830
15733TIP3    H168690   5.398   0.463   4.911 -0.5478  0.3359 -1.1140
15733TIP3    H268691   5.273   0.536   4.954  0.5483  0.4092  2.2482
15734TIP3   OH268692   2.393   4.339  13.238  0.4570  0.5196  0.5055
15734TIP3    H168693   2.430   4.373  13.157 -0.1948 -0.2695 -0.1407
15734TIP3    H268694   2.325   4.278  13.210  1.3602 -1.0894  1.6117
15735TIP3   OH268695   3.300   3.627   1.285 -0.0755  0.1232  0.1210
15735TIP3    H168696   3.280   3.636   1.378  0.5248  0.6015  0.2090
15735TIP3    H268697   3.365   3.695   1.268  0.5199 -0.5764 -0.4355
15736TIP3   OH268698   4.148   0.564   0.906  0.1174  0.4986  0.0971
15736TIP3    H168699   4.224   0.618   0.884  0.4920  1.1848  2.7492
15736TIP3    H268700   4.073   0.619   0.884  0.4409  0.9241  0.0344
15737TIP3   OH268701   3.103   2.176  10.930  0.7454  0.1814  0.3432
15737TIP3    H168702   3.087   2.270  10.921 -0.5101  0.0564  1.0581
15737TIP3    H268703   3.099   2.142  10.841  1.2917  0.8164  0.0741
15738TIP3   OH268704   2.845   4.725  15.486 -0.3648  0.1927 -0.4909
15738TIP3    H168705   2.782   4.698  15.553  0.3922  1.9817  1.0736
15738TIP3    H268706   2.833   4.820  15.480  1.0567  0.3421 -1.3534
15739TIP3   OH268707   6.266   0.857   1.174  0.5145  0.0723 -0.1938
15739TIP3    H168708   6.205   0.904   1.117 -0.4451  0.4080  1.0731
15739TIP3    H268709   6.222   0.773   1.192  0.1848  0.4926  1.0811
15740TIP3   OH268710   2.239   4.088   6.172 -0.6360  0.0452 -0.4260
15740TIP3    H168711   2.205   4.095   6.083 -0.7888  1.2242 -0.2914
15740TIP3    H268712   2.184   4.147   6.224 -1.6688 -1.8971  0.8201
15741TIP3   OH268713   1.974   5.832   0.610 -0.1373 -0.6464  0.3984
15741TIP3    H168714   2.010   5.864   0.528 -1.5956 -0.4159 -0.1770
15741TIP3    H268715   2.033   5.761   0.636 -0.0518 -1.1840 -1.2043
15742TIP3   OH268716   6.053   1.713   5.521  0.1907 -0.2846  0.0676
15742TIP3    H168717   6.068   1.700   5.615 -0.2756  0.4026  0.2485
15742TIP3    H268718   6.041   1.808   5.512  2.4060 -0.0646 -1.0141
15743TIP3   OH268719   4.510   4.580   3.419  0.6018  0.0622 -0.4198
15743TIP3    H168720   4.579   4.576   3.353 -0.8605  1.3592 -2.1563
15743TIP3    H268721   4.544   4.638   3.487  1.3278  0.4448 -1.1018
15744TIP3   OH268722   3.878   2.313  10.575 -0.5298 -0.2992 -0.4692
15744TIP3    H168723   3.898   2.380  10.510  0.7660  0.3646  0.5931
15744TIP3    H268724   3.854   2.361  10.654 -0.0349 -1.0777  0.1731
15745TIP3   OH268725   0.190   4.776   4.150  0.2728  0.1480  0.0807
15745TIP3    H168726   0.202   4.861   4.108  0.8402  0.7639  1.4024
15745TIP3    H268727   0.265   4.769   4.209 -0.2965 -0.8269  0.7082
15746TIP3   OH268728   3.135   3.521   5.246  0.0668 -0.2475 -0.2782
15746TIP3    H168729   3.042   3.539   5.258 -0.6909 -2.9631 -1.1676
15746TIP3    H268730   3.163   3.484   5.330  0.4748  0.8745  0.1009
15747TIP3   OH268731   3.045   2.687  11.884  0.0147 -0.2112 -0.5391
15747TIP3    H168732   2.992   2.688  11.805 -1.3547 -0.4323  0.3411
15747TIP3    H268733   2.982   2.678  11.955  1.2857 -1.2343  0.5121
15748TIP3   OH268734   5.209   1.458   5.129  0.7346 -0.1029 -0.1417
15748TIP3    H168735   5.240   1.399   5.061 -0.4663 -0.4716 -0.3878
15748TIP3    H268736   5.120   1.481   5.103  0.0067 -0.7571  1.6007
15749TIP3   OH268737   0.828   2.958   3.994  0.4308  0.2171 -0.3727
15749TIP3    H168738   0.753   3.017   3.992 -0.1056 -0.4265  0.0741
15749TIP3    H268739   0.860   2.964   4.084 -0.0449 -0.6648 -0.1344
15750TIP3   OH268740   0.101   1.241  11.589 -0.8391  0.1226  0.2102
15750TIP3    H168741   0.122   1.248  11.496 -0.2480 -0.6155  0.2780
15750TIP3    H268742   0.033   1.174  11.593 -0.7814  0.0708  0.3206
15751TIP3   OH268743   2.909   2.531   5.012  0.2186 -0.3957  0.2388
15751TIP3    H168744   2.905   2.588   4.935  0.9674  0.9684  1.1611
15751TIP3    H268745   2.975   2.465   4.989  0.3021 -0.1105 -0.3679
15752TIP3   OH268746   0.298   5.653   5.890  0.3922 -0.6353 -0.9689
15752TIP3    H168747   0.310   5.726   5.830  0.4341  0.1524 -0.0153
15752TIP3    H268748   0.215   5.613   5.861 -0.5041  0.7903 -0.4984
15753TIP3   OH268749   2.655   6.369   5.666  0.5278  0.1314 -0.3842
15753TIP3    H168750   2.629   6.381   5.757  2.5163  2.3266 -0.0219
15753TIP3    H268751   2.631   6.278   5.646 -0.4321 -0.2487  2.1310
15754TIP3   OH268752   0.856   1.159  14.739 -0.2657  0.4577 -0.0524
15754TIP3    H168753   0.901   1.213  14.675 -2.0509  0.5366 -1.2975
15754TIP3    H268754   0.763   1.173  14.722 -0.7920 -1.4401  0.9243
15755TIP3   OH268755   1.542   4.778   0.336  0.1357  0.2271 -0.2236
15755TIP3    H168756   1.447   4.770   0.330 -0.0842  1.5011  1.0676
15755TIP3    H268757   1.573   4.688   0.348 -0.9354 -0.1705 -0.3423
15756TIP3   OH268758   5.277   3.418  15.879 -0.1644 -0.4080  0.2443
15756TIP3    H168759   5.334   3.385  15.948  2.5754  1.1721 -1.1032
15756TIP3    H268760   5.258   3.508  15.904  2.9968  1.0853 -2.1035
15757TIP3   OH268761   5.598   3.667   3.935 -0.0244 -0.2222  0.8511
15757TIP3    H168762   5.629   3.732   3.999 -1.0737  2.6459 -1.3376
15757TIP3    H268763   5.513   3.701   3.906  0.6900 -0.9860 -2.5078
15758TIP3   OH268764   6.487   0.842   4.281  0.1063 -0.5530 -0.1939
15758TIP3    H168765   6.395   0.867   4.269 -0.9936 -3.4675  1.0709
15758TIP3    H268766   6.523   0.907   4.341 -1.3694  0.1650 -0.0528
15759TIP3   OH268767   0.397   3.734  12.888 -0.5906 -0.0242 -0.5960
15759TIP3    H168768   0.408   3.724  12.793  0.2427 -1.1806 -0.3974
15759TIP3    H268769   0.394   3.645  12.922 -1.4057  0.3705  0.4222
15760TIP3   OH268770   5.624   2.331   3.136  0.2372 -0.4143 -0.2945
15760TIP3    H168771   5.639   2.328   3.231  0.2816 -4.6725 -0.2286
15760TIP3    H268772   5.537   2.370   3.126  0.6127  0.9453  1.3804
15761TIP3   OH268773   4.773   5.151   5.228  0.0834 -0.8698  0.3625
15761TIP3    H168774   4.825   5.154   5.147 -1.7981 -0.2770 -0.9064
15761TIP3    H268775   4.832   5.184   5.296  1.4233 -0.4151 -0.9572
15762TIP3   OH268776   2.011   0.870  13.642 -0.4253  0.6094 -0.1961
15762TIP3    H168777   2.097   0.902  13.614 -0.5630  0.1876 -1.1475
15762TIP3    H268778   2.015   0.873  13.738  0.2720  1.5623 -0.2340
15763TIP3   OH268779   5.983   5.507  17.105  0.3732  0.0704 -0.2038
15763TIP3    H168780   6.053   5.568  17.084  0.2265  1.0339  1.8853
15763TIP3    H268781   6.024   5.421  17.102  1.4838  0.5705  0.3426
15764TIP3   OH268782   0.963   0.348  15.152 -0.3452  0.0978 -0.3138
15764TIP3    H168783   1.049   0.384  15.174  0.3338 -1.0722 -0.9432
15764TIP3    H268784   0.966   0.334  15.058 -0.9105 -0.7262 -0.2272
15765TIP3   OH268785   5.550   5.954  12.474 -0.5510  0.5563  0.7141
15765TIP3    H168786   5.573   6.042  12.503 -0.1829  1.2625 -1.5392
15765TIP3    H268787   5.634   5.907  12.472 -0.4167  0.8171 -0.1295
15766TIP3   OH268788   3.955   1.503   1.194  0.0211  0.0221  0.0502
15766TIP3    H168789   3.913   1.420   1.214 -0.5207  0.3926  0.4427
15766TIP3    H268790   3.924   1.564   1.260 -0.5246  0.8476 -0.9275
15767TIP3   OH268791   2.981   2.814  14.792  0.3311  0.2997 -0.7323
15767TIP3    H168792   3.058   2.856  14.752  0.7830 -1.4381 -1.7989
15767TIP3    H268793   2.908   2.842  14.738  0.3952  0.9496 -0.4868
15768TIP3   OH268794   5.921   0.632  17.061  0.1136 -0.0584  0.1872
15768TIP3    H168795   5.985   0.672  17.121 -0.2226  0.4236  0.2287
15768TIP3    H268796   5.973   0.574  17.006  0.3738 -0.8423  1.2271
15769TIP3   OH268797   0.907   2.277  11.145 -0.4472  0.3680 -0.0489
15769TIP3    H168798   0.885   2.187  11.120 -4.1782  1.0462  0.1954
15769TIP3    H268799   0.872   2.287  11.234  1.3963  1.6324  0.6057
15770TIP3   OH268800   2.825   1.841   5.776  0.2154 -0.8603  0.0548
15770TIP3    H168801   2.867   1.812   5.857  2.2011  2.1759  0.2806
15770TIP3    H268802   2.805   1.933   5.791  0.8516 -0.1304 -2.9655
15771TIP3   OH268803   1.965   4.232  13.613  0.6297  0.4783  0.0142
15771TIP3    H168804   1.925   4.286  13.682  0.7778  0.3544  0.1985
15771TIP3    H268805   1.898   4.167  13.592  0.2552  1.0353 -0.5636
15772TIP3   OH268806   0.998   4.057   0.682 -0.0441  0.1192 -0.0735
15772TIP3    H168807   0.921   4.051   0.738 -0.8406  0.7176 -1.0608
15772TIP3    H268808   0.991   3.982   0.623  1.1143 -0.8584  0.9868
15773TIP3   OH268809   1.723   2.069  15.761 -0.4365 -0.2225  0.1579
15773TIP3    H168810   1.741   2.145  15.706  0.2881  0.4814  1.3262
15773TIP3    H268811   1.724   2.104  15.851  0.6471 -1.7185  0.7702
15774TIP3   OH268812   2.400   6.461   2.016 -1.0367  0.0365 -0.0534
15774TIP3    H168813   2.399   6.453   1.920 -0.4928  1.8949 -0.2487
15774TIP3    H268814   2.406   6.371   2.047 -1.8062 -0.6427 -1.7485
15775TIP3   OH268815   3.458   5.140  15.595  0.5910 -0.3652  0.1762
15775TIP3    H168816   3.423   5.098  15.516  1.0909  0.4160 -0.4705
15775TIP3    H268817   3.552   5.143  15.581  0.7224 -0.5323  0.9650
15776TIP3   OH268818   4.513   4.168   4.304  0.2569 -0.1830  0.0873
15776TIP3    H168819   4.497   4.254   4.344  1.2984 -1.2314  3.0304
15776TIP3    H268820   4.433   4.118   4.320  0.6627 -0.5920  0.9331
15777TIP3   OH268821   3.867   5.510   3.637  0.2741  0.0259 -0.0271
15777TIP3    H168822   3.909   5.527   3.553 -1.2159  1.3232 -0.5583
15777TIP3    H268823   3.801   5.443   3.618  1.3967 -1.3213  0.6115
15778TIP3   OH268824   3.376   3.473  11.217  0.4741  0.1107  0.3638
15778TIP3    H168825   3.304   3.437  11.270 -1.0299 -0.8098 -2.1436
15778TIP3    H268826   3.342   3.556  11.183  1.5382  0.8411  1.0135
15779TIP3   OH268827   2.117   3.299   4.360  0.4291  0.5973  0.1687
15779TIP3    H168828   2.095   3.235   4.293  1.6613 -0.6660  0.9206
15779TIP3    H268829   2.178   3.359   4.316 -0.5441  1.1609 -0.4648
15780TIP3   OH268830   6.066   2.685   1.764  0.2260 -0.0791 -0.3158
15780TIP3    H168831   6.128   2.721   1.700  0.5762  0.0456  0.0883
15780TIP3    H268832   5.992   2.655   1.711  1.2188 -1.5152 -0.9537
15781TIP3   OH268833   4.847   4.946   0.054 -0.0547  0.1584 -0.3346
15781TIP3    H168834   4.930   4.903   0.076  0.3984  0.7147 -0.9034
15781TIP3    H268835   4.857   5.035   0.087 -0.2229  0.3665 -0.8322
15782TIP3   OH268836   0.281   6.023   6.457 -0.4164 -0.3248  0.0358
15782TIP3    H168837   0.355   5.969   6.486 -1.6236 -2.8256 -1.2629
15782TIP3    H268838   0.309   6.059   6.373  0.1959  0.7755  0.6750
15783TIP3   OH268839   0.203   5.107   4.758  0.1862 -0.2432 -0.3196
15783TIP3    H168840   0.111   5.088   4.740  0.2505 -0.6799 -0.1908
15783TIP3    H268841   0.216   5.078   4.848  0.0715  1.1813  0.1953
15784TIP3   OH268842   4.188   5.704   2.827 -0.4491  0.8509 -0.0298
15784TIP3    H168843   4.185   5.766   2.899  0.1539  0.5016  0.3032
15784TIP3    H268844   4.097   5.677   2.815 -0.8938  2.5474 -0.8541
15785TIP3   OH268845   6.534   4.652   6.152 -0.6632  0.1525  0.0848
15785TIP3    H168846   6.604   4.592   6.128  0.0825 -0.2975  2.9861
15785TIP3    H268847   6.575   4.739   6.148  0.2755 -0.1352  2.1149
15786TIP3   OH268848   5.651   1.637  16.147 -0.2649 -0.0957 -0.3677
15786TIP3    H168849   5.726   1.694  16.136 -0.6974  0.8448  1.2437
15786TIP3    H268850   5.627   1.611  16.058  0.9013  0.9560 -1.0184
15787TIP3   OH268851   4.641   5.808  12.607  0.6829  0.8444 -0.0204
15787TIP3    H168852   4.729   5.838  12.630 -0.1008  2.5528  0.9458
15787TIP3    H268853   4.584   5.882  12.628 -1.0998 -0.5137  0.1689
15788TIP3   OH268854   1.791   5.747  11.818  0.2843 -0.1160 -0.1225
15788TIP3    H168855   1.774   5.661  11.857 -0.4459  0.1225  0.1013
15788TIP3    H268856   1.881   5.741  11.786  0.1436 -1.0651 -0.3805
15789TIP3   OH268857   2.911   5.454  13.998 -0.1340 -0.1494 -0.7838
15789TIP3    H168858   2.982   5.507  14.032 -0.4297 -0.1659 -0.1216
15789TIP3    H268859   2.953   5.394  13.936  0.4459 -0.2655 -0.2843
15790TIP3   OH268860   0.156   5.619  13.398  0.4188  0.0900  0.4445
15790TIP3    H168861   0.221   5.554  13.371 -0.1820 -1.3039  2.1729
15790TIP3    H268862   0.205   5.682  13.451  1.2320  1.8092 -2.1292
15791TIP3   OH268863   3.039   4.980  13.098 -0.1140  0.2943 -0.0090
15791TIP3    H168864   3.044   4.944  13.010  0.5531 -0.6999  0.4207
15791TIP3    H268865   3.062   4.907  13.155  2.1035  1.5733  0.8597
15792TIP3   OH268866   5.823   1.956   1.175  0.0687 -0.0373 -0.2088
15792TIP3    H168867   5.804   1.975   1.083  0.5298  1.5070 -0.0082
15792TIP3    H268868   5.918   1.946   1.179  0.0697  0.1047  0.1324
15793TIP3   OH268869   4.287   6.852  15.961 -0.3629 -0.5221 -0.3120
15793TIP3    H168870   4.193   6.866  15.944 -0.5752 -0.3109  0.9869
15793TIP3    H268871   4.325   6.939  15.953 -0.6245 -0.2421  1.1723
15794TIP3   OH268872   3.244   6.438  16.787 -0.5877  0.1523 -0.0570
15794TIP3    H168873   3.200   6.447  16.702  0.3844  1.5423 -0.4581
15794TIP3    H268874   3.179   6.467  16.851 -0.9020  0.3545 -0.4595
15795TIP3   OH268875   5.661   2.587  12.524 -0.3993 -0.1012  0.8955
15795TIP3    H168876   5.696   2.500  12.505  1.0439  0.4338  0.9596
15795TIP3    H268877   5.686   2.604  12.614 -0.7489  0.3487  0.9112
15796TIP3   OH268878   2.765   6.121  14.421  0.1366 -0.1779  0.0474
15796TIP3    H168879   2.769   6.104  14.515 -0.7726 -0.4624  0.0437
15796TIP3    H268880   2.680   6.086  14.393  0.4521 -0.2184 -0.9065
15797TIP3   OH268881   0.309   6.775  15.950 -0.1455  0.0276  0.0615
15797TIP3    H168882   0.227   6.773  15.901 -0.4877 -1.0443  0.6567
15797TIP3    H268883   0.363   6.838  15.903 -1.3624  0.8914 -0.2421
15798TIP3   OH268884   5.954   3.784   4.617 -0.0793 -0.3476  0.1430
15798TIP3    H168885   5.862   3.812   4.621  0.2419  0.7068  0.4191
15798TIP3    H268886   5.954   3.713   4.553 -1.0851 -0.3392  0.1106
15799TIP3   OH268887   3.871   1.085  16.164 -0.2033  0.0749  0.3622
15799TIP3    H168888   3.826   1.130  16.093 -2.1413  1.6837  2.4779
15799TIP3    H268889   3.897   1.155  16.225  3.5574 -0.9784  0.2105
15800TIP3   OH268890   5.942   5.899   3.284 -0.2110 -0.4651 -0.0927
15800TIP3    H168891   5.871   5.952   3.249 -1.5419 -0.2604  2.6533
15800TIP3    H268892   6.014   5.960   3.297  0.4123 -0.5918 -2.5023
15801TIP3   OH268893   6.608   6.189   3.364 -0.1958  0.1341  0.4701
15801TIP3    H168894   6.572   6.273   3.392 -1.5849 -0.0140 -0.7385
15801TIP3    H268895   6.565   6.172   3.280  2.2799 -0.3780 -0.7720
15802TIP3   OH268896   6.707   4.634   1.441 -0.0366 -0.0729  0.5435
15802TIP3    H168897   6.653   4.598   1.371 -0.2760 -0.0357  0.7060
15802TIP3    H268898   6.649   4.693   1.488  0.1612  0.0057  0.6903
15803TIP3   OH268899   3.166   4.383   5.008  0.4517  0.2548  0.0192
15803TIP3    H168900   3.095   4.328   5.042  1.1544 -1.6510 -1.4264
15803TIP3    H268901   3.124   4.439   4.943  0.0107  0.2527  0.2974
15804TIP3   OH268902   2.616   1.295  13.099 -0.1777 -0.0123 -0.0438
15804TIP3    H168903   2.569   1.330  13.024  0.6853 -0.2364 -0.7023
15804TIP3    H268904   2.698   1.260  13.063  0.3740  0.1084  1.0294
15805TIP3   OH268905   0.123   5.720  11.183  0.0465 -0.3310  0.1038
15805TIP3    H168906   0.084   5.772  11.253 -2.0114 -1.5164 -0.0754
15805TIP3    H268907   0.110   5.629  11.210 -0.2787 -0.8131 -1.5401
15806TIP3   OH268908   4.648   3.617   1.112 -0.0270  0.1182 -0.0844
15806TIP3    H168909   4.661   3.589   1.021 -0.4548 -0.5371  0.0506
15806TIP3    H268910   4.610   3.705   1.105 -0.4063 -0.0802 -0.5454
15807TIP3   OH268911   0.177   1.642   5.592 -0.0146 -0.5971  0.1799
15807TIP3    H168912   0.131   1.607   5.668 -1.1383  3.5651  1.6934
15807TIP3    H268913   0.269   1.642   5.618 -0.4378  1.3566  1.9700
15808TIP3   OH268914   1.706   4.747  11.868 -0.6534  0.1079  0.1893
15808TIP3    H168915   1.750   4.663  11.883  1.5579  1.5618  2.6175
15808TIP3    H268916   1.736   4.774  11.781  1.1032 -0.2463  0.6453
15809TIP3   OH268917   1.984   2.680  15.777  0.1306  0.2057 -0.1961
15809TIP3    H168918   1.927   2.757  15.764 -0.9827 -0.3762  0.9949
15809TIP3    H268919   1.985   2.667  15.871 -1.3285 -2.3848 -0.4316
15810TIP3   OH268920   6.255   4.697   5.602 -0.2238 -0.1836  0.4322
15810TIP3    H168921   6.296   4.779   5.628 -0.2460  0.7632 -2.2594
15810TIP3    H268922   6.324   4.631   5.610  0.1702  0.3218  1.3187
15811TIP3   OH268923   2.865   2.197  15.770  0.0205 -0.5737  0.3962
15811TIP3    H168924   2.924   2.122  15.778  0.6869 -0.0274  0.7130
15811TIP3    H268925   2.852   2.208  15.676  0.0598 -0.9779  0.3423
15812TIP3   OH268926   0.707   0.081  16.807  0.0894 -0.5335 -0.2117
15812TIP3    H168927   0.746   0.022  16.743  0.5309 -1.8444  1.2164
15812TIP3    H268928   0.771   0.152  16.817  0.2578 -0.5965 -0.8056
15813TIP3   OH268929   3.137   0.402  14.115  0.3736 -0.5751  0.0629
15813TIP3    H168930   3.137   0.436  14.026  0.6343  1.0780  0.6552
15813TIP3    H268931   3.217   0.350  14.121 -0.0292 -1.3276 -0.8679
15814TIP3   OH268932   3.624   6.392  12.734 -0.1941  0.1908 -0.3363
15814TIP3    H168933   3.633   6.363  12.643  1.2670  0.9974 -0.4972
15814TIP3    H268934   3.582   6.478  12.727  2.0872  1.3720 -0.5112
15815TIP3   OH268935   2.883   4.829  16.557 -0.1322  0.3010  0.1646
15815TIP3    H168936   2.825   4.797  16.626 -0.4722 -1.2742 -0.7988
15815TIP3    H268937   2.831   4.893  16.510 -0.9864 -0.7964 -0.4366
15816TIP3   OH268938   0.382   5.297  11.365  0.0556  0.3833  0.2514
15816TIP3    H168939   0.302   5.349  11.372 -0.0410  0.1002  1.3279
15816TIP3    H268940   0.352   5.207  11.364  0.2808  0.3076 -0.7591
15817TIP3   OH268941   5.962   3.044   2.575  0.2057  0.1216 -0.1561
15817TIP3    H168942   6.023   3.091   2.633 -1.5545  0.0409  1.8867
15817TIP3    H268943   6.018   3.010   2.505  2.5213  0.0693  1.5733
15818TIP3   OH268944   6.403   6.493  11.295  0.0795 -0.0037 -0.2708
15818TIP3    H168945   6.418   6.413  11.244  0.7463 -0.4477  0.5912
15818TIP3    H268946   6.487   6.511  11.336 -0.3781  0.4781  0.4757
15819TIP3   OH268947   1.839   0.479  14.687  0.1486  0.6241  0.6025
15819TIP3    H168948   1.922   0.477  14.733  0.2552  1.2293  0.4445
15819TIP3    H268949   1.846   0.410  14.621  1.5394  2.2622 -1.0958
15820TIP3   OH268950   6.681   6.648  16.750 -0.9393  0.0645 -0.4183
15820TIP3    H168951   6.719   6.565  16.720 -0.0422  0.6261 -0.8816
15820TIP3    H268952   6.644   6.628  16.836 -0.8630 -0.8470 -0.5892
15821TIP3   OH268953   1.487   6.488  14.361  0.0171  0.3911  1.3807
15821TIP3    H168954   1.525   6.515  14.444  0.6196 -1.2802  1.6792
15821TIP3    H268955   1.505   6.395  14.355  1.4316  0.7244 -1.3836
15822TIP3   OH268956   1.817   3.946  12.278  0.3267 -0.0690  0.2242
15822TIP3    H168957   1.736   3.912  12.240  0.9166 -0.0780 -1.0488
15822TIP3    H268958   1.862   3.870  12.313 -0.0403 -0.1064  0.6305
15823TIP3   OH268959   4.586   3.135   1.475 -0.3959 -0.0703  0.0154
15823TIP3    H168960   4.643   3.060   1.459 -0.2878  0.0140  0.0042
15823TIP3    H268961   4.611   3.166   1.562 -1.4429 -0.9454  0.6599
15824TIP3   OH268962   5.005   3.635  15.257 -0.4191  0.2871  0.0401
15824TIP3    H168963   5.010   3.605  15.347  1.3763  1.5489  0.3979
15824TIP3    H268964   5.019   3.556  15.204 -0.4151 -0.2759  0.8743
15825TIP3   OH268965   1.775   2.136  13.225  0.4674  0.0254  0.2875
15825TIP3    H168966   1.836   2.121  13.153  0.7946 -0.8101  0.7295
15825TIP3    H268967   1.822   2.109  13.303 -0.7873 -1.6165  0.5414
15826TIP3   OH268968   0.958   1.998  14.489 -0.2239 -0.2217 -0.4912
15826TIP3    H168969   0.920   2.000  14.577 -0.9707 -2.0705 -0.7336
15826TIP3    H268970   1.031   1.937  14.495  0.1086  0.1152 -1.0217
15827TIP3   OH268971   4.957   6.732  12.282 -0.0372 -0.4186  0.0904
15827TIP3    H168972   4.913   6.657  12.243  1.9299 -0.3288 -2.6090
15827TIP3    H268973   4.946   6.721  12.377 -1.8410 -2.7545 -0.3200
15828TIP3   OH268974   3.753   5.390  16.739 -0.3845 -0.4291 -0.1648
15828TIP3    H168975   3.699   5.469  16.743  0.2693  0.0430 -0.4526
15828TIP3    H268976   3.690   5.318  16.739 -1.0039  0.1007 -0.2407
15829TIP3   OH268977   0.904   6.582  12.621 -0.5584 -0.3513 -0.0026
15829TIP3    H168978   0.937   6.624  12.542 -2.1135  1.0294 -0.0018
15829TIP3    H268979   0.935   6.638  12.693 -0.5962 -0.5962  0.2081
15830TIP3   OH268980   4.612   0.267   3.197  0.1413 -0.3398 -0.3348
15830TIP3    H168981   4.655   0.323   3.262 -0.8300 -1.4144  1.2760
15830TIP3    H268982   4.629   0.311   3.113  0.3525  1.7756  0.7498
15831TIP3   OH268983   5.306   0.828   2.475 -0.3698  0.5412 -0.4801
15831TIP3    H168984   5.261   0.744   2.466 -0.8671  0.7646 -0.1572
15831TIP3    H268985   5.375   0.812   2.539 -1.2360  0.6696  0.5148
15832TIP3   OH268986   1.623   0.317   1.157 -0.4524  0.1866 -0.1345
15832TIP3    H168987   1.683   0.391   1.144 -1.3915  0.9252 -0.4302
15832TIP3    H268988   1.564   0.321   1.081 -0.4353 -0.9520 -0.2144
15833TIP3   OH268989   1.026   5.078  12.916 -0.6176 -0.1303 -0.0452
15833TIP3    H168990   1.069   5.091  12.831 -0.2945 -1.8631 -0.1910
15833TIP3    H268991   1.090   5.030  12.968 -0.9889  0.5300  1.0455
15834TIP3   OH268992   1.654   0.832   0.257  0.0119  0.0669 -0.3155
15834TIP3    H168993   1.682   0.808   0.169  0.4796 -1.7668  0.2972
15834TIP3    H268994   1.616   0.919   0.247  1.3293  0.4929 -2.0704
15835TIP3   OH268995   5.146   6.372  16.626  0.2161  0.3378 -0.2109
15835TIP3    H168996   5.164   6.463  16.649 -0.5102  0.8422 -1.5293
15835TIP3    H268997   5.224   6.344  16.577 -0.6953  1.1830 -2.2530
15836TIP3   OH268998   2.043   5.977  15.011  0.2692  0.7906 -0.4225
15836TIP3    H168999   2.046   6.059  15.059 -2.1550  1.0619 -0.6081
15836TIP3    H269000   2.008   5.913  15.074 -1.3144  0.7683 -1.2657
15837TIP3   OH269001   6.745   5.588   0.667  0.0117  0.4027  0.6623
15837TIP3    H169002   6.761   5.656   0.733 -0.0131  2.0272 -0.9104
15837TIP3    H269003   6.705   5.635   0.594  0.2647 -1.2773 -0.6232
15838TIP3   OH269004   4.813   3.726  14.332 -0.0230  0.2933  0.1690
15838TIP3    H169005   4.872   3.731  14.407  0.1777  0.6792 -0.0152
15838TIP3    H269006   4.739   3.673  14.363  0.0208  0.5178  0.6598
15839TIP3   OH269007   5.765   4.756  15.929  0.0048  0.4772  0.3128
15839TIP3    H169008   5.676   4.756  15.964 -0.2314 -1.8133 -0.1324
15839TIP3    H269009   5.769   4.834  15.874 -1.9118  0.3730 -0.0478
15840TIP3   OH269010   2.349   2.591   1.167  0.1872 -0.0676 -0.0690
15840TIP3    H169011   2.354   2.583   1.263 -1.7906 -0.8110  0.0172
15840TIP3    H269012   2.432   2.555   1.136  0.2146 -1.2853  1.3043
15841TIP3   OH269013   0.718   6.788  13.909 -0.2355  0.6980  0.0726
15841TIP3    H169014   0.699   6.736  13.988 -0.4518  0.3540 -0.2049
15841TIP3    H269015   0.813   6.783  13.899  0.0050  2.0421  1.2055
15842TIP3   OH269016   3.296   0.403  11.990 -0.1289  0.2272  0.4831
15842TIP3    H169017   3.307   0.312  12.018 -0.0093 -0.5853 -2.0259
15842TIP3    H269018   3.229   0.438  12.049 -1.1309 -1.8612  0.6722
15843TIP3   OH269019   0.669   6.148  11.950  0.9326 -0.6782 -0.1148
15843TIP3    H169020   0.578   6.168  11.971  1.4208  3.3521 -0.9030
15843TIP3    H269021   0.664   6.093  11.872 -0.7802 -1.4713  0.5068
15844TIP3   OH269022   1.294   0.695  14.286  0.2112  0.0497  0.2714
15844TIP3    H169023   1.277   0.605  14.315  2.9578 -0.8184 -0.5406
15844TIP3    H269024   1.259   0.750  14.356  2.0658 -1.8176  2.8618
15845TIP3   OH269025   4.097   6.016   0.465 -0.0706 -0.1699  0.1052
15845TIP3    H169026   4.016   6.042   0.508  0.6885  0.9751  0.8922
15845TIP3    H269027   4.112   6.084   0.399  1.4477  0.9784  1.5508
15846TIP3   OH269028   1.929   6.466  16.733  0.1545 -0.4320 -0.6243
15846TIP3    H169029   1.937   6.483  16.827  1.6324 -2.3680 -0.3371
15846TIP3    H269030   1.889   6.546  16.697  0.0070  0.5343  1.5582
15847TIP3   OH269031   5.682   3.010   3.846 -0.6066 -0.5134 -0.5306
15847TIP3    H169032   5.673   3.002   3.941  0.2747 -0.0683 -0.3978
15847TIP3    H269033   5.592   3.015   3.814 -0.9691 -2.2254  0.1199
15848TIP3   OH269034   0.172   1.957   0.093  0.1380  0.1597  0.0358
15848TIP3    H169035   0.123   1.918   0.165  0.4085 -1.8624 -0.8105
15848TIP3    H269036   0.109   1.962   0.020  0.6925 -0.9081 -0.5494
15849TIP3   OH269037   4.089   1.249   3.757 -0.5702  0.8731 -0.2355
15849TIP3    H169038   4.170   1.288   3.790 -1.9311  2.1835  1.7668
15849TIP3    H269039   4.076   1.171   3.810  0.5017 -0.6443 -2.1054
15850TIP3   OH269040   6.379   5.820   3.266  0.1415 -0.0993 -0.2157
15850TIP3    H169041   6.366   5.865   3.350  0.1098 -1.2054  0.3941
15850TIP3    H269042   6.464   5.851   3.235  0.3035  0.0779  0.3865
15851TIP3   OH269043   2.469   0.934  14.891  0.1121  0.4847 -0.0025
15851TIP3    H169044   2.417   0.858  14.866  0.3308  0.1629  0.5072
15851TIP3    H269045   2.409   1.008  14.882 -0.1931  0.2146 -0.2045
15852TIP3   OH269046   2.467   6.658   5.802 -0.6269  0.5154  0.6457
15852TIP3    H169047   2.391   6.600   5.810  0.0595 -0.4645  0.2199
15852TIP3    H269048   2.478   6.695   5.890 -1.8404  0.9992  0.6085
15853TIP3   OH269049   1.637   6.815   4.244 -0.0110 -0.2902 -0.6410
15853TIP3    H169050   1.659   6.753   4.313  1.6498  1.2410  0.3045
15853TIP3    H269051   1.678   6.779   4.165 -2.4880 -2.4029 -1.0953
15854TIP3   OH269052   4.893   5.409  16.441 -0.2680  0.0677 -0.2809
15854TIP3    H169053   4.904   5.363  16.525 -0.2916 -1.0695 -0.8731
15854TIP3    H269054   4.963   5.374  16.386 -1.7698 -1.1422 -1.5187
15855TIP3   OH269055   1.719   1.078  13.241 -0.8411  0.3376  0.4065
15855TIP3    H169056   1.689   1.119  13.322  0.7262  0.5545  0.9260
15855TIP3    H269057   1.752   0.992  13.268 -1.2168  0.0141 -0.1628
15856TIP3   OH269058   4.838   6.206   0.728  0.2727  0.1517  0.4097
15856TIP3    H169059   4.804   6.216   0.639 -0.6388  2.0310  0.9076
15856TIP3    H269060   4.930   6.231   0.721  0.4004 -0.4694 -0.1434
15857TIP3   OH269061   5.923   6.416  13.698  0.1255 -0.5130  0.6831
15857TIP3    H169062   5.981   6.448  13.767  1.5398  1.6484 -1.3481
15857TIP3    H269063   5.846   6.473  13.704  0.3258 -0.2058  0.4090
15858TIP3   OH269064   0.173   3.184  16.717  0.2841  0.2296  0.3734
15858TIP3    H169065   0.152   3.172  16.810  0.6974 -0.7914  0.3506
15858TIP3    H269066   0.211   3.272  16.713  0.3764  0.2411  1.1943
15859TIP3   OH269067   1.617   4.238  16.629 -0.2306 -0.5819 -0.3020
15859TIP3    H169068   1.597   4.331  16.643 -0.2649 -0.4428 -1.1834
15859TIP3    H269069   1.624   4.230  16.533  0.6783 -1.2960 -0.1899
15860TIP3   OH269070   5.843   0.148  13.895 -0.0719  0.1507 -0.0400
15860TIP3    H169071   5.905   0.171  13.964  0.6137 -1.5162 -0.0252
15860TIP3    H269072   5.899   0.118  13.823 -0.8306 -0.5356 -0.3596
15861TIP3   OH269073   2.113   4.276  14.646  0.6093  0.1990  0.6854
15861TIP3    H169074   2.126   4.182  14.658  0.2620 -0.0693 -0.8160
15861TIP3    H269075   2.060   4.303  14.722  0.7979 -0.7903  1.1795
15862TIP3   OH269076   3.440   0.453  16.714  0.2025 -0.0346 -0.0835
15862TIP3    H169077   3.423   0.460  16.620  1.1535  0.2897 -0.2450
15862TIP3    H269078   3.370   0.396  16.747  0.3633 -0.8670 -1.1269
15863TIP3   OH269079   2.339   0.563   6.709 -0.6268  0.4647 -0.0455
15863TIP3    H169080   2.398   0.511   6.654 -1.6317 -0.5849 -0.1654
15863TIP3    H269081   2.348   0.652   6.675  1.3804  0.4737  0.3791
15864TIP3   OH269082   2.690   4.640   1.040  0.1959 -0.0041  0.0365
15864TIP3    H169083   2.728   4.707   1.095 -1.5149 -0.3548  1.7552
15864TIP3    H269084   2.624   4.597   1.095 -2.5443  0.4278 -2.5823
15865TIP3   OH269085   2.103   1.861   2.265 -0.1941  0.2725 -0.0182
15865TIP3    H169086   2.054   1.919   2.207  0.6939  0.6326 -0.4210
15865TIP3    H269087   2.075   1.886   2.353  0.8072  1.9536 -0.1261
15866TIP3   OH269088   5.038   3.888  11.801  0.3482  0.4109  0.5002
15866TIP3    H169089   5.011   3.867  11.712  1.6199 -1.0103  0.3999
15866TIP3    H269090   5.123   3.931  11.791  0.4586  0.3281  1.0266
15867TIP3   OH269091   1.763   5.745   3.637 -0.2996  0.6129  0.1469
15867TIP3    H169092   1.724   5.659   3.620 -1.0091  0.7919  0.8005
15867TIP3    H269093   1.830   5.755   3.570 -0.8145 -0.0758 -0.4866
15868TIP3   OH269094   6.679   4.339  16.258 -0.3348 -0.3163  0.0646
15868TIP3    H169095   6.714   4.280  16.191  0.1312  0.5943 -0.5096
15868TIP3    H269096   6.642   4.412  16.209 -0.6333  0.0143  0.7755
15869TIP3   OH269097   3.400   6.106  13.429  0.1219 -0.7182 -0.0611
15869TIP3    H169098   3.479   6.062  13.398 -0.1860 -1.0851 -0.3319
15869TIP3    H269099   3.328   6.051  13.398 -0.2741  0.0110 -0.4616
15870TIP3   OH269100   1.476   2.214  12.871 -0.8109  0.2945 -0.0065
15870TIP3    H169101   1.495   2.181  12.959 -0.4053  2.1695  0.6569
15870TIP3    H269102   1.490   2.309  12.877  0.7277  0.3133 -2.4896
15871TIP3   OH269103   5.039   3.794   1.581  0.2896 -0.0358 -0.6754
15871TIP3    H169104   4.951   3.755   1.586  0.1215 -0.0655 -2.7065
15871TIP3    H269105   5.024   3.887   1.592  0.3042 -0.2281  1.1706
15872TIP3   OH269106   1.642   0.601  12.376 -0.2335 -0.4070 -0.6121
15872TIP3    H169107   1.617   0.675  12.321 -0.2842  1.9426  2.3071
15872TIP3    H269108   1.729   0.623  12.409  0.3450 -2.3512 -0.7105
15873TIP3   OH269109   4.026   2.443  14.913 -0.2416  0.5385 -0.4634
15873TIP3    H169110   3.987   2.480  14.834  1.1637 -0.4999 -1.7198
15873TIP3    H269111   3.968   2.371  14.937 -0.1184  0.1813 -1.2032
15874TIP3   OH269112   5.028   5.611  16.199  0.4669 -0.5056 -0.0830
15874TIP3    H169113   4.998   5.681  16.258 -0.4652 -1.1589  0.2321
15874TIP3    H269114   4.961   5.607  16.131  1.2524 -0.1379 -0.8986
15875TIP3   OH269115   6.325   0.927  12.377  0.0039 -0.4346  0.0954
15875TIP3    H169116   6.312   1.020  12.360 -1.8000 -0.4395  1.2229
15875TIP3    H269117   6.249   0.884  12.340  0.6255 -1.4297 -0.0636
15876TIP3   OH269118   5.419   4.817   4.816  0.2103 -0.2203 -0.5515
15876TIP3    H169119   5.402   4.885   4.882 -0.9308  1.0557 -2.0958
15876TIP3    H269120   5.454   4.743   4.867 -1.6753  0.2701  1.6542
15877TIP3   OH269121   2.333   5.629   0.175  0.0483 -0.4080 -0.5909
15877TIP3    H169122   2.376   5.575   0.109 -0.2892  0.0663 -1.2137
15877TIP3    H269123   2.281   5.692   0.125 -0.7561 -0.4647  0.1333
15878TIP3   OH269124   2.949   2.816  16.860  0.0317  0.6436 -0.5503
15878TIP3    H169125   2.856   2.819  16.884  0.1989 -0.7449  0.3628
15878TIP3    H269126   2.948   2.821  16.764 -1.2377 -2.4086 -0.8239
15879TIP3   OH269127   6.304   1.629  13.451 -0.1794 -0.0359 -0.2976
15879TIP3    H169128   6.215   1.634  13.484 -0.2295  0.2620 -0.4788
15879TIP3    H269129   6.300   1.567  13.379 -0.6198  1.3927 -1.5366
15880TIP3   OH269130   0.489   0.062  13.414 -0.3785  0.1592  0.0077
15880TIP3    H169131   0.468   0.073  13.507  1.2236 -0.2679  0.4506
15880TIP3    H269132   0.445   0.135  13.371 -2.2153 -0.3703  0.9179
15881TIP3   OH269133   6.766   1.089   5.169 -0.0129  0.9349 -0.1860
15881TIP3    H169134   6.839   1.059   5.222  0.1156  0.1059 -0.7953
15881TIP3    H269135   6.699   1.116   5.232  0.4249  0.7072  0.3825
15882TIP3   OH269136   1.387   1.405  11.179  0.1517 -0.2706  0.2308
15882TIP3    H169137   1.372   1.485  11.128  0.1642 -0.5390 -0.1957
15882TIP3    H269138   1.341   1.421  11.262 -2.0707 -0.8406 -0.8107
15883TIP3   OH269139   2.131   3.254   2.416 -0.1641  0.0745 -0.0799
15883TIP3    H169140   2.192   3.283   2.484  0.8211  1.2291 -1.4026
15883TIP3    H269141   2.051   3.231   2.463  0.6175  0.4694  1.4973
15884TIP3   OH269142   5.774   2.392  14.489 -0.5782  0.0759 -0.5461
15884TIP3    H169143   5.715   2.316  14.489 -1.5827  0.8266  0.4435
15884TIP3    H269144   5.836   2.373  14.560  0.3252 -0.6382 -1.4832
15885TIP3   OH269145   1.005   0.799   5.568 -0.0179  0.4637 -0.2508
15885TIP3    H169146   1.077   0.743   5.538 -1.1568 -0.6746 -1.0040
15885TIP3    H269147   1.005   0.789   5.664  0.5518  0.1365 -0.2823
15886TIP3   OH269148   5.927   3.223  13.359  0.1682  0.2164  0.4895
15886TIP3    H169149   5.931   3.180  13.274  0.7576  1.2033 -0.0005
15886TIP3    H269150   5.903   3.314  13.339 -2.3426 -0.1191  1.5864
15887TIP3   OH269151   0.821   5.973  15.000 -0.5283  0.9827 -0.2479
15887TIP3    H169152   0.788   6.043  15.056 -3.3339 -0.7004  0.4303
15887TIP3    H269153   0.836   6.015  14.915 -1.5416  2.5117  0.2911
15888TIP3   OH269154   3.600   3.890   6.207 -0.0609  0.5223 -0.3965
15888TIP3    H169155   3.632   3.800   6.221  1.6030  1.3986  1.9539
15888TIP3    H269156   3.678   3.939   6.183 -0.2268  2.0020  1.8396
15889TIP3   OH269157   2.289   1.197   2.007 -1.2001  0.6055  0.4872
15889TIP3    H169158   2.225   1.145   1.958 -0.5160  0.9250 -0.8208
15889TIP3    H269159   2.369   1.145   2.005 -1.2232  0.5195  1.5024
15890TIP3   OH269160   5.005   4.371   0.465  0.0315 -0.3029  0.1624
15890TIP3    H169161   4.996   4.285   0.424 -1.8376  0.5217 -1.2995
15890TIP3    H269162   5.021   4.431   0.392 -0.2836  0.7935  0.9707
15891TIP3   OH269163   5.027   6.413  15.468 -0.2435  0.6440  0.0264
15891TIP3    H169164   4.962   6.383  15.405  0.4815  0.3060 -0.5701
15891TIP3    H269165   5.028   6.508  15.458 -1.2117  0.7316  0.6115
15892TIP3   OH269166   5.445   6.814  13.627 -0.0497  0.6058  0.4485
15892TIP3    H169167   5.384   6.882  13.598  0.9503  1.6564  0.6884
15892TIP3    H269168   5.521   6.824  13.570 -0.6225 -1.6484 -0.8261
15893TIP3   OH269169   3.034   6.702   1.907  0.3744 -0.1321  0.0946
15893TIP3    H169170   3.074   6.782   1.942 -1.0238  0.0193  1.4469
15893TIP3    H269171   2.988   6.730   1.828  1.2304  0.0750 -0.3395
15894TIP3   OH269172   1.188   6.353   0.895  0.3477 -0.0337 -0.2144
15894TIP3    H169173   1.253   6.419   0.872 -0.2651  0.3131 -0.9875
15894TIP3    H269174   1.240   6.274   0.915  1.0002  0.2057 -0.9213
15895TIP3   OH269175   0.170   5.239  10.914 -0.5016  0.0933  0.3253
15895TIP3    H169176   0.168   5.178  10.840 -1.6785  0.3511  0.1253
15895TIP3    H269177   0.240   5.300  10.893 -0.4353 -0.1866 -0.2875
15896TIP3   OH269178   6.740   1.499  16.129 -0.4476  0.0845 -0.2913
15896TIP3    H169179   6.771   1.590  16.132  1.5333 -0.5639  0.7637
15896TIP3    H269180   6.780   1.463  16.050 -1.0622  0.0502 -0.5938
15897TIP3   OH269181   0.401   1.191  11.412 -0.8025 -0.3632  0.7209
15897TIP3    H169182   0.346   1.236  11.347 -0.9103 -0.6640  0.6047
15897TIP3    H269183   0.369   1.101  11.413 -0.7067 -0.3939  1.0910
15898TIP3   OH269184   1.887   6.378   3.851 -0.6097  0.0376  0.3207
15898TIP3    H169185   1.947   6.452   3.861 -0.3102 -0.1920  0.2282
15898TIP3    H269186   1.876   6.344   3.940 -1.0711  0.4417  0.4244
15899TIP3   OH269187   2.073   2.834  13.696  0.1471  0.2681 -0.6961
15899TIP3    H169188   2.113   2.807  13.779 -1.5324  3.0561  1.2038
15899TIP3    H269189   2.141   2.884  13.651 -0.2065  2.7016  1.2656
15900TIP3   OH269190   1.325   0.315  16.448  0.7861 -0.1562 -0.4731
15900TIP3    H169191   1.272   0.389  16.417 -0.6268 -0.2865  1.4443
15900TIP3    H269192   1.309   0.246  16.383 -2.4707 -0.5880  0.5860
15901TIP3   OH269193   0.224   2.167   1.366 -0.1760  0.2627  0.1247
15901TIP3    H169194   0.175   2.141   1.445  0.8613 -1.1553  0.3514
15901TIP3    H269195   0.276   2.243   1.393  0.3027 -0.3180  0.8852
15902TIP3   OH269196   2.310   3.412   0.812 -0.2795 -0.3115  0.0637
15902TIP3    H169197   2.240   3.362   0.854 -0.1583 -0.0890  0.5323
15902TIP3    H269198   2.384   3.352   0.810  0.0913  0.0911  1.2987
15903TIP3   OH269199   2.207   4.152  16.751 -0.0943 -0.3209  0.2384
15903TIP3    H169200   2.301   4.137  16.740  0.2666  1.2580  0.9461
15903TIP3    H269201   2.192   4.141  16.845 -0.2205  1.3726  0.4416
15904TIP3   OH269202   6.439   3.498   5.340 -0.0085  0.3037 -0.1807
15904TIP3    H169203   6.408   3.471   5.426  2.4776  0.4759  0.8361
15904TIP3    H269204   6.379   3.456   5.278 -1.9512  0.3107  1.5939
15905TIP3   OH269205   6.101   6.120   3.405  0.5290 -0.0092 -0.0343
15905TIP3    H169206   6.111   6.175   3.483  2.8514  1.3425 -1.1687
15905TIP3    H269207   6.110   6.181   3.332  1.5354 -1.6540 -1.3444
15906TIP3   OH269208   5.776   1.885  11.944  0.3782 -0.3408  0.3505
15906TIP3    H169209   5.806   1.795  11.955 -0.7096 -0.6553  0.9346
15906TIP3    H269210   5.691   1.887  11.988 -0.4780  0.4738 -1.2419
15907TIP3   OH269211   2.365   1.443   4.912  0.1389 -0.6945 -0.0741
15907TIP3    H169212   2.295   1.474   4.855  1.7635 -0.3955 -2.0379
15907TIP3    H269213   2.440   1.498   4.890  1.3934 -1.9374  0.8963
15908TIP3   OH269214   3.691   4.720   0.317 -0.0383 -0.1373  0.2295
15908TIP3    H169215   3.644   4.721   0.234 -0.9200 -0.1072  0.7228
15908TIP3    H269216   3.764   4.780   0.303  0.2251 -0.6615 -0.7476
15909TIP3   OH269217   0.979   1.814   3.196  0.5614 -0.4904 -0.5052
15909TIP3    H169218   0.896   1.789   3.236  0.2399  0.0993 -0.7920
15909TIP3    H269219   1.022   1.731   3.177  0.1046 -0.7999 -0.2092
15910TIP3   OH269220   3.888   4.916   3.868  0.7469  0.1826 -0.0819
15910TIP3    H169221   3.880   4.889   3.777 -0.4974  1.9056 -0.5284
15910TIP3    H269222   3.893   5.011   3.865  0.0413  0.3149  1.6775
15911TIP3   OH269223   3.069   0.994   0.088 -0.1422 -0.3874  0.2300
15911TIP3    H169224   3.127   0.993   0.164 -1.0612  0.3165  0.9619
15911TIP3    H269225   3.128   1.003   0.013  0.6778  0.7973  0.9798
15912TIP3   OH269226   5.844   0.854  12.395  0.3939 -0.0609  0.2092
15912TIP3    H169227   5.768   0.811  12.434  0.1042 -0.3559 -0.6539
15912TIP3    H269228   5.881   0.907  12.466  0.8748 -1.8644  1.3665
15913TIP3   OH269229   0.216   5.781  15.982  0.1042 -1.1580 -0.2891
15913TIP3    H169230   0.280   5.769  15.912  0.0969 -0.6507 -0.3852
15913TIP3    H269231   0.222   5.701  16.034 -0.3966 -1.8573 -1.2742
15914TIP3   OH269232   3.864   6.614   2.481 -0.5413 -0.3684  0.5239
15914TIP3    H169233   3.925   6.619   2.408  0.2291  1.1172  1.2311
15914TIP3    H269234   3.877   6.526   2.518 -0.3748 -0.8345 -0.6146
15915TIP3   OH269235   3.476   6.674   3.662  0.2231 -0.2090 -0.0759
15915TIP3    H169236   3.443   6.620   3.734 -0.3403  0.4957  0.2066
15915TIP3    H269237   3.399   6.721   3.631  0.7455  0.5810 -0.1914
15916TIP3   OH269238   1.557   5.374   2.382  0.0174  0.0139  0.1616
15916TIP3    H169239   1.590   5.353   2.295  0.5141  0.7348  0.1612
15916TIP3    H269240   1.474   5.328   2.389  0.2681 -0.5430 -0.4575
15917TIP3   OH269241   0.301   6.017  11.515  0.2111 -0.0891 -0.4176
15917TIP3    H169242   0.355   6.082  11.560 -0.8662  1.2429 -0.9653
15917TIP3    H269243   0.213   6.030  11.551 -0.0569 -1.1616 -0.6384
15918TIP3   OH269244   3.260   6.315  12.018  0.0343  0.3206  0.0051
15918TIP3    H169245   3.202   6.273  12.081 -0.2952  3.3377  1.8969
15918TIP3    H269246   3.207   6.323  11.938 -0.5711 -0.9126  0.2617
15919TIP3   OH269247   1.795   5.801  14.177  0.0712  0.0628  0.7102
15919TIP3    H169248   1.708   5.811  14.216  0.0778 -0.3680  0.8309
15919TIP3    H269249   1.792   5.857  14.099 -1.0108 -1.5122 -0.4392
15920TIP3   OH269250   5.306   6.532  12.686 -0.5315  0.8225  0.2784
15920TIP3    H169251   5.378   6.510  12.626 -1.5359 -1.3163 -0.2540
15920TIP3    H269252   5.342   6.518  12.773 -0.8074 -2.5890  0.0074
15921TIP3   OH269253   0.576   1.198  11.932 -0.4141 -0.0141 -1.0735
15921TIP3    H169254   0.629   1.277  11.945  1.1809 -1.0642 -0.9516
15921TIP3    H269255   0.547   1.202  11.841 -0.9497  1.0487 -0.8688
15922TIP3   OH269256   0.660   4.247   4.142 -0.3059 -0.7028  0.5490
15922TIP3    H169257   0.616   4.330   4.162  0.5881  0.1187 -0.7518
15922TIP3    H269258   0.629   4.187   4.210 -0.7970  0.7479  1.6764
15923TIP3   OH269259   3.374   1.834   1.199 -0.0599  0.2713 -0.6415
15923TIP3    H169260   3.340   1.901   1.258 -1.0414 -0.1488 -0.7154
15923TIP3    H269261   3.362   1.871   1.111  0.8560  0.6500 -0.6134
15924TIP3   OH269262   5.831   1.875  15.554 -0.1344 -0.8658 -0.0530
15924TIP3    H169263   5.736   1.865  15.563 -0.0804 -2.0796 -0.7207
15924TIP3    H269264   5.843   1.968  15.533 -1.1845 -0.7313 -0.1160
15925TIP3   OH269265   3.731   5.740   0.720 -0.3691  0.0755 -0.7006
15925TIP3    H169266   3.826   5.726   0.725 -0.0637  1.6017 -1.6351
15925TIP3    H269267   3.721   5.820   0.669 -2.1390  0.4296  0.1203
15926TIP3   OH269268   4.546   1.291  11.917 -0.2864  0.0872 -0.1464
15926TIP3    H169269   4.624   1.236  11.926 -0.2707  0.0509 -0.4962
15926TIP3    H269270   4.519   1.309  12.007  1.6545  2.2853  0.0976
15927TIP3   OH269271   5.454   0.994  10.851 -0.0717 -0.0347 -0.3085
15927TIP3    H169272   5.538   0.951  10.834  0.2939  0.2524  0.7188
15927TIP3    H269273   5.389   0.933  10.815  0.4633 -1.2621  0.7159
15928TIP3   OH269274   3.460   3.457   4.517 -0.1758  0.3833 -0.3293
15928TIP3    H169275   3.373   3.494   4.529 -0.1912  0.4521 -0.6486
15928TIP3    H269276   3.480   3.472   4.424  0.1584  0.3334 -0.2664
15929TIP3   OH269277   1.693   3.620   5.123 -0.0557 -0.5575 -0.5409
15929TIP3    H169278   1.618   3.658   5.077 -1.3147 -1.3173  0.8015
15929TIP3    H269279   1.724   3.551   5.066 -0.0345  0.1068 -1.3503
15930TIP3   OH269280   0.036   4.968   5.487 -0.6104  0.0826 -0.3732
15930TIP3    H169281  -0.053   5.000   5.478 -0.6168 -0.0295 -0.7219
15930TIP3    H269282   0.057   4.980   5.580 -0.8142  0.5610 -0.3857
15931TIP3   OH269283   4.471   4.812  16.317  0.2550  0.2627  0.0344
15931TIP3    H169284   4.428   4.732  16.346  1.1892  0.6274  2.7943
15931TIP3    H269285   4.400   4.869  16.288 -0.7458 -0.4970  0.9326
15932TIP3   OH269286   6.161   1.072   5.735 -0.3333 -0.3041 -0.4358
15932TIP3    H169287   6.099   1.037   5.671 -0.1678 -1.3644 -0.0305
15932TIP3    H269288   6.244   1.076   5.688 -0.3246 -0.5743 -0.4405
15933TIP3   OH269289   6.540   0.072  13.113 -0.5457 -0.1555 -0.0866
15933TIP3    H169290   6.489   0.028  13.181  1.2230 -1.4378  0.5090
15933TIP3    H269291   6.573   0.002  13.057 -0.9386  0.7826 -1.5506
15934TIP3   OH269292   5.608   0.472   3.201 -0.1193  0.5503 -0.1370
15934TIP3    H169293   5.524   0.517   3.195 -0.3152  0.2022  0.0139
15934TIP3    H269294   5.604   0.422   3.282 -0.9513 -1.8435 -1.5260
15935TIP3   OH269295   6.164   4.782   2.826 -0.2506 -0.1775 -0.3065
15935TIP3    H169296   6.248   4.793   2.872 -0.3912 -0.0245 -0.0825
15935TIP3    H269297   6.145   4.869   2.791  0.2821 -0.4878 -1.4048
15936TIP3   OH269298   0.679   5.953   4.363 -0.8787 -0.2624 -0.5154
15936TIP3    H169299   0.591   5.988   4.350 -0.8289 -0.1788 -0.6221
15936TIP3    H269300   0.692   5.893   4.289 -1.2502 -1.0671  0.0614
15937TIP3   OH269301   0.643   3.796  11.905 -0.0880  0.3336 -0.3178
15937TIP3    H169302   0.698   3.849  11.848  0.1415 -0.3187 -0.7109
15937TIP3    H269303   0.692   3.790  11.987  2.3112 -3.3082 -1.7798
15938TIP3   OH269304   3.599   1.823   0.437  0.0207 -0.2237 -0.3513
15938TIP3    H169305   3.608   1.915   0.463  0.8852 -0.3872 -0.0006
15938TIP3    H269306   3.675   1.807   0.381 -0.6444 -0.4755 -1.1870
15939TIP3   OH269307   0.403   6.797   2.863 -0.5943 -0.4650 -0.2846
15939TIP3    H169308   0.437   6.731   2.923  1.1903  0.6739  0.0190
15939TIP3    H269309   0.408   6.879   2.911  0.1999  0.3620 -1.7017
15940TIP3   OH269310   3.359   2.824   2.880  0.1364 -0.5504 -0.0511
15940TIP3    H169311   3.424   2.771   2.926  1.7679 -1.4453 -3.1451
15940TIP3    H269312   3.310   2.760   2.827 -1.4191  0.4705  0.0790
15941TIP3   OH269313   3.996   1.657  16.313 -0.7994 -0.1507  0.2593
15941TIP3    H169314   4.008   1.614  16.228 -1.0858 -0.5116  0.3982
15941TIP3    H269315   3.943   1.735  16.292 -2.8921 -1.4604  0.4012
15942TIP3   OH269316   0.841   5.733  10.709  0.1023  0.0009 -0.2328
15942TIP3    H169317   0.796   5.738  10.793 -0.7277 -1.0706 -0.5883
15942TIP3    H269318   0.912   5.797  10.716 -1.5212  1.8175  0.3169
15943TIP3   OH269319   1.828   6.296   5.267  0.3861  0.2439  0.5494
15943TIP3    H169320   1.859   6.257   5.349  1.7846  1.0217  0.4115
15943TIP3    H269321   1.756   6.353   5.294  1.3393  1.0985  1.3709
15944TIP3   OH269322   5.733   0.342   4.926  0.0543 -0.2261  0.3120
15944TIP3    H169323   5.766   0.278   4.989  0.2298  0.8386  1.3183
15944TIP3    H269324   5.811   0.390   4.898 -0.4779  2.0993  2.4690
15945TIP3   OH269325   6.805   6.372  11.270  0.2099 -0.3682 -0.1791
15945TIP3    H169326   6.768   6.459  11.257  0.8069 -0.1642 -0.5551
15945TIP3    H269327   6.803   6.331  11.183 -0.2192 -0.7930  0.0249
15946TIP3   OH269328   3.885   4.158   4.097  0.0084  0.1750  0.2339
15946TIP3    H169329   3.887   4.131   4.005  0.0519 -1.4512  0.6858
15946TIP3    H269330   3.923   4.246   4.097 -1.8480  1.0797 -1.5651
15947TIP3   OH269331   5.983   4.546   3.316  0.0291  0.1706  0.2353
15947TIP3    H169332   5.948   4.634   3.301 -1.7232 -0.6316 -0.7121
15947TIP3    H269333   6.036   4.528   3.239  0.0526  0.2357  0.2361
15948TIP3   OH269334   4.309   2.387   2.408  0.2330 -0.2420 -0.0913
15948TIP3    H169335   4.318   2.326   2.481 -3.4121  1.4054  2.0190
15948TIP3    H269336   4.342   2.470   2.443  3.3548 -0.3713 -2.2883
15949TIP3   OH269337   1.811   2.101   1.725  0.9364 -0.3277  0.0048
15949TIP3    H169338   1.784   2.009   1.729  1.7381 -0.6226 -0.9926
15949TIP3    H269339   1.906   2.098   1.715  0.9298  0.5979 -0.4566
15950TIP3   OH269340   0.916   1.946  12.017  0.4591 -0.4536 -0.5270
15950TIP3    H169341   0.861   2.024  12.023 -0.9414 -1.5100  2.2967
15950TIP3    H269342   0.964   1.943  12.099  1.2332 -2.0384 -0.9912
15951TIP3   OH269343   0.842   4.836   4.615 -0.3491 -0.0569 -0.2025
15951TIP3    H169344   0.872   4.860   4.702  0.6447 -0.5004 -0.4075
15951TIP3    H269345   0.856   4.915   4.562  1.3313 -0.4982 -0.4902
15952TIP3   OH269346   2.919   1.405   3.463  0.0295  0.2807  0.1955
15952TIP3    H169347   3.003   1.359   3.460  0.8182  1.7069 -1.9699
15952TIP3    H269348   2.855   1.340   3.431  0.5645 -0.3102  0.3069
15953TIP3   OH269349   0.985   0.826  12.876 -0.6283 -0.4102 -0.9107
15953TIP3    H169350   0.986   0.853  12.968  1.5351 -0.9049 -0.7322
15953TIP3    H269351   1.076   0.807  12.856 -1.0667 -0.4164 -3.1534
15954TIP3   OH269352   4.400   0.994   5.371  0.7154  0.0018  0.4070
15954TIP3    H169353   4.393   1.067   5.432  0.3764  0.9443 -0.7072
15954TIP3    H269354   4.315   0.951   5.376  0.8744 -0.2535  0.9812
15955TIP3   OH269355   6.330   1.209   1.836 -0.3741  0.0437  0.3240
15955TIP3    H169356   6.309   1.222   1.744  0.2415  0.2243  0.2006
15955TIP3    H269357   6.425   1.224   1.841 -0.1536 -1.3618  0.7330
15956TIP3   OH269358   1.996   4.345  16.433 -0.4084 -0.0724 -0.1232
15956TIP3    H169359   1.974   4.356  16.525 -0.3594  2.6952 -0.3448
15956TIP3    H269360   1.913   4.328  16.389 -0.4618 -1.1513  0.3708
15957TIP3   OH269361   4.096   1.097   3.493 -0.0520 -0.2602  0.3820
15957TIP3    H169362   4.030   1.085   3.561 -0.4810 -0.0182  0.0065
15957TIP3    H269363   4.176   1.118   3.541 -0.9340  2.6773  0.7324
15958TIP3   OH269364   2.378   5.548   6.663 -0.1088  0.1232  0.2138
15958TIP3    H169365   2.351   5.576   6.751 -0.3211 -0.3306  0.2954
15958TIP3    H269366   2.314   5.481   6.638  0.0304  0.1510 -0.2333
15959TIP3   OH269367   6.639   6.326  12.600 -0.5243 -0.1799 -0.5034
15959TIP3    H169368   6.614   6.413  12.630  0.6045 -0.0656  0.1863
15959TIP3    H269369   6.625   6.269  12.676 -0.2603 -0.3925 -0.6105
15960TIP3   OH269370   4.747   1.816  15.889  0.2579  0.0963  0.2817
15960TIP3    H169371   4.694   1.895  15.898  2.8446  1.9424  0.2895
15960TIP3    H269372   4.762   1.808  15.794  0.0238 -0.3823  0.2836
15961TIP3   OH269373   4.578   0.107   1.285  0.1459 -0.3945  0.1149
15961TIP3    H169374   4.486   0.112   1.262  0.0049 -0.9293  0.5582
15961TIP3    H269375   4.587   0.163   1.363  0.2357 -0.2049 -0.0282
15962TIP3   OH269376   0.897   5.068   4.188 -0.1449 -0.6652  0.2027
15962TIP3    H169377   0.971   5.012   4.211  0.7683 -0.1174 -1.2436
15962TIP3    H269378   0.861   5.029   4.108  0.6980  0.9181 -1.0024
15963TIP3   OH269379   4.016   3.198   2.228  0.2939  0.5604  0.1667
15963TIP3    H169380   3.996   3.220   2.319  2.3746  0.6931  0.6330
15963TIP3    H269381   4.053   3.278   2.190  0.5873  0.1578 -0.4237
15964TIP3   OH269382   2.547   5.895   1.799  0.1663  0.2682 -0.3893
15964TIP3    H169383   2.637   5.929   1.797  0.0193  0.9721  1.9564
15964TIP3    H269384   2.558   5.801   1.812  0.5814  0.3242 -0.3004
15965TIP3   OH269385   6.304   3.373   5.904  0.3174  0.5863  0.2820
15965TIP3    H169386   6.383   3.425   5.918  0.7006 -0.2793  1.4443
15965TIP3    H269387   6.270   3.357   5.992 -2.4751  2.8775 -0.2271
15966TIP3   OH269388   2.685   2.624  10.787  0.2386 -0.1933 -0.2521
15966TIP3    H169389   2.712   2.533  10.789 -1.8761 -0.9222 -1.5407
15966TIP3    H269390   2.699   2.651  10.696 -1.6654 -0.1210 -0.5725
15967TIP3   OH269391   3.330   0.695   0.849  0.3865  0.3186 -0.8201
15967TIP3    H169392   3.322   0.606   0.884 -1.3229  0.6317 -0.3257
15967TIP3    H269393   3.330   0.684   0.754 -0.9150 -0.1676 -0.7889
15968TIP3   OH269394   6.681   1.330  11.953 -0.4570 -0.1049  0.3920
15968TIP3    H169395   6.653   1.408  11.905  0.3578  0.2885  0.5376
15968TIP3    H269396   6.644   1.257  11.904  0.4316  0.2823 -0.9159
15969TIP3   OH269397   4.781   2.156  10.642 -0.4862 -0.1868 -0.2137
15969TIP3    H169398   4.707   2.181  10.698  0.4732 -0.4353  1.2218
15969TIP3    H269399   4.826   2.239  10.624 -0.4704 -0.1795 -0.1395
15970TIP3   OH269400   6.595   1.233  15.694 -0.4012 -0.2161  0.1160
15970TIP3    H169401   6.644   1.155  15.668  0.5006  0.1111  0.7882
15970TIP3    H269402   6.553   1.209  15.777  0.9514  0.4117  1.0201
15971TIP3   OH269403   3.822   3.809   4.270 -0.4419 -0.1725  0.3434
15971TIP3    H169404   3.907   3.767   4.262 -0.9171 -1.2639  0.9195
15971TIP3    H269405   3.842   3.900   4.294  0.5405 -0.4579  0.6334
15972TIP3   OH269406   3.159   1.828  15.052 -0.2678  0.2593 -0.6739
15972TIP3    H169407   3.106   1.762  15.007 -0.4288  0.3468 -0.6147
15972TIP3    H269408   3.245   1.823  15.010 -0.6342  0.8800 -1.5402
15973TIP3   OH269409   0.467   6.622  12.586  0.0644  0.4047  0.0167
15973TIP3    H169410   0.464   6.582  12.673 -0.6672 -0.9774 -0.6174
15973TIP3    H269411   0.389   6.677  12.582  0.0842  0.4506  0.2116
15974TIP3   OH269412   5.733   0.793  15.168 -0.4735 -0.7273  0.2264
15974TIP3    H169413   5.803   0.801  15.233  1.0466  1.5060 -1.5450
15974TIP3    H269414   5.681   0.873  15.177  0.6759  0.3918 -2.1984
15975TIP3   OH269415   1.225   3.059   3.588  0.2913 -0.3422  0.7029
15975TIP3    H169416   1.158   3.077   3.522 -1.1972 -1.4772  1.8147
15975TIP3    H269417   1.276   3.140   3.593 -1.9480  1.1666  0.8654
15976TIP3   OH269418   2.613   1.063  12.887  0.5004 -0.0382 -0.6928
15976TIP3    H169419   2.703   1.088  12.910 -0.0976  0.5900  1.2052
15976TIP3    H269420   2.576   1.143  12.850  0.1400  0.3826  0.5038
15977TIP3   OH269421   2.588   1.755  16.681  0.2631 -0.0889 -0.6937
15977TIP3    H169422   2.515   1.814  16.702  0.1999 -0.6238  0.7660
15977TIP3    H269423   2.562   1.712  16.600 -0.4939  0.6057 -0.8350
15978TIP3   OH269424   1.585   6.761   1.447  0.0058 -0.1821 -0.3630
15978TIP3    H169425   1.570   6.788   1.538 -0.5126 -3.4431  0.6408
15978TIP3    H269426   1.506   6.789   1.401  0.2230  1.4114  0.1637
15979TIP3   OH269427   0.638   3.167   0.054 -0.0765  0.0056 -0.0266
15979TIP3    H169428   0.599   3.254   0.055 -0.0042  0.0553  1.7086
15979TIP3    H269429   0.730   3.181   0.034 -0.1270  0.2912 -0.0522
15980TIP3   OH269430   2.200   1.236  16.687  0.1682 -0.5005  0.1959
15980TIP3    H169431   2.280   1.209  16.732  0.8205  1.6826  0.5022
15980TIP3    H269432   2.171   1.314  16.736 -2.8728 -1.8881  0.8670
15981TIP3   OH269433   0.807   3.921   2.202  0.2486 -0.3467  0.0087
15981TIP3    H169434   0.718   3.943   2.175  0.3898 -1.8880 -1.9424
15981TIP3    H269435   0.851   4.006   2.209 -0.5692  0.3251 -2.1050
15982TIP3   OH269436   0.820   1.396  14.033  0.2805 -0.3379 -0.0194
15982TIP3    H169437   0.780   1.483  14.029  1.3838  0.4681  3.3009
15982TIP3    H269438   0.884   1.396  13.961  1.1962  2.1855  0.6899
15983TIP3   OH269439   1.861   2.386  16.174 -0.3994 -0.2142 -0.1959
15983TIP3    H169440   1.938   2.360  16.224 -0.3608  0.4306  0.0989
15983TIP3    H269441   1.794   2.403  16.240 -0.9941 -1.3829 -0.4829
15984TIP3   OH269442   5.294   0.776   4.856 -0.0392 -0.2384  0.3906
15984TIP3    H169443   5.339   0.703   4.898  2.1022  1.3239  0.9526
15984TIP3    H269444   5.226   0.801   4.918 -0.0407 -0.9831  0.7050
15985TIP3   OH269445   0.562   2.326   1.248  0.6323  0.0290  0.3170
15985TIP3    H169446   0.642   2.356   1.290  0.4837  0.5778  0.2272
15985TIP3    H269447   0.493   2.342   1.313  0.5918 -0.4242  0.3884
15986TIP3   OH269448   5.698   3.904   2.776  0.3646 -0.1867 -0.4920
15986TIP3    H169449   5.712   3.972   2.710  2.1128 -0.0425 -0.0363
15986TIP3    H269450   5.727   3.823   2.732 -1.9855 -0.7407 -1.1366
15987TIP3   OH269451   1.766   0.531   1.826  0.1698 -0.7127 -0.2361
15987TIP3    H169452   1.723   0.486   1.899 -0.7474  0.7036  0.1257
15987TIP3    H269453   1.853   0.553   1.860  1.2123 -3.3876 -0.8956
15988TIP3   OH269454   6.509   0.619  11.182 -0.4371  0.3804  0.3985
15988TIP3    H169455   6.530   0.551  11.118  2.3662  1.4452  0.0417
15988TIP3    H269456   6.414   0.611  11.196 -0.5057 -2.3209 -1.0149
15989TIP3   OH269457   1.768   1.456   1.634  0.0837 -0.3574  0.0694
15989TIP3    H169458   1.757   1.416   1.720  0.8540 -0.3774  0.1625
15989TIP3    H269459   1.859   1.485   1.632  0.1586 -0.6266 -0.8561
15990TIP3   OH269460   0.982   6.850  15.821  0.2638  0.7360  0.3436
15990TIP3    H169461   0.920   6.855  15.748  0.3515 -1.3519  0.0559
15990TIP3    H269462   1.068   6.866  15.781  0.1101  1.8624  0.4298
15991TIP3   OH269463   2.719   5.928  14.046  0.2742 -0.2814  0.2330
15991TIP3    H169464   2.648   5.992  14.040  0.0682 -0.3527  1.6102
15991TIP3    H269465   2.751   5.936  14.136 -0.5634 -2.9580  0.8355
15992TIP3   OH269466   2.944   5.201   0.450  0.4061  0.0901 -0.0534
15992TIP3    H169467   3.006   5.135   0.480  0.9842  0.1115 -1.1635
15992TIP3    H269468   2.965   5.214   0.358  0.1565  1.6681  0.0873
15993TIP3   OH269469   1.493   4.819  12.018  0.0722  0.5352  0.2110
15993TIP3    H169470   1.570   4.809  11.961  0.5409  1.4596  0.6578
15993TIP3    H269471   1.526   4.799  12.105 -0.0519  1.4828  0.4855
15994TIP3   OH269472   4.038   2.703  16.618 -0.5260 -0.1714  0.1416
15994TIP3    H169473   4.113   2.736  16.567  0.1506 -3.1041 -0.9524
15994TIP3    H269474   4.078   2.652  16.688 -1.5072 -1.0325  0.0867
15995TIP3   OH269475   5.338   2.390   2.336 -0.3037 -0.3040 -0.3604
15995TIP3    H169476   5.346   2.442   2.416  0.6159 -0.0181 -0.6260
15995TIP3    H269477   5.273   2.323   2.357 -0.1965 -0.1264  0.5728
15996TIP3   OH269478   4.501   5.373  12.905  0.8757 -0.3615  0.0722
15996TIP3    H169479   4.477   5.423  12.826 -1.5076 -0.3826  0.6866
15996TIP3    H269480   4.462   5.422  12.977  0.4563 -1.8745  0.9250
15997TIP3   OH269481   6.025   5.038   5.452 -0.1625  0.1904 -0.6596
15997TIP3    H169482   6.119   5.045   5.439 -0.3269  0.5320 -1.7487
15997TIP3    H269483   6.013   5.042   5.547  1.0073 -1.0697 -0.4390
15998TIP3   OH269484   1.014   0.498   4.052 -0.6970 -0.1169  0.2385
15998TIP3    H169485   1.058   0.563   3.998 -1.0387 -1.0038 -1.1618
15998TIP3    H269486   1.075   0.424   4.055 -1.1480 -0.4984  0.1377
15999TIP3   OH269487   4.064   6.675  15.436  0.4699  0.1218 -0.0837
15999TIP3    H169488   4.113   6.693  15.516  1.5663 -1.6990 -0.2937
15999TIP3    H269489   4.003   6.606  15.461  0.6388 -0.2717 -0.7363
16000TIP3   OH269490   3.605   6.079   3.858  0.1807 -0.0065  0.0228
16000TIP3    H169491   3.569   6.033   3.782 -1.5101 -0.2140  0.9111
16000TIP3    H269492   3.545   6.059   3.929  1.2098  0.9607  1.2055
16001TIP3   OH269493   2.090   2.361  16.328  0.1211 -0.2441 -0.0063
16001TIP3    H169494   2.159   2.403  16.379  0.7447 -0.8689 -0.3282
16001TIP3    H269495   2.122   2.272  16.313 -1.0645 -0.7679  0.4445
16002TIP3   OH269496   2.394   1.765  11.559 -0.3065  0.1120 -0.0192
16002TIP3    H169497   2.413   1.782  11.651 -0.8881  0.1191  0.1027
16002TIP3    H269498   2.327   1.830  11.536  0.7352  0.9715 -0.8035
16003TIP3   OH269499   4.998   6.159  12.561 -0.8060  0.0396 -0.1899
16003TIP3    H169500   4.973   6.213  12.636 -0.2624  0.8685 -0.5907
16003TIP3    H269501   4.915   6.138  12.517 -1.0167  0.6118 -0.0660
16004TIP3   OH269502   5.856   1.466  11.274 -0.0035  0.2820 -0.3962
16004TIP3    H169503   5.838   1.430  11.187 -0.5152 -1.1472  0.2601
16004TIP3    H269504   5.910   1.400  11.316  1.4315  1.6076 -0.0853
16005TIP3   OH269505   3.208   4.234  13.392 -0.4689 -0.3789  0.2253
16005TIP3    H169506   3.259   4.253  13.313  1.4437  0.9485  1.6923
16005TIP3    H269507   3.118   4.226  13.360  0.1894  0.3855 -2.0564
16006TIP3   OH269508   5.687   5.785   0.517 -0.2761 -0.1060 -0.0731
16006TIP3    H169509   5.693   5.820   0.606 -0.7463 -0.3108  0.0424
16006TIP3    H269510   5.625   5.843   0.472 -1.2572 -0.9061  0.1908
16007TIP3   OH269511   6.037   5.590   0.361 -0.4298  0.2850 -0.0015
16007TIP3    H169512   5.988   5.632   0.290 -0.1725  0.3497 -0.1402
16007TIP3    H269513   5.973   5.533   0.403 -0.0647 -1.3553 -1.5893
16008TIP3   OH269514   1.537   6.625   1.732 -0.2754  0.2355  0.1811
16008TIP3    H169515   1.470   6.636   1.664 -0.3916 -2.0406 -0.1299
16008TIP3    H269516   1.490   6.589   1.807  0.2684  0.5563  0.6905
16009TIP3   OH269517   2.876   6.651  15.132  0.5935 -0.0782 -0.0267
16009TIP3    H169518   2.806   6.610  15.183  1.2274 -0.5472  0.4781
16009TIP3    H269519   2.921   6.577  15.090  1.7897  0.0653  0.9374
16010TIP3   OH269520   5.201   6.625   0.987 -0.4585 -0.2751  0.5402
16010TIP3    H169521   5.248   6.560   1.040 -0.6955  0.7529  2.0824
16010TIP3    H269522   5.264   6.695   0.973 -0.9049  0.2029  0.8899
16011TIP3   OH269523   0.718   0.866  10.652  0.5509  0.5487 -0.0099
16011TIP3    H169524   0.811   0.889  10.654  0.1117  3.1935 -2.3198
16011TIP3    H269525   0.709   0.810  10.575  0.3535 -0.5534  0.8009
16012TIP3   OH269526   0.566   2.505  13.818  0.0163 -0.2596  0.2893
16012TIP3    H169527   0.544   2.518  13.911 -1.8006 -1.1533  0.0216
16012TIP3    H269528   0.558   2.593  13.780  1.6370  0.2796  1.1099
16013TIP3   OH269529   2.923   4.609  12.915  0.0910 -0.1616  0.5721
16013TIP3    H169530   2.942   4.563  12.833  0.5344 -0.3559  0.7837
16013TIP3    H269531   2.955   4.698  12.901 -1.0795  0.1992  0.0343
16014TIP3   OH269532   6.402   3.691   4.998 -0.3370 -0.0944 -0.1091
16014TIP3    H169533   6.383   3.783   4.979  0.7077  0.1288 -0.1054
16014TIP3    H269534   6.469   3.666   4.935 -0.6488 -0.8849 -0.1502
16015TIP3   OH269535   0.667   2.490   3.196 -0.1423  0.0406  0.5076
16015TIP3    H169536   0.600   2.527   3.253 -0.4281  0.3471 -0.0166
16015TIP3    H269537   0.628   2.409   3.163 -0.3311  0.3027  0.0716
16016TIP3   OH269538   2.027   4.867  11.311  0.0666  0.4829  0.0260
16016TIP3    H169539   2.037   4.932  11.381  1.0042 -1.7895  2.1378
16016TIP3    H269540   1.933   4.849  11.309  0.1356 -0.2601  1.5947
16017TIP3   OH269541   3.542   6.501   5.848 -0.8385 -0.3191 -0.2149
16017TIP3    H169542   3.572   6.588   5.874 -1.3933  1.1097 -3.7104
16017TIP3    H269543   3.465   6.485   5.903  0.8522  0.0796  2.4141
16018TIP3   OH269544   4.091   1.698   2.624 -0.0630  0.1882  0.5280
16018TIP3    H169545   4.144   1.619   2.617 -3.0709 -1.8777 -1.3731
16018TIP3    H269546   4.077   1.727   2.534 -1.0216  1.4323  1.0355
16019TIP3   OH269547   3.658   6.344   6.869  0.3097  0.4928  0.0028
16019TIP3    H169548   3.723   6.275   6.881 -0.2317 -0.1964 -0.9053
16019TIP3    H269549   3.597   6.309   6.805 -0.6951  1.3223  0.4695
16020TIP3   OH269550   0.626   1.229   1.618 -0.0329  0.7320 -0.3891
16020TIP3    H169551   0.678   1.305   1.591  2.8089 -1.0091 -0.2400
16020TIP3    H269552   0.616   1.177   1.539 -0.9440  0.6757 -0.2474
16021TIP3   OH269553   2.911   5.721  14.384 -0.7287  0.3935 -0.1054
16021TIP3    H169554   2.852   5.767  14.444 -1.2344 -0.8837  0.4238
16021TIP3    H269555   2.990   5.706  14.436 -1.5356 -1.5996  0.6477
16022TIP3   OH269556   4.389   0.854  13.409  0.2253  0.3470  0.6108
16022TIP3    H169557   4.368   0.918  13.477 -1.2009  2.2004 -1.4053
16022TIP3    H269558   4.388   0.770  13.454  0.7966  1.5679  3.1225
16023TIP3   OH269559   2.554   1.953  11.043 -0.1475 -0.0561  0.0364
16023TIP3    H169560   2.460   1.937  11.054 -0.4463  1.8696  0.5414
16023TIP3    H269561   2.594   1.918  11.122 -0.4916 -0.2836  0.1142
16024TIP3   OH269562   2.314   6.050  15.002  0.2466 -0.4195 -0.0678
16024TIP3    H169563   2.334   6.067  14.910 -0.3935  0.6774 -0.0182
16024TIP3    H269564   2.236   5.995  15.000 -0.1506  0.1410 -0.1795
16025TIP3   OH269565   0.252   2.149  16.682 -0.0091  0.2360  0.1802
16025TIP3    H169566   0.268   2.056  16.701  2.1107  0.4908 -0.0797
16025TIP3    H269567   0.261   2.156  16.587  3.3749  1.1939  0.4404
16026TIP3   OH269568   2.082   1.380  16.961 -0.2878 -0.7564 -0.6483
16026TIP3    H169569   2.077   1.470  16.991  0.1960 -0.9404  0.0079
16026TIP3    H269570   2.057   1.328  17.037  0.5457 -1.2145 -0.6748
16027TIP3   OH269571   1.004   6.369   1.304  0.1554  0.5038 -0.5618
16027TIP3    H169572   0.948   6.307   1.256  0.1389  0.7776 -0.9000
16027TIP3    H269573   0.945   6.410   1.367  0.1165  0.3327 -0.4863
16028TIP3   OH269574   1.578   6.442  15.794  0.5920 -0.4223 -0.1657
16028TIP3    H169575   1.503   6.412  15.845 -1.4840 -0.8666 -3.2204
16028TIP3    H269576   1.568   6.538  15.792  1.5802 -0.2474  1.4222
16029TIP3   OH269577   4.313   0.699  12.695 -0.1158 -0.6146 -0.1860
16029TIP3    H169578   4.322   0.794  12.690  1.3061 -0.6899  0.5689
16029TIP3    H269579   4.321   0.669  12.604 -1.0555 -0.0005 -0.4910
16030TIP3   OH269580   5.303   2.809   4.066 -0.2901 -0.1182  0.0104
16030TIP3    H169581   5.361   2.799   3.990  0.5776  0.0203  0.6385
16030TIP3    H269582   5.300   2.722   4.105  0.5490  0.1704  0.7240
16031TIP3   OH269583   4.456   5.515  10.900  0.3946 -0.6024  0.7110
16031TIP3    H169584   4.455   5.610  10.892  2.0019 -0.6981 -1.8280
16031TIP3    H269585   4.498   5.498  10.984  3.0051  0.9903 -0.1667
16032TIP3   OH269586   5.408   1.716   2.238 -0.3557  0.0866  0.2229
16032TIP3    H169587   5.442   1.633   2.204 -0.4656 -0.0625  0.4725
16032TIP3    H269588   5.320   1.723   2.201 -0.7197 -0.3819  0.9557
16033TIP3   OH269589   3.835   2.337   5.877 -0.8654  0.2452  0.0063
16033TIP3    H169590   3.838   2.395   5.953 -0.8178  0.5332 -0.2123
16033TIP3    H269591   3.897   2.376   5.815 -0.0166 -0.6538  0.2748
16034TIP3   OH269592   4.238   1.565   4.358 -0.0833  0.5586 -0.2925
16034TIP3    H169593   4.277   1.616   4.288 -0.0100 -0.5493 -1.0829
16034TIP3    H269594   4.313   1.527   4.405 -0.1529  0.0513 -0.5795
16035TIP3   OH269595   4.043   3.055  15.955  0.3530  0.6094 -0.2274
16035TIP3    H169596   4.042   3.068  15.860 -1.0291  0.6950 -0.2312
16035TIP3    H269597   4.110   3.115  15.987  1.4289 -0.0227 -1.2096
16036TIP3   OH269598   2.381   3.342  12.728 -0.3007 -0.3675  0.1802
16036TIP3    H169599   2.326   3.264  12.725  0.6218 -0.9959 -0.8343
16036TIP3    H269600   2.325   3.411  12.691 -0.4818 -0.9516 -0.6474
16037TIP3   OH269601   3.059   2.628  15.900 -0.5235  0.0841  0.5110
16037TIP3    H169602   3.006   2.707  15.900 -0.2009  0.3034 -0.1859
16037TIP3    H269603   3.010   2.567  15.845  0.6228  0.7613 -1.3246
16038TIP3   OH269604   1.804   2.871  13.864  0.0244  0.0791 -0.1104
16038TIP3    H169605   1.881   2.927  13.854  0.1466 -0.1626 -0.5378
16038TIP3    H269606   1.794   2.862  13.959  0.4712  0.1855 -0.0509
16039TIP3   OH269607   3.814   5.446   2.791 -0.1543 -0.0534  0.1468
16039TIP3    H169608   3.755   5.402   2.730 -1.1787  0.0646  1.0099
16039TIP3    H269609   3.771   5.529   2.811  0.9725  0.6444 -0.2321
16040TIP3   OH269610   6.374   2.608   5.955  0.5187 -0.1815  0.5310
16040TIP3    H169611   6.283   2.634   5.966  0.7253  0.2825  1.1935
16040TIP3    H269612   6.406   2.660   5.881 -0.3867 -2.0367 -1.2750
16041TIP3   OH269613   2.134   6.211  11.553 -0.0707  0.1182 -0.1577
16041TIP3    H169614   2.102   6.279  11.495  0.2432 -0.0437 -0.5198
16041TIP3    H269615   2.218   6.184  11.516 -0.4972 -0.9245 -0.3875
16042TIP3   OH269616   2.201   3.689   5.632  0.3988  0.6369  0.0029
16042TIP3    H169617   2.255   3.629   5.581  0.8217  0.5887  0.4945
16042TIP3    H269618   2.243   3.774   5.621 -0.1871  0.8538 -0.6747
16043TIP3   OH269619   5.300   1.376  14.686  0.3762  0.0181 -0.3593
16043TIP3    H169620   5.311   1.403  14.778  0.8508 -1.5420  0.0794
16043TIP3    H269621   5.385   1.340  14.662 -0.3222 -1.4325 -0.7579
16044TIP3   OH269622   2.233   2.755   2.247  0.0668 -0.2140  0.5871
16044TIP3    H169623   2.222   2.849   2.235 -0.7862 -0.0611  2.3344
16044TIP3    H269624   2.321   2.737   2.214  0.8128  1.4610  1.5500
16045TIP3   OH269625   3.267   5.853   5.920  0.0151  0.0923  0.1443
16045TIP3    H169626   3.200   5.917   5.943 -0.0200  0.6833 -1.4686
16045TIP3    H269627   3.246   5.828   5.830  1.4192 -0.4124 -0.0625
16046TIP3   OH269628   1.849   2.603  12.248  0.2771 -0.1567  0.9013
16046TIP3    H169629   1.757   2.609  12.271 -0.2010  1.0580 -1.1217
16046TIP3    H269630   1.881   2.693  12.253  1.1588 -0.4528  0.8080
16047TIP3   OH269631   0.149   3.470  12.812  0.6559  0.0877  0.1660
16047TIP3    H169632   0.122   3.542  12.869  2.2078  2.4159 -1.8650
16047TIP3    H269633   0.244   3.464  12.823  0.4881 -2.3156  0.9398
16048TIP3   OH269634   5.174   6.384   4.042  0.0785  0.2110  0.2748
16048TIP3    H169635   5.103   6.331   4.078  0.6749 -0.3900  0.5883
16048TIP3    H269636   5.222   6.324   3.986 -1.2338  1.2788 -2.1749
16049TIP3   OH269637   3.829   2.600   3.655  0.5844  0.1889 -0.2625
16049TIP3    H169638   3.813   2.625   3.564  1.4812 -1.3176 -0.8729
16049TIP3    H269639   3.781   2.664   3.707 -0.1294  0.9376 -1.8037
16050TIP3   OH269640   6.372   2.801   0.677 -0.5871  0.7990 -0.1291
16050TIP3    H169641   6.317   2.815   0.754 -2.6818  0.9152 -1.5662
16050TIP3    H269642   6.460   2.825   0.706 -1.0057 -0.6610  2.6563
16051TIP3   OH269643   2.255   2.732  11.070 -0.2575  0.2883 -0.2275
16051TIP3    H169644   2.217   2.736  10.983 -0.9290 -0.3053  0.0283
16051TIP3    H269645   2.191   2.777  11.126 -0.5836 -0.6921  0.2014
16052TIP3   OH269646   1.978   2.620  16.061 -0.6295 -0.0699  0.4675
16052TIP3    H169647   2.059   2.667  16.079 -0.3186 -0.3582 -0.1616
16052TIP3    H269648   1.949   2.590  16.147  1.0807 -1.8120  0.5149
16053TIP3   OH269649   3.738   5.836  11.832 -0.3919  0.8283 -0.3689
16053TIP3    H169650   3.647   5.806  11.834 -0.1004 -0.1195 -0.9999
16053TIP3    H269651   3.732   5.930  11.847 -1.4710  0.7544 -0.2699
16054TIP3   OH269652   1.601   0.042  12.255  0.2716 -0.4630 -0.0562
16054TIP3    H169653   1.579   0.098  12.329 -1.0784 -1.9953  0.7701
16054TIP3    H269654   1.518   0.029  12.209  0.5418 -1.8066 -0.1969
16055TIP3   OH269655   3.563   2.842   1.288 -0.7306  0.5729 -0.3068
16055TIP3    H169656   3.575   2.888   1.371 -1.7609  1.1624 -0.4647
16055TIP3    H269657   3.643   2.862   1.238 -1.3479  2.6377 -0.5606
16056TIP3   OH269658   6.155   5.816  11.379 -0.2700  0.2498  0.0171
16056TIP3    H169659   6.109   5.781  11.303 -0.1045 -1.4177  0.6435
16056TIP3    H269660   6.155   5.910  11.366  1.8504 -0.0531 -3.2889
16057TIP3   OH269661   1.585   4.913  15.512  0.5399 -0.2315 -0.3342
16057TIP3    H169662   1.512   4.908  15.451 -1.3301 -1.1593  1.8274
16057TIP3    H269663   1.601   4.823  15.539  1.4625  0.1265  0.3878
16058TIP3   OH269664   5.652   3.262   4.122 -0.4686  0.5352  0.4791
16058TIP3    H169665   5.733   3.257   4.173 -0.9303  2.0136  1.4177
16058TIP3    H269666   5.621   3.171   4.118  0.2362  0.2109  1.7561
16059TIP3   OH269667   5.803   4.379  11.193  0.5512 -0.6267  0.2552
16059TIP3    H169668   5.758   4.409  11.114 -0.2275 -2.6453 -0.1247
16059TIP3    H269669   5.772   4.437  11.262 -0.9772 -0.6036 -0.4071
16060TIP3   OH269670   4.587   6.420   0.679 -0.6095 -0.4418  0.6575
16060TIP3    H169671   4.542   6.338   0.658  0.8071 -0.9770 -0.4776
16060TIP3    H269672   4.544   6.486   0.625 -1.5496 -0.4711  1.3401
16061TIP3   OH269673   5.290   0.547  14.596 -0.6254 -0.2869  0.7995
16061TIP3    H169674   5.378   0.581  14.580 -1.0616  0.6676  0.3115
16061TIP3    H269675   5.303   0.470  14.651  0.6360 -1.1801 -0.6711
16062TIP3   OH269676   1.579   0.499  14.835  0.3176  0.1412  0.6609
16062TIP3    H169677   1.658   0.507  14.781  0.1840 -0.7822  0.3059
16062TIP3    H269678   1.597   0.554  14.911 -0.0827  2.6604 -0.9378
16063TIP3   OH269679   4.276   4.095  14.286  0.1176 -0.1194 -0.6159
16063TIP3    H169680   4.365   4.130  14.283 -0.8128  2.4690 -1.6682
16063TIP3    H269681   4.225   4.159  14.236 -2.4454 -1.1540  0.5389
16064TIP3   OH269682   6.181   2.789   3.557  0.3084 -0.2731  0.0167
16064TIP3    H169683   6.212   2.790   3.648 -1.2512  0.8511  0.5799
16064TIP3    H269684   6.151   2.699   3.543 -0.6711 -0.1283  1.0730
16065TIP3   OH269685   5.734   6.757  16.263 -0.4264  0.6389  0.2024
16065TIP3    H169686   5.797   6.820  16.298  0.8300 -0.5237  0.1241
16065TIP3    H269687   5.650   6.802  16.268  0.3785  2.2025  0.4270
16066TIP3   OH269688   1.824   5.277  12.524  0.1010 -0.6459  0.2009
16066TIP3    H169689   1.877   5.356  12.541 -0.6638 -0.1079  0.1157
16066TIP3    H269690   1.860   5.211  12.584  1.6860 -0.6674 -0.7270
16067TIP3   OH269691   5.933   1.371  16.648  0.0866 -0.2869  0.3068
16067TIP3    H169692   5.918   1.442  16.711  0.0054  0.3840 -0.4469
16067TIP3    H269693   5.986   1.412  16.579  1.8627 -1.5170  0.8846
16068TIP3   OH269694   1.620   5.980  12.796  0.5267  0.0361 -0.8900
16068TIP3    H169695   1.591   6.017  12.879  1.6776 -1.2906  0.1598
16068TIP3    H269696   1.572   6.029  12.729 -1.7487 -0.0494  0.5993
16069TIP3   OH269697   1.138   0.505  15.964  0.5672  0.2243  0.3803
16069TIP3    H169698   1.076   0.454  16.017  1.3624 -0.0748  1.0461
16069TIP3    H269699   1.128   0.595  15.995 -0.8320  0.5104 -0.7877
16070TIP3   OH269700   6.145   2.219  12.254  0.0147  0.3662  0.1934
16070TIP3    H169701   6.174   2.160  12.184 -1.3967  0.8614 -0.8401
16070TIP3    H269702   6.226   2.261  12.284  0.9109 -1.2957  0.2311
16071TIP3   OH269703   1.093   4.363  16.659  0.3038  0.0016  0.1256
16071TIP3    H169704   1.005   4.355  16.695  0.3440  2.0604  0.8487
16071TIP3    H269705   1.121   4.451  16.685  2.0361 -0.0779 -1.2843
16072TIP3   OH269706   3.662   0.818  11.721  0.5004 -0.1611  0.0768
16072TIP3    H169707   3.638   0.781  11.636 -1.2911  1.3598 -0.1443
16072TIP3    H269708   3.754   0.794  11.732 -0.1651 -3.5369 -0.5575
16073TIP3   OH269709   2.119   5.813   0.102 -0.1881  0.4479 -0.3149
16073TIP3    H169710   2.153   5.869   0.033 -0.4788 -0.0765 -0.8944
16073TIP3    H269711   2.063   5.750   0.057 -0.6025  0.2661  0.4303
16074TIP3   OH269712   5.712   1.419  14.770  0.1888 -0.3796 -0.1711
16074TIP3    H169713   5.802   1.440  14.746 -0.4471  0.4651 -1.9484
16074TIP3    H269714   5.664   1.501  14.759 -0.7506 -0.7282  1.0821
16075TIP3   OH269715   0.077   4.617   2.201  0.1299  0.0223  0.0639
16075TIP3    H169716   0.148   4.639   2.142 -2.2132  1.1970 -2.5279
16075TIP3    H269717   0.036   4.701   2.222 -1.6815 -0.7693 -0.1264
16076TIP3   OH269718   3.870   3.497  10.553  0.0653  0.2075  0.1016
16076TIP3    H169719   3.965   3.494  10.564  0.0972  0.2561 -0.1625
16076TIP3    H269720   3.856   3.545  10.472 -0.1696 -0.1497 -0.0721
16077TIP3   OH269721   4.565   6.119   4.471 -0.0092  0.5172 -0.1725
16077TIP3    H169722   4.537   6.165   4.392  0.1421  0.3536 -0.3212
16077TIP3    H269723   4.494   6.057   4.488  0.8795 -0.8847 -1.3507
16078TIP3   OH269724   5.032   0.196   1.234 -0.3363 -0.4397  0.1898
16078TIP3    H169725   5.060   0.286   1.221 -0.6530 -0.6230 -2.0674
16078TIP3    H269726   5.111   0.144   1.218 -0.5277 -0.6404 -0.1151
16079TIP3   OH269727   6.278   3.232   4.819  0.2313 -0.4507 -0.3520
16079TIP3    H169728   6.247   3.161   4.764  0.2551 -0.2170 -0.6710
16079TIP3    H269729   6.203   3.291   4.828  0.6760  0.3196 -1.4574
16080TIP3   OH269730   4.185   2.662   5.271  0.3644 -0.3409 -0.7160
16080TIP3    H169731   4.268   2.614   5.272  0.7249  0.1922 -1.9207
16080TIP3    H269732   4.198   2.729   5.203 -0.5188  0.7230  0.1332
16081TIP3   OH269733   1.755   1.729  13.238 -0.3521  0.4751 -0.0333
16081TIP3    H169734   1.723   1.731  13.148 -1.1218  2.5542  0.2335
16081TIP3    H269735   1.675   1.729  13.292  0.0950 -0.0187  0.6506
16082TIP3   OH269736   1.656   0.034   2.507 -0.5767 -0.2095  0.6497
16082TIP3    H169737   1.587  -0.023   2.472 -1.3115 -0.3552  2.2488
16082TIP3    H269738   1.727   0.027   2.443 -1.3658 -1.4486 -0.1404
16083TIP3   OH269739   3.171   1.107  16.976  0.1120 -0.0348 -0.0890
16083TIP3    H169740   3.259   1.073  16.992  0.1462 -0.6836 -1.5507
16083TIP3    H269741   3.178   1.201  16.993  1.0865 -0.0766 -0.2210
16084TIP3   OH269742   1.943   2.005  12.218  0.0359 -0.4892  0.3774
16084TIP3    H169743   2.002   2.081  12.225 -0.2909 -0.1512 -0.4208
16084TIP3    H269744   1.901   1.999  12.303 -0.3673  0.5920  0.2682
16085TIP3   OH269745   5.010   1.756  10.711 -0.3245  0.3315 -0.3180
16085TIP3    H169746   5.026   1.662  10.704 -2.7742 -0.4473  2.4532
16085TIP3    H269747   5.058   1.784  10.789 -0.7667  1.0568 -0.2876
16086TIP3   OH269748   1.488   4.346  12.876 -0.2280  0.4870  0.1502
16086TIP3    H169749   1.434   4.424  12.866  0.6898  1.2347  0.8152
16086TIP3    H269750   1.568   4.365  12.826 -1.1265 -1.2303 -2.1547
16087TIP3   OH269751   3.346   5.473   2.138 -0.0979  0.1935 -0.2857
16087TIP3    H169752   3.390   5.389   2.153  0.4237  0.8302  2.1372
16087TIP3    H269753   3.254   5.449   2.126 -0.0186 -0.7095  0.7517
16088TIP3   OH269754   5.028   6.310   5.032 -0.3999 -0.1301 -0.2554
16088TIP3    H169755   5.104   6.307   4.974 -0.6702 -0.6603 -0.5874
16088TIP3    H269756   5.062   6.285   5.118  0.2445  1.8010  0.1063
16089TIP3   OH269757   1.850   5.772   1.796  0.2746  0.8383  0.0588
16089TIP3    H169758   1.885   5.848   1.843 -1.0988  2.3075 -1.1679
16089TIP3    H269759   1.765   5.756   1.836  1.1962 -1.1370  1.3764
16090TIP3   OH269760   1.632   3.914   2.371  0.0092 -0.2338 -0.0438
16090TIP3    H169761   1.537   3.923   2.378 -0.2353 -2.0347 -0.6428
16090TIP3    H269762   1.648   3.906   2.277  0.8530  0.8193 -0.0084
16091TIP3   OH269763   5.795   5.506   1.599  0.2810  0.1044 -0.3045
16091TIP3    H169764   5.712   5.524   1.554 -0.7398 -1.0018  1.0451
16091TIP3    H269765   5.769   5.460   1.679  2.0903  1.3033  1.0380
16092TIP3   OH269766   3.761   3.156   0.954 -0.1370 -0.4914 -0.4204
16092TIP3    H169767   3.729   3.073   0.919  0.0449 -0.3022 -1.0551
16092TIP3    H269768   3.820   3.189   0.887 -1.6171  1.0397 -1.0398
16093TIP3   OH269769   1.295   4.252   1.227  0.1464 -0.3752 -0.0333
16093TIP3    H169770   1.305   4.345   1.204 -0.2078  0.3298  2.3195
16093TIP3    H269771   1.265   4.210   1.147 -0.1440  1.6514 -1.0482
16094TIP3   OH269772   4.920   5.496   4.642 -0.0628 -0.3480  0.0821
16094TIP3    H169773   4.831   5.493   4.605 -0.0967 -1.2125  0.2332
16094TIP3    H269774   4.959   5.412   4.619  1.3248  0.6446 -1.4541
16095TIP3   OH269775   3.778   1.334  16.031 -0.2500  0.5773  0.0733
16095TIP3    H169776   3.689   1.315  16.061  0.2279 -0.5020  0.8749
16095TIP3    H269777   3.775   1.426  16.005 -1.7023  0.4439 -0.3214
16096TIP3   OH269778   6.497   5.043   2.431 -0.8408 -0.2032 -0.4362
16096TIP3    H169779   6.530   5.100   2.362  3.7932 -3.8695 -1.8041
16096TIP3    H269780   6.460   4.967   2.385 -0.0907 -1.5487  1.0575
16097TIP3   OH269781   3.688   6.697   0.892 -0.0299  0.4034 -0.4067
16097TIP3    H169782   3.639   6.670   0.815 -0.3098  1.6588 -0.6921
16097TIP3    H269783   3.779   6.700   0.863  0.2262 -1.6022  0.0339
16098TIP3   OH269784   2.136   4.368   0.658  0.4214 -0.6350 -0.5342
16098TIP3    H169785   2.140   4.449   0.607 -3.9312 -1.0118 -1.9199
16098TIP3    H269786   2.225   4.355   0.690  1.2447  5.0132  0.4278
16099TIP3   OH269787   0.179   2.870   1.706  0.1947  0.7094  0.2171
16099TIP3    H169788   0.153   2.779   1.720  0.8257  0.4945  0.0245
16099TIP3    H269789   0.263   2.879   1.752 -0.9859  1.8603  2.3148
16100TIP3   OH269790   4.968   6.299   3.817  0.2110 -0.2218 -0.0053
16100TIP3    H169791   4.935   6.222   3.771 -0.4927  0.2828 -0.3623
16100TIP3    H269792   5.062   6.299   3.800 -0.1572  0.5913 -2.4821
16101TIP3   OH269793   0.422   4.214  12.991  0.4744  0.1769 -0.1874
16101TIP3    H169794   0.416   4.126  13.029  2.4671  1.2354  3.0861
16101TIP3    H269795   0.357   4.265  13.039  0.6827  0.8826 -0.6406
16102TIP3   OH269796   0.860   2.877  16.744 -0.0552 -0.3557  0.2933
16102TIP3    H169797   0.881   2.931  16.819  3.3897 -1.9140  0.6339
16102TIP3    H269798   0.863   2.937  16.669  1.6955  0.3388  0.8737
16103TIP3   OH269799   5.936   6.394   2.746 -0.0872 -0.2831  0.0324
16103TIP3    H169800   5.974   6.422   2.663  0.4240 -0.6924  0.1252
16103TIP3    H269801   5.946   6.299   2.747 -3.1723 -0.7143 -0.9619
16104TIP3   OH269802   1.823   0.137   3.897  0.0419  0.1675 -0.2889
16104TIP3    H169803   1.769   0.132   3.976  0.4068 -0.4029 -0.0678
16104TIP3    H269804   1.913   0.131   3.929  0.1741 -0.8260 -0.7981
16105TIP3   OH269805   3.033   5.288   3.690 -0.3406  0.4568  0.3901
16105TIP3    H169806   3.001   5.354   3.629  1.6847  3.1162  2.0029
16105TIP3    H269807   2.954   5.255   3.734 -1.4894  0.9478 -1.2206
16106TIP3   OH269808   3.390   3.950  15.343 -0.1699 -0.4821  0.2186
16106TIP3    H169809   3.392   3.947  15.247  1.5812  0.7228  0.1460
16106TIP3    H269810   3.479   3.978  15.367 -0.5310 -0.8997  2.2088
16107TIP3   OH269811   5.918   2.953  13.959  0.0879 -0.0109 -0.2619
16107TIP3    H169812   5.848   2.967  14.023  0.9292  1.4046  0.3829
16107TIP3    H269813   5.991   2.918  14.010  0.3376 -0.1221 -0.6878
16108TIP3   OH269814   3.620   4.500  16.628 -0.2875  0.0947  0.0372
16108TIP3    H169815   3.579   4.580  16.597 -1.4366 -0.2698  0.5679
16108TIP3    H269816   3.705   4.527  16.661 -0.1067  0.8776 -1.0137
16109TIP3   OH269817   2.012   0.327   3.054 -0.1459 -0.0113  0.6874
16109TIP3    H169818   2.084   0.378   3.016 -0.1440 -0.4463  0.0865
16109TIP3    H269819   1.933   0.376   3.032 -0.2494 -0.8066 -0.8836
16110TIP3   OH269820   5.388   2.718   5.989  0.7107 -0.1126 -0.1247
16110TIP3    H169821   5.437   2.737   5.909  1.8792 -0.7069  0.4236
16110TIP3    H269822   5.410   2.626   6.009 -0.2734 -0.2478  0.3900
16111TIP3   OH269823   3.696   0.655  15.820 -0.1091 -0.2458 -0.0349
16111TIP3    H169824   3.748   0.596  15.766 -0.4219 -0.4869 -0.0814
16111TIP3    H269825   3.629   0.688  15.761 -0.1155 -0.0759  0.0676
16112TIP3   OH269826   4.490   4.041   1.534  0.0051  0.0129  0.4398
16112TIP3    H169827   4.558   4.091   1.488 -0.0697 -0.2890 -0.0005
16112TIP3    H269828   4.510   3.949   1.515 -2.0255 -0.0468 -1.8943
16113TIP3   OH269829   4.055   1.681  12.700 -0.1166  0.0827 -0.0901
16113TIP3    H169830   4.127   1.701  12.760  0.5395  1.8051 -1.3827
16113TIP3    H269831   3.976   1.696  12.751  0.4097 -0.3063  0.8766
16114TIP3   OH269832   4.383   4.407   4.389  0.4111 -0.4606 -0.0574
16114TIP3    H169833   4.371   4.502   4.395  1.2989 -0.3846  0.8047
16114TIP3    H269834   4.386   4.378   4.480 -1.0810 -1.5006 -0.3076
16115TIP3   OH269835   2.359   4.858  12.104 -0.5707  0.2644 -0.1234
16115TIP3    H169836   2.358   4.860  12.199  2.3245  1.5474 -0.0072
16115TIP3    H269837   2.287   4.800  12.080 -1.1296 -0.4101  2.8268
16116TIP3   OH269838   1.381   4.619   2.445  0.1763 -0.1477  0.4705
16116TIP3    H169839   1.444   4.682   2.412 -1.1081  0.7176 -0.4261
16116TIP3    H269840   1.341   4.662   2.521 -1.1413  0.4340 -0.5090
16117TIP3   OH269841   2.211   3.781   3.965 -0.2201 -0.5324 -0.1216
16117TIP3    H169842   2.234   3.691   3.944  1.1948 -0.8321  2.2575
16117TIP3    H269843   2.116   3.781   3.975 -0.2125 -1.8485  0.0888
16118TIP3   OH269844   5.277   5.622   5.771  0.4780 -0.0913  0.1962
16118TIP3    H169845   5.293   5.547   5.713  1.3295  1.3885 -1.5938
16118TIP3    H269846   5.295   5.588   5.859 -0.9978 -2.4612 -0.3118
16119TIP3   OH269847   5.552   0.138  12.985  0.0334 -0.6728 -0.2391
16119TIP3    H169848   5.586   0.066  12.932  1.8898  0.9603 -1.4149
16119TIP3    H269849   5.462   0.150  12.954 -0.1532 -2.1398 -0.3545
16120TIP3   OH269850   0.975   6.822  14.927  0.3029 -0.9709 -0.1832
16120TIP3    H169851   1.053   6.864  14.963  0.2663 -0.1626 -1.0227
16120TIP3    H269852   1.001   6.791  14.841 -0.5265  0.0738 -0.8336
16121TIP3   OH269853   5.667   3.836   3.599 -0.9536 -0.8337 -0.3883
16121TIP3    H169854   5.587   3.846   3.651 -0.7804  0.0442 -0.2711
16121TIP3    H269855   5.670   3.915   3.545  0.8026  0.1053  0.9819
16122TIP3   OH269856   0.584   3.529   3.261  0.4209  0.2329  0.4470
16122TIP3    H169857   0.619   3.444   3.234 -0.5287  0.3022 -1.1669
16122TIP3    H269858   0.541   3.513   3.344  1.9703 -0.4098  1.1683
16123TIP3   OH269859   5.096   0.299   4.184 -0.1609 -0.5503 -0.4941
16123TIP3    H169860   5.003   0.318   4.187  0.0815  0.8042 -0.4978
16123TIP3    H269861   5.103   0.204   4.195 -1.5442 -0.7121 -0.9363
16124TIP3   OH269862   0.398   2.352   5.118 -0.5946  0.8903 -0.1198
16124TIP3    H169863   0.452   2.379   5.192  0.4008 -0.1703 -0.4211
16124TIP3    H269864   0.314   2.328   5.157  0.0715 -0.1229  0.7575
16125TIP3   OH269865   0.206   1.589  16.221 -0.2856  0.0211  0.2898
16125TIP3    H169866   0.142   1.623  16.159  0.3751  3.2224  1.1911
16125TIP3    H269867   0.227   1.664  16.277  1.3426 -1.9494  2.5050
16126TIP3   OH269868   3.686   1.322  14.281 -0.3030  0.0635 -0.4247
16126TIP3    H169869   3.612   1.267  14.307 -0.7818  0.8413 -0.1261
16126TIP3    H269870   3.690   1.313  14.186  1.4482 -2.7900 -0.2175
16127TIP3   OH269871   0.870   6.367   5.128 -0.0550  0.0729 -0.0655
16127TIP3    H169872   0.961   6.397   5.131  0.7292 -2.1559  1.7149
16127TIP3    H269873   0.876   6.275   5.100 -1.4025 -0.9663  2.6944
16128TIP3   OH269874   6.806   6.705  12.448  0.2605 -0.3566 -0.2545
16128TIP3    H169875   6.789   6.623  12.401  1.9802 -0.1542 -1.3441
16128TIP3    H269876   6.898   6.724  12.429 -0.5393  2.8445 -1.7142
16129TIP3   OH269877   4.109   6.546   0.669  0.4294  0.5809 -0.1569
16129TIP3    H169878   4.170   6.561   0.742  0.6814  1.9393 -0.6081
16129TIP3    H269879   4.161   6.563   0.591  0.8224 -3.0959 -0.8626
16130TIP3   OH269880   0.548   5.400   6.113 -0.4580  0.0523  0.0662
16130TIP3    H169881   0.485   5.436   6.176 -1.6668 -1.6203 -0.1312
16130TIP3    H269882   0.528   5.444   6.031  0.1125  1.1260  0.4832
16131TIP3   OH269883   1.555   0.349   3.483 -0.3210  0.5393  0.1999
16131TIP3    H169884   1.511   0.265   3.475  0.2159  0.3511 -0.9582
16131TIP3    H269885   1.521   0.387   3.564 -2.5580  0.3746 -0.6109
16132TIP3   OH269886   0.584   6.487   0.017  0.1195 -0.1975 -0.2642
16132TIP3    H169887   0.568   6.569  -0.030 -0.5504 -0.7017 -0.9509
16132TIP3    H269888   0.671   6.459  -0.011 -0.0346 -0.1878 -0.7549
16133TIP3   OH269889   1.049   5.933   3.919  0.4897 -0.0374 -0.6486
16133TIP3    H169890   0.973   5.938   3.977  2.4256  1.7463  1.9615
16133TIP3    H269891   1.054   5.840   3.894 -1.1926 -0.6505  1.0240
16134TIP3   OH269892   4.958   6.528   2.654 -0.0189 -0.0891 -0.1885
16134TIP3    H169893   4.932   6.456   2.712 -1.1068  0.2544 -0.2196
16134TIP3    H269894   4.976   6.485   2.570  0.7822 -0.4938  0.1851
16135TIP3   OH269895   4.575   4.928   1.747 -0.0472  0.2153  0.2196
16135TIP3    H169896   4.573   4.853   1.805  0.6094  0.0507  0.0462
16135TIP3    H269897   4.562   4.891   1.659  0.8688  0.2182  0.0715
16136TIP3   OH269898   2.994   4.523  13.745  0.1635  0.0643 -0.2405
16136TIP3    H169899   3.009   4.614  13.771  0.5667  0.3765 -1.4817
16136TIP3    H269900   3.071   4.476  13.775 -0.3498 -0.0161  1.0020
16137TIP3   OH269901   2.405   3.852  11.409  0.3836  0.1854 -0.2190
16137TIP3    H169902   2.487   3.867  11.457 -0.3944  2.7140  0.4583
16137TIP3    H269903   2.407   3.916  11.338 -0.3240 -0.8076 -1.1604
16138TIP3   OH269904   5.983   3.700   3.046  0.4393 -0.2314 -0.7383
16138TIP3    H169905   6.021   3.698   2.958 -0.5292  1.0905 -1.2093
16138TIP3    H269906   5.928   3.778   3.047 -0.7421 -1.0320  0.5610
16139TIP3   OH269907   3.960   1.431   0.390  0.7003 -0.7410  0.0943
16139TIP3    H169908   4.018   1.445   0.466  1.8657 -0.8700 -0.7399
16139TIP3    H269909   4.020   1.429   0.315 -0.3822 -1.1238 -0.7769
16140TIP3   OH269910   0.616   4.686   6.376  0.1763  0.1364  0.3768
16140TIP3    H169911   0.696   4.635   6.364  0.9021  0.5738  2.7418
16140TIP3    H269912   0.644   4.777   6.365  0.5353  0.4368  3.1517
16141TIP3   OH269913   0.596   3.754   1.844 -0.3696 -0.4742  0.2652
16141TIP3    H169914   0.677   3.745   1.892 -0.0344 -0.4574 -0.2845
16141TIP3    H269915   0.528   3.763   1.911 -0.3370 -3.4839  0.8097
16142TIP3   OH269916   5.650   3.041  13.787  0.2743  0.0004  0.4519
16142TIP3    H169917   5.682   3.029  13.876  1.3559  1.6347  0.3274
16142TIP3    H269918   5.570   3.092  13.797  0.9017  1.0152  0.4735
16143TIP3   OH269919   4.778   2.318   2.060 -0.0314 -0.0359 -0.3225
16143TIP3    H169920   4.688   2.341   2.083 -0.1245 -0.1482 -0.5720
16143TIP3    H269921   4.789   2.348   1.969  0.4748  0.8086 -0.0033
16144TIP3   OH269922   6.811   0.217  10.508 -0.0911  0.9318 -0.2386
16144TIP3    H169923   6.831   0.190  10.597 -0.2544  0.4186 -0.3541
16144TIP3    H269924   6.800   0.312  10.514  0.0357  0.9191  0.2582
16145TIP3   OH269925   0.574   3.963   5.094 -1.2404  0.0051  0.0102
16145TIP3    H169926   0.559   3.945   5.001 -1.6896 -1.1163  0.2953
16145TIP3    H269927   0.487   3.961   5.133 -0.8616 -1.5721  0.8104
16146TIP3   OH269928   5.144   4.034   4.696 -0.1426  0.0364 -0.5951
16146TIP3    H169929   5.138   3.960   4.636  0.4837 -0.2828 -0.2730
16146TIP3    H269930   5.097   4.105   4.652  0.4065 -0.1541 -1.5211
16147TIP3   OH269931   1.214   6.438   1.720  0.2669  0.0647  0.3080
16147TIP3    H169932   1.220   6.509   1.656  0.6716  0.2051  0.5018
16147TIP3    H269933   1.258   6.472   1.798  0.2145 -0.2932  0.4946
16148TIP3   OH269934   4.751   1.041  15.614  0.0218  0.2788 -0.6383
16148TIP3    H169935   4.671   1.069  15.569 -0.3066  0.0384 -0.2186
16148TIP3    H269936   4.736   1.065  15.705  1.8862  3.4844 -1.0339
16149TIP3   OH269937   3.719   5.224   5.018  0.3253 -0.8526  0.0751
16149TIP3    H169938   3.653   5.255   4.957 -0.1266 -0.4903  0.7298
16149TIP3    H269939   3.791   5.192   4.963  0.6465  0.9827 -0.6430
16150TIP3   OH269940   5.572   6.289   6.005 -0.1376  0.3195 -0.5461
16150TIP3    H169941   5.595   6.279   6.098 -2.6147 -0.5963  0.0639
16150TIP3    H269942   5.484   6.326   6.007 -1.3500 -2.1613 -2.4039
16151TIP3   OH269943   1.845   1.188   1.499  0.9557  0.0299 -0.2190
16151TIP3    H169944   1.939   1.175   1.515  0.5994 -0.5904  1.5268
16151TIP3    H269945   1.830   1.280   1.522  0.9861 -0.0773  0.2259
16152TIP3   OH269946   2.588   3.605   2.563  0.6277 -0.2799  0.0117
16152TIP3    H169947   2.629   3.552   2.632 -0.7406  0.9309  1.8580
16152TIP3    H269948   2.495   3.582   2.567  0.5592 -0.3730 -1.6485
16153TIP3   OH269949   5.447   5.334   1.187 -0.2090  0.2430  0.2852
16153TIP3    H169950   5.481   5.269   1.126  2.6625  2.1309 -0.3610
16153TIP3    H269951   5.390   5.390   1.133 -1.9664 -1.1076  0.6477
16154TIP3   OH269952   0.483   3.877   0.134 -0.0124  0.6201 -0.7645
16154TIP3    H169953   0.556   3.933   0.109  0.8783 -0.6049 -0.9850
16154TIP3    H269954   0.451   3.914   0.216 -0.1241  2.0560 -1.4161
16155TIP3   OH269955   3.048   6.798  12.761  0.4396  0.0074 -0.2916
16155TIP3    H169956   3.073   6.770  12.849  1.6517 -0.0141 -0.6320
16155TIP3    H269957   3.117   6.764  12.704  1.2115  2.3848 -0.9019
16156TIP3   OH269958   6.048   6.567   4.841  0.9335 -0.0629 -0.5436
16156TIP3    H169959   5.977   6.593   4.899  1.0674  1.3437 -0.9671
16156TIP3    H269960   6.125   6.560   4.898  1.0640  1.3138 -0.5187
16157TIP3   OH269961   2.199   6.301   3.287  1.1666 -0.0501 -0.4810
16157TIP3    H169962   2.283   6.340   3.262  0.6148  0.8460 -0.9858
16157TIP3    H269963   2.133   6.361   3.251  0.2405 -1.9622 -2.2159
16158TIP3   OH269964   3.815   1.017   3.790 -0.3477  0.0950  0.1536
16158TIP3    H169965   3.823   0.926   3.762 -2.4654 -0.0369 -0.1838
16158TIP3    H269966   3.798   1.066   3.710  0.9667  0.8729  0.3004
16159TIP3   OH269967   4.734   4.767  12.659 -0.6907  0.5563  0.0700
16159TIP3    H169968   4.685   4.813  12.728  1.3350 -0.7858  2.5758
16159TIP3    H269969   4.698   4.679  12.659  0.1899  0.1841  0.3789
16160TIP3   OH269970   5.279   0.195  15.232  0.0271  0.7913  0.5576
16160TIP3    H169971   5.313   0.181  15.144  0.2897 -0.6652  0.8632
16160TIP3    H269972   5.356   0.192  15.289 -0.4429 -2.1565  1.2158
16161TIP3   OH269973   3.531   4.250   4.197  0.2384  0.5619 -0.5841
16161TIP3    H169974   3.572   4.262   4.283  1.0107  0.4722 -0.9289
16161TIP3    H269975   3.581   4.308   4.139 -0.1206  0.4421 -1.0190
16162TIP3   OH269976   3.367   3.360  10.245  0.4213 -0.2141 -0.5869
16162TIP3    H169977   3.285   3.350  10.196  0.2280  0.5826 -0.4349
16162TIP3    H269978   3.418   3.423  10.194  0.9988 -0.8034 -0.7480
16163TIP3   OH269979   3.910   1.416   3.389  0.3294 -0.1260  0.3170
16163TIP3    H169980   3.972   1.441   3.458  0.4630  2.0622 -0.5126
16163TIP3    H269981   3.948   1.336   3.351  2.1314  0.5992  0.4958
16164TIP3   OH269982   1.766   1.986  12.479  0.4690 -0.4426  0.2699
16164TIP3    H169983   1.735   1.947  12.561  1.4054 -0.6500  0.5452
16164TIP3    H269984   1.736   1.926  12.411 -0.7326 -0.0135  0.4133
16165TIP3   OH269985   4.763   6.180  13.972  0.1497  0.0583 -0.1468
16165TIP3    H169986   4.799   6.268  13.987  1.5918 -0.5553  0.1133
16165TIP3    H269987   4.710   6.189  13.893 -1.6348  1.6885  1.1349
16166TIP3   OH269988   2.826   6.169  16.159  0.5119  0.5309  0.2154
16166TIP3    H169989   2.919   6.156  16.176  0.2972 -0.2654  0.8879
16166TIP3    H269990   2.808   6.117  16.080  0.7043  0.9597 -0.1097
16167TIP3   OH269991   0.885   1.454  13.060  1.0770  0.1274  0.0646
16167TIP3    H169992   0.842   1.400  13.125  0.6861  1.0298  0.5693
16167TIP3    H269993   0.826   1.528  13.046  0.2794 -0.8873 -2.6368
16168TIP3   OH269994   0.294   4.685  16.341  0.0351  0.1569 -0.6364
16168TIP3    H169995   0.334   4.771  16.350 -0.2964  0.6074 -2.9511
16168TIP3    H269996   0.203   4.703  16.318 -0.7763 -0.8592  1.4559
16169TIP3   OH269997   6.780   5.090   4.380 -0.1524  0.3674 -0.4410
16169TIP3    H169998   6.864   5.044   4.378  0.7583  1.9515 -0.3217
16169TIP3    H269999   6.715   5.020   4.392  1.0516 -0.9760 -1.3938
16170TIP3   OH270000   5.321   4.619  11.271 -0.3946 -0.3969 -0.1201
16170TIP3    H170001   5.319   4.619  11.366 -1.5276  0.2409 -0.1312
16170TIP3    H270002   5.351   4.530  11.248  1.5592 -0.0334  0.8105
16171TIP3   OH270003   2.747   3.831  16.320 -0.1441 -0.4545  0.5757
16171TIP3    H170004   2.755   3.912  16.269 -0.2627 -0.3427  0.7317
16171TIP3    H270005   2.700   3.857  16.399  0.0239 -0.6292  0.7356
16172TIP3   OH270006   0.721   6.320  14.880  0.4746  0.1972  0.2656
16172TIP3    H170007   0.813   6.319  14.908  0.6847  0.6130 -0.3860
16172TIP3    H270008   0.726   6.330  14.785 -0.2115 -1.3700  0.0417
16173TIP3   OH270009   5.977   1.670  12.204 -0.2142 -0.1274 -0.1842
16173TIP3    H170010   5.946   1.583  12.228  0.3567 -0.2251  0.2100
16173TIP3    H270011   5.981   1.668  12.108 -0.2110 -0.5272 -0.1773
16174TIP3   OH270012   1.982   3.574  10.360  0.3696 -0.3733 -0.6680
16174TIP3    H170013   1.902   3.597  10.312  1.1156  2.1338 -0.8012
16174TIP3    H270014   1.974   3.620  10.443  0.4960 -2.2583  0.4399
16175TIP3   OH270015   3.950   0.986   5.433 -0.2138 -0.0254  0.3912
16175TIP3    H170016   3.941   1.039   5.354  2.1299 -1.0696 -0.6766
16175TIP3    H270017   3.889   0.913   5.420  1.0829 -0.9122 -1.1818
16176TIP3   OH270018   5.658   5.797   5.986 -0.1532 -0.4634  0.0039
16176TIP3    H170019   5.652   5.750   6.068  1.9898 -0.9820 -0.0818
16176TIP3    H270020   5.669   5.889   6.011  1.2186 -0.7038  0.3552
16177TIP3   OH270021   4.168   2.470   0.160  0.6545  0.0822 -0.0071
16177TIP3    H170022   4.165   2.511   0.074 -0.7715  0.5757  0.2443
16177TIP3    H270023   4.168   2.376   0.142  0.3638  0.1829 -0.5516
16178TIP3   OH270024   3.126   5.238   4.634  0.0787 -0.1357 -0.2962
16178TIP3    H170025   3.076   5.215   4.713  0.7774 -0.5700  0.0226
16178TIP3    H270026   3.216   5.215   4.655  0.3014 -0.0654 -1.1570
16179TIP3   OH270027   4.845   1.359  11.792 -0.3434  0.5188 -0.0675
16179TIP3    H170028   4.789   1.410  11.733  0.7667  2.9880  0.9071
16179TIP3    H270029   4.828   1.395  11.879  0.2437 -1.0404  0.7347
16180TIP3   OH270030   2.105   0.788  15.414 -0.1296 -0.5239  0.0757
16180TIP3    H170031   2.089   0.704  15.457  2.7242 -0.7806  0.8804
16180TIP3    H270032   2.109   0.851  15.486 -1.4939  0.2063 -0.4542
16181TIP3   OH270033   2.233   3.116  15.977 -0.1482  0.0105 -0.1169
16181TIP3    H170034   2.285   3.107  16.057 -1.1858  0.5219  0.6293
16181TIP3    H270035   2.238   3.210  15.956 -0.3844 -0.0170 -0.3022
16182TIP3   OH270036   0.969   0.977  13.104 -0.3709 -0.0494 -0.1145
16182TIP3    H170037   1.023   1.033  13.160 -2.3095 -0.6952  2.5997
16182TIP3    H270038   0.880   0.989  13.137 -1.3683 -1.9208 -1.8926
16183TIP3   OH270039   0.817   6.216  11.539 -0.1698  0.0247  0.3398
16183TIP3    H170040   0.762   6.293  11.553 -0.2652 -0.3527  2.4758
16183TIP3    H270041   0.900   6.251  11.509 -0.2434  0.9903  1.1989
16184TIP3   OH270042   1.113   3.322  12.322  1.1472 -0.1149  0.3220
16184TIP3    H170043   1.066   3.254  12.275  0.4410 -0.1575  1.0726
16184TIP3    H270044   1.073   3.324  12.409 -0.3914  2.7395 -0.3045
16185TIP3   OH270045   3.565   0.472   4.491 -0.5586  0.2411 -0.4316
16185TIP3    H170046   3.479   0.512   4.508 -1.8327 -1.9752 -1.1534
16185TIP3    H270047   3.594   0.511   4.409 -1.8441 -0.3917 -1.2166
16186TIP3   OH270048   5.579   4.016  15.857 -0.0086 -0.1212 -0.4665
16186TIP3    H170049   5.502   3.961  15.874 -0.7293  0.3496 -1.9806
16186TIP3    H270050   5.647   3.954  15.829  1.2134 -0.9156  3.6233
16187TIP3   OH270051   2.745   0.004   4.387 -0.5881  0.2301 -0.2395
16187TIP3    H170052   2.736   0.013   4.482  1.7584 -0.4109  0.1136
16187TIP3    H270053   2.710  -0.082   4.367 -0.4723  0.0921  0.1523
16188TIP3   OH270054   4.570   5.766  14.136  0.1721  0.5334 -0.0878
16188TIP3    H170055   4.477   5.770  14.118  0.0244  0.4876  0.6247
16188TIP3    H270056   4.584   5.678  14.171  0.1219  1.1856  1.6484
16189TIP3   OH270057   1.931   0.270   3.694 -0.1723  0.0766 -0.2099
16189TIP3    H170058   1.884   0.217   3.759 -0.7662 -0.9375 -1.4303
16189TIP3    H270059   2.023   0.265   3.721 -0.4421 -0.0326  0.7383
16190TIP3   OH270060   1.924   6.717  14.690 -0.3934  0.6309 -0.2109
16190TIP3    H170061   1.910   6.625  14.711  0.3636  0.2393 -1.3482
16190TIP3    H270062   1.882   6.729  14.605 -0.6973  1.3987  0.0380
16191TIP3   OH270063   2.165   0.059  12.958 -0.1807 -0.0513  0.1028
16191TIP3    H170064   2.094  -0.004  12.974  0.5965 -1.0501 -0.2652
16191TIP3    H270065   2.148   0.092  12.869 -0.4645  0.0901  0.2094
16192TIP3   OH270066   0.386   6.186   2.714 -0.4503 -0.1512  0.4200
16192TIP3    H170067   0.305   6.199   2.762 -1.2223  1.9892 -1.3198
16192TIP3    H270068   0.411   6.273   2.685  1.6646 -0.9683 -0.4026
16193TIP3   OH270069   2.158   3.947  13.272 -0.0097 -0.1895 -0.3934
16193TIP3    H170070   2.188   3.903  13.351  0.3432  1.3227  0.3625
16193TIP3    H270071   2.226   3.930  13.207  1.4928  1.4122  0.6746
16194TIP3   OH270072   5.473   0.028  16.260 -0.0771  0.5870  0.1708
16194TIP3    H170073   5.386   0.009  16.295 -0.1839  0.9120  0.0807
16194TIP3    H270074   5.525   0.051  16.337 -0.5368  2.1613  0.0366
16195TIP3   OH270075   6.103   6.299   3.173  0.0356 -0.3156 -0.9599
16195TIP3    H170076   6.111   6.347   3.091  0.8987  1.6726  0.2250
16195TIP3    H270077   6.041   6.351   3.225  0.1880 -1.0520 -0.0115
16196TIP3   OH270078   5.481   1.390  16.767 -0.5897 -0.3133 -0.1054
16196TIP3    H170079   5.421   1.340  16.712 -1.6324  0.5810  0.1832
16196TIP3    H270080   5.547   1.424  16.706 -2.1153  1.2584 -0.9763
16197TIP3   OH270081   1.410   6.158  17.040  0.4366  0.0042 -0.3289
16197TIP3    H170082   1.354   6.129  17.112 -0.8078 -0.9210 -1.5917
16197TIP3    H270083   1.448   6.078  17.005  3.4197  0.6772  1.0673
16198TIP3   OH270084   4.491   1.736  13.194  0.5562  0.1017  0.5322
16198TIP3    H170085   4.414   1.787  13.167  0.5087  0.6657  1.6700
16198TIP3    H270086   4.499   1.753  13.288  1.2007 -1.1359  0.7158
16199TIP3   OH270087   1.134   4.320   0.721  0.3682 -0.1586 -0.0608
16199TIP3    H170088   1.206   4.337   0.782  0.0693 -0.8397  0.4926
16199TIP3    H270089   1.134   4.225   0.709 -1.4814 -0.3697  1.2660
16200TIP3   OH270090   0.593   0.660   2.514 -0.7112 -0.4224  0.0427
16200TIP3    H170091   0.555   0.686   2.598 -2.6424 -1.3765 -0.4718
16200TIP3    H270092   0.630   0.573   2.531  1.2183  0.4496  0.5084
16201TIP3   OH270093   3.051   4.728   2.924 -0.0119  0.3944  0.2552
16201TIP3    H170094   3.024   4.735   2.833  0.6838  2.1927  0.1511
16201TIP3    H270095   2.983   4.775   2.973  0.3341  0.6361  0.5080
16202TIP3   OH270096   5.526   4.657  12.297 -0.1272  0.0858  0.1923
16202TIP3    H170097   5.430   4.668  12.300 -0.2904 -0.7322 -1.2644
16202TIP3    H270098   5.557   4.738  12.256 -0.1075  0.6311  1.2347
16203TIP3   OH270099   0.345   5.947   1.022 -0.2549  0.2675  0.4863
16203TIP3    H170100   0.344   5.908   1.109  2.0491  0.9001  0.8771
16203TIP3    H270101   0.372   5.875   0.964  0.6119  0.4265  0.6831
16204TIP3   OH270102   3.666   0.651   0.687 -0.9119 -0.0937 -0.2734
16204TIP3    H170103   3.662   0.626   0.595  0.2714 -1.1777 -0.0670
16204TIP3    H270104   3.623   0.578   0.733 -2.2510  0.8304 -0.0013
16205TIP3   OH270105   5.648   0.607   0.926 -0.7042  0.3253 -0.7416
16205TIP3    H170106   5.554   0.622   0.914 -1.3202 -2.4046 -0.1033
16205TIP3    H270107   5.674   0.553   0.852 -0.8601 -3.0195  1.4223
16206TIP3   OH270108   0.778   0.749  14.456 -0.1100  0.8528  0.3535
16206TIP3    H170109   0.808   0.834  14.426 -1.2600  2.1520  2.5890
16206TIP3    H270110   0.810   0.742  14.546 -1.7242 -0.1225  0.9133
16207TIP3   OH270111   5.888   1.313  16.063  0.3149  0.1370 -0.1410
16207TIP3    H170112   5.881   1.408  16.076 -1.1869 -0.2534  2.8477
16207TIP3    H270113   5.978   1.299  16.035  0.5934  2.4262 -0.5670
16208TIP3   OH270114   5.218   3.596   2.162 -0.6811  0.2430 -0.3915
16208TIP3    H170115   5.159   3.618   2.234 -0.1270 -0.2690  0.2270
16208TIP3    H270116   5.282   3.667   2.161  1.8447 -1.7321  2.3961
16209TIP3   OH270117   6.158   1.474   4.641  0.1960  0.0347 -0.1640
16209TIP3    H170118   6.103   1.420   4.697 -1.1960  2.0790  0.5861
16209TIP3    H270119   6.167   1.425   4.560  1.1770 -2.4261  1.3089
16210TIP3   OH270120   5.876   2.615   2.806 -0.0194 -0.4235  0.1661
16210TIP3    H170121   5.848   2.658   2.886 -1.1287  0.6287 -0.7402
16210TIP3    H270122   5.961   2.655   2.786 -1.1898  1.7659 -0.8620
16211TIP3   OH270123   1.492   4.042   0.801  0.3755 -0.3988 -1.3481
16211TIP3    H170124   1.474   4.122   0.750  0.7216 -0.7949 -2.1095
16211TIP3    H270125   1.407   4.016   0.836  0.2547  0.2851 -1.1169
16212TIP3   OH270126   2.034   4.968   5.878 -0.5424 -0.0913  0.9234
16212TIP3    H170127   1.944   4.937   5.887 -0.2488 -1.9628 -1.6423
16212TIP3    H270128   2.029   5.038   5.813 -0.0749 -0.8497  0.0402
16213TIP3   OH270129   0.009   3.225  12.193  0.0965  0.2691 -0.7767
16213TIP3    H170130   0.091   3.203  12.148 -0.8059 -2.7502 -1.1936
16213TIP3    H270131  -0.042   3.270  12.126  0.7494  0.5469 -1.1004
16214TIP3   OH270132   4.249   2.500   3.844 -0.5777 -0.4098 -0.0704
16214TIP3    H170133   4.279   2.507   3.935  1.1527  1.9406 -0.7193
16214TIP3    H270134   4.247   2.406   3.827 -1.0183 -0.9205  2.3855
16215TIP3   OH270135   2.379   2.229   4.780  0.4429  0.2877 -0.3066
16215TIP3    H170136   2.454   2.247   4.725 -0.1644  0.0288 -1.2450
16215TIP3    H270137   2.328   2.311   4.779  0.3266  0.2159 -0.3075
16216TIP3   OH270138   3.724   4.423  14.101 -0.4670 -0.0290  0.5203
16216TIP3    H170139   3.683   4.477  14.034 -0.0034  0.1263  0.3514
16216TIP3    H270140   3.790   4.372  14.053 -0.0167  0.2042  0.8801
16217TIP3   OH270141   1.899   1.190   3.891  0.8887 -0.1096  0.5639
16217TIP3    H170142   1.978   1.140   3.911 -0.7849 -1.7632  4.0152
16217TIP3    H270143   1.841   1.127   3.847  0.3836  0.1469  0.8511
16218TIP3   OH270144   4.111   0.293   5.819  0.4772 -0.6085 -0.1650
16218TIP3    H170145   4.099   0.206   5.780  0.3096 -0.7175  0.1329
16218TIP3    H270146   4.061   0.291   5.900 -1.5508  0.5598 -1.3055
16219TIP3   OH270147   3.235   3.389   5.453  0.1745 -0.3408 -0.4125
16219TIP3    H170148   3.166   3.323   5.464  0.8936 -0.7877  2.0285
16219TIP3    H270149   3.209   3.461   5.509  0.4803  0.5791 -1.4154
16220TIP3   OH270150   1.620   5.995  13.302 -0.0174  0.1262 -0.0477
16220TIP3    H170151   1.619   5.974  13.395  1.2820  1.0940  0.2196
16220TIP3    H270152   1.675   5.927  13.263  1.4310  1.0441  0.2993
16221TIP3   OH270153   0.712   2.694   3.552 -0.4077  0.0547  0.1697
16221TIP3    H170154   0.736   2.691   3.644 -2.0241 -1.0300  0.6058
16221TIP3    H270155   0.652   2.620   3.540  3.4549 -3.0063 -2.8711
16222TIP3   OH270156   1.925   0.442  12.938  0.1394  0.5029  0.0541
16222TIP3    H170157   2.000   0.400  12.979  1.6515  2.0540 -1.0014
16222TIP3    H270158   1.885   0.374  12.884  1.5513 -0.0264 -0.3637
16223TIP3   OH270159   1.665   5.042  11.894  0.2272  0.0230 -0.0797
16223TIP3    H170160   1.665   5.055  11.989  0.4035 -1.2542  0.1162
16223TIP3    H270161   1.705   4.956  11.881 -1.0479 -0.4509 -1.2116
16224TIP3   OH270162   4.730   0.473   5.233 -0.4083  0.4532  0.3545
16224TIP3    H170163   4.763   0.403   5.289 -0.2732  0.9350  0.8939
16224TIP3    H270164   4.642   0.490   5.266  0.6276  2.6254  2.3161
16225TIP3   OH270165   6.128   4.750  11.248 -0.4768 -0.0799  0.5498
16225TIP3    H170166   6.169   4.834  11.225  0.4876 -0.8404 -0.6431
16225TIP3    H270167   6.043   4.774  11.286  0.7227  1.5203  2.3845
16226TIP3   OH270168   4.348   3.047  14.343 -0.2873  0.2044  0.4338
16226TIP3    H170169   4.399   3.125  14.365  0.5373 -0.1320 -0.2238
16226TIP3    H270170   4.328   3.006  14.427  0.9608  0.0792  0.6830
16227TIP3   OH270171   0.895   1.256  15.475 -0.5452  0.9294 -0.1707
16227TIP3    H170172   0.894   1.171  15.431 -1.4237  1.2061 -0.7116
16227TIP3    H270173   0.961   1.307  15.427  0.7752  0.2281  0.8361
16228TIP3   OH270174   0.471   2.860   1.705  0.5933 -0.0597 -0.1748
16228TIP3    H170175   0.453   2.844   1.612 -0.0863 -3.2088  0.3783
16228TIP3    H270176   0.557   2.903   1.705 -0.8690  3.2483 -2.3054
16229TIP3   OH270177   1.798   5.447  10.540  0.0422  0.2702 -0.0489
16229TIP3    H170178   1.833   5.534  10.522  1.3238 -0.3183 -0.5422
16229TIP3    H270179   1.841   5.390  10.477 -1.4276 -0.6062 -0.2987
16230TIP3   OH270180   3.621   5.400   5.737  0.3316 -0.0278 -0.2643
16230TIP3    H170181   3.562   5.475   5.749  0.0640 -0.1822 -0.5942
16230TIP3    H270182   3.626   5.388   5.642  0.9750  0.0418 -0.2410
16231TIP3   OH270183   5.831   2.327  10.258  0.2211 -0.2601  0.5200
16231TIP3    H170184   5.876   2.409  10.277 -0.7584  0.8323 -1.5152
16231TIP3    H270185   5.740   2.353  10.242  0.2459 -1.4058 -1.9900
16232TIP3   OH270186   0.210   4.343  13.092  0.1362 -0.2330  0.1177
16232TIP3    H170187   0.137   4.360  13.032  0.0134 -1.6290 -0.1672
16232TIP3    H270188   0.168   4.312  13.172  0.4020 -0.6777  0.0870
16233TIP3   OH270189   5.708   1.891   5.953  0.0372  0.3582  0.4258
16233TIP3    H170190   5.687   1.842   6.033  1.2793  0.2093  0.6829
16233TIP3    H270191   5.624   1.927   5.924 -0.5420 -0.1474  1.4242
16234TIP3   OH270192   3.514   3.589  12.188  0.0931  0.2564 -0.3466
16234TIP3    H170193   3.482   3.654  12.250  0.4253  0.5112 -0.4395
16234TIP3    H270194   3.470   3.508  12.213  0.7496  0.1925  0.6672
16235TIP3   OH270195   6.537   6.852   5.224  0.1156  0.8305  0.7316
16235TIP3    H170196   6.533   6.760   5.250  0.3626  0.8252  0.7552
16235TIP3    H270197   6.516   6.853   5.131 -0.3008  0.7959  0.8260
16236TIP3   OH270198   5.744   4.214   6.267  0.4165  0.3634  0.2232
16236TIP3    H170199   5.655   4.179   6.277 -0.2599  1.8419 -0.3159
16236TIP3    H270200   5.768   4.193   6.177  0.1786  0.8782  0.0341
16237TIP3   OH270201   5.749   0.249   0.020  0.0516 -0.0261 -0.2192
16237TIP3    H170202   5.828   0.299   0.002  0.8995 -0.6947  1.4172
16237TIP3    H270203   5.677   0.310   0.003  1.0210  1.5506  1.0870
16238TIP3   OH270204   0.332   3.239  11.267 -0.7031  0.8051 -0.3817
16238TIP3    H170205   0.352   3.296  11.341  0.5211  0.0499 -0.1100
16238TIP3    H270206   0.278   3.293  11.208 -0.4925  1.8628  0.3834
16239TIP3   OH270207   5.055   2.946   0.156 -0.3494 -0.4514 -0.6364
16239TIP3    H170208   5.127   2.899   0.112  0.3437 -0.2305  0.2405
16239TIP3    H270209   5.008   2.877   0.203  0.3791 -0.3591  0.2560
16240TIP3   OH270210   4.660   2.362  12.501  0.2039 -0.3453  0.1945
16240TIP3    H170211   4.643   2.269  12.493 -2.2053 -0.0136  0.6342
16240TIP3    H270212   4.648   2.397  12.413 -1.4587 -0.1397  0.4698
16241TIP3   OH270213   6.673   2.829  16.214 -0.0298 -1.2579 -0.2618
16241TIP3    H170214   6.632   2.855  16.131 -0.0706 -2.9694 -0.8104
16241TIP3    H270215   6.698   2.738  16.201  0.2953 -1.4530  1.5024
16242TIP3   OH270216   4.187   3.835   0.037  0.0159 -0.2599 -0.5390
16242TIP3    H170217   4.238   3.872  -0.035  0.9434 -3.0224 -1.4495
16242TIP3    H270218   4.097   3.862   0.019  0.6554  1.8644 -0.8189
16243TIP3   OH270219   2.603   6.806   1.402  0.3941  0.5479 -0.3591
16243TIP3    H170220   2.668   6.784   1.336 -1.0319  0.0497 -1.6744
16243TIP3    H270221   2.521   6.816   1.353 -0.8074 -0.1820  1.3678
16244TIP3   OH270222   6.196   5.654  17.053  0.0361 -0.5165 -0.3230
16244TIP3    H170223   6.248   5.611  16.986  1.3099 -0.0300  0.3268
16244TIP3    H270224   6.258   5.709  17.101 -0.5934 -1.6763  1.9793
16245TIP3   OH270225   5.992   4.635  15.839 -0.2249 -0.5094 -0.6578
16245TIP3    H170226   5.913   4.664  15.884  1.7904  0.5331  2.5154
16245TIP3    H270227   6.017   4.710  15.785 -0.8799 -0.5144 -0.9849
16246TIP3   OH270228   4.113   1.316  11.969 -0.3544  0.3363  0.2305
16246TIP3    H170229   4.023   1.287  11.955 -0.0082 -0.3770 -0.6518
16246TIP3    H270230   4.140   1.275  12.051 -0.2777 -0.8992 -0.3827
16247TIP3   OH270231   2.546   6.540  14.560 -0.0425 -0.8507 -0.0917
16247TIP3    H170232   2.621   6.599  14.558 -0.4796 -0.2471  0.6430
16247TIP3    H270233   2.515   6.537  14.469 -0.7617  1.0644  0.0370
16248TIP3   OH270234   4.618   6.187  15.504 -0.4827 -0.3701 -0.6119
16248TIP3    H170235   4.534   6.189  15.458 -0.4885 -1.9761 -0.7243
16248TIP3    H270236   4.665   6.265  15.472 -1.0255 -0.7042 -2.3142
16249TIP3   OH270237   5.038   1.184   4.037 -0.7905  0.1724 -0.1856
16249TIP3    H170238   5.132   1.199   4.032 -0.8446  0.5286 -0.1417
16249TIP3    H270239   5.016   1.194   4.129 -1.0147  0.9863 -0.3159
16250TIP3   OH270240   6.156   0.126  14.605 -0.0937  0.2524  0.6667
16250TIP3    H170241   6.063   0.138  14.625 -0.0278 -0.1131  1.2056
16250TIP3    H270242   6.157   0.065  14.531 -0.3041  0.8411  0.1678
16251TIP3   OH270243   4.426   4.370  15.904  0.1899 -0.2112  0.0601
16251TIP3    H170244   4.514   4.366  15.866  0.0975 -0.5098 -0.1237
16251TIP3    H270245   4.407   4.463  15.911  0.9395 -0.1115  1.0635
16252TIP3   OH270246   3.658   0.975  11.247  0.4028 -0.4630 -0.9487
16252TIP3    H170247   3.625   1.047  11.301 -0.7185 -1.7615  0.1789
16252TIP3    H270248   3.595   0.968  11.176 -0.4414 -1.3757 -0.1354
16253TIP3   OH270249   3.393   3.301  13.136 -0.0915 -0.6841 -0.7172
16253TIP3    H170250   3.376   3.352  13.057  1.9125 -3.5600 -3.2703
16253TIP3    H270251   3.336   3.224  13.127  0.1406 -1.0398  0.6668
16254TIP3   OH270252   6.676   1.247   4.948  0.3204  0.3989 -0.4545
16254TIP3    H170253   6.693   1.169   5.001  0.5344  0.8820  0.1971
16254TIP3    H270254   6.740   1.311   4.978 -0.9316  1.3956  0.2070
16255TIP3   OH270255   3.508   2.218   4.491  0.1272 -0.5153  0.4960
16255TIP3    H170256   3.428   2.230   4.439  1.3800 -0.6291 -1.5719
16255TIP3    H270257   3.494   2.136   4.537 -0.7724 -0.7713 -0.1994
16256TIP3   OH270258   4.008   5.139   0.177 -0.5120  0.2575  0.1300
16256TIP3    H170259   3.959   5.068   0.135 -0.8246  0.3520  0.3364
16256TIP3    H270260   4.100   5.117   0.162 -0.5509 -1.0720  1.6299
16257TIP3   OH270261   2.904   5.550  16.081 -0.5836 -0.1763 -0.4420
16257TIP3    H170262   2.914   5.571  15.989 -0.2793 -2.4679 -0.9974
16257TIP3    H270263   2.933   5.459  16.088 -1.1153 -0.2312  1.8136
16258TIP3   OH270264   4.684   0.984   2.999 -0.4670 -0.5034  0.1063
16258TIP3    H170265   4.696   0.894   3.028  0.3457  0.0282  1.4846
16258TIP3    H270266   4.756   1.033   3.040 -0.9496  0.7980 -0.5347
16259TIP3   OH270267   2.726   1.584   2.774 -0.0726  0.4943  0.4129
16259TIP3    H170268   2.663   1.611   2.841 -1.1825  3.5166 -1.5830
16259TIP3    H270269   2.806   1.566   2.821 -1.7297 -1.0636  2.8369
16260TIP3   OH270270   4.983   6.359   2.461  0.0903 -0.1733 -0.0786
16260TIP3    H170271   5.041   6.381   2.388  0.0470  0.6220  0.1184
16260TIP3    H270272   4.925   6.291   2.426 -1.3160  1.6456 -1.5021
16261TIP3   OH270273   4.040   1.269  13.278  0.4706 -0.0637 -0.2086
16261TIP3    H170274   4.086   1.350  13.298  0.0349  0.1401 -0.0174
16261TIP3    H270275   4.094   1.226  13.211  0.5686  0.5017 -0.4900
16262TIP3   OH270276   0.911   1.640  11.759  0.6274  0.8598 -0.7714
16262TIP3    H170277   0.964   1.636  11.679 -0.4172 -5.6580 -1.6723
16262TIP3    H270278   0.973   1.621  11.829  0.7563  1.5523 -0.6950
16263TIP3   OH270279   1.979   6.174  11.769 -0.0068 -0.3586 -0.1951
16263TIP3    H170280   2.024   6.194  11.687  0.6698  1.1661  0.5033
16263TIP3    H270281   1.890   6.153  11.743  0.2489 -0.0873 -1.3368
16264TIP3   OH270282   2.599   0.260  12.476 -0.3124  0.2393 -0.0013
16264TIP3    H170283   2.555   0.343  12.457 -0.1893  0.2739 -0.1374
16264TIP3    H270284   2.579   0.242  12.568 -1.6403 -0.3544 -0.3713
16265TIP3   OH270285   2.209   3.024   2.228  0.3460  0.5244 -0.6151
16265TIP3    H170286   2.215   3.114   2.260  1.2651 -0.1410  1.2457
16265TIP3    H270287   2.116   3.011   2.211  0.1733  1.7567 -0.6682
16266TIP3   OH270288   3.634   2.850   5.456  0.2506  0.3149  0.1053
16266TIP3    H170289   3.610   2.776   5.400 -1.5855  0.1551  1.0193
16266TIP3    H270290   3.617   2.819   5.545  0.2814  1.5327  0.5480
16267TIP3   OH270291   0.442   6.077   4.315  0.7991 -0.5939  0.7889
16267TIP3    H170292   0.436   6.168   4.285  3.9125 -0.2742  0.8687
16267TIP3    H270293   0.414   6.025   4.240 -2.0920  0.3320  1.0815
16268TIP3   OH270294   5.175   1.803   1.778 -0.0674 -0.4198 -0.2203
16268TIP3    H170295   5.265   1.835   1.781 -0.2319  0.0926 -0.5699
16268TIP3    H270296   5.181   1.712   1.806  0.5218 -0.3108  0.0241
16269TIP3   OH270297   0.298   0.372  13.879  0.1605 -0.1054  0.1596
16269TIP3    H170298   0.351   0.297  13.905 -0.4360 -0.2666  0.9702
16269TIP3    H270299   0.226   0.373  13.943 -1.4684 -0.6057 -1.5676
16270TIP3   OH270300   4.963   1.999  14.660  0.7250 -0.1270  0.3103
16270TIP3    H170301   4.996   2.089  14.671  2.6578 -0.5075 -1.7397
16270TIP3    H270302   4.930   1.976  14.747 -0.9797  2.9587  0.6248
16271TIP3   OH270303   0.432   4.088   4.450  0.2705 -0.0760  0.4669
16271TIP3    H170304   0.380   4.165   4.426 -0.1213 -0.0320  1.4159
16271TIP3    H270305   0.424   4.029   4.375  1.6003  1.2922 -0.8484
16272TIP3   OH270306   2.114   5.323  11.272 -0.0880  0.3813  0.1442
16272TIP3    H170307   2.116   5.250  11.210 -0.5456  1.5521 -1.3122
16272TIP3    H270308   2.043   5.379  11.241 -0.4343  0.9510  1.8339
16273TIP3   OH270309   6.835   1.927  15.598  0.3700 -0.4006  0.3947
16273TIP3    H170310   6.826   1.849  15.542 -0.6613  0.4019 -0.6038
16273TIP3    H270311   6.745   1.952  15.618  0.6777 -1.0754  3.0893
16274TIP3   OH270312   5.956   4.680  16.136  0.1645 -0.2216 -0.1594
16274TIP3    H170313   5.884   4.685  16.074  0.2478  0.9304 -0.1860
16274TIP3    H270314   6.035   4.695  16.084  0.2476  0.5813  0.1812
16275TIP3   OH270315   0.603   3.842   2.832  0.1524 -0.1609  0.0121
16275TIP3    H170316   0.685   3.864   2.877  0.5141 -0.2334 -0.6057
16275TIP3    H270317   0.544   3.913   2.854 -1.0014 -2.0263  3.8411
16276TIP3   OH270318   5.283   4.046   2.597 -0.1444 -0.3059  0.0812
16276TIP3    H170319   5.363   4.087   2.564 -0.0087 -0.6448 -0.0178
16276TIP3    H270320   5.245   4.002   2.520 -0.1837 -0.5269  0.2264
16277TIP3   OH270321   5.866   4.823  11.520  0.2072  0.5074  0.0264
16277TIP3    H170322   5.890   4.906  11.562  2.0139 -0.1321  0.3625
16277TIP3    H270323   5.903   4.756  11.577 -1.3401 -0.5567 -0.1736
16278TIP3   OH270324   1.831   4.719  15.224 -0.0055 -0.4870  0.2737
16278TIP3    H170325   1.813   4.751  15.312 -0.0258 -2.1991  0.9316
16278TIP3    H270326   1.776   4.641  15.215 -0.4466 -0.0102 -1.4909
16279TIP3   OH270327   5.625   5.438   0.619 -0.6646 -0.0603  0.2381
16279TIP3    H170328   5.579   5.358   0.597 -0.7599  0.0737 -0.0511
16279TIP3    H270329   5.556   5.498   0.649 -0.4799 -0.4072  1.4013
16280TIP3   OH270330   4.594   1.796  17.023  0.9578  0.3560  0.4114
16280TIP3    H170331   4.659   1.728  17.043 -0.0617 -0.8923 -0.3692
16280TIP3    H270332   4.518   1.748  16.990  0.4874  1.9203 -0.9528
16281TIP3   OH270333   1.948   3.120  11.869  0.5466 -0.2037 -0.8521
16281TIP3    H170334   1.858   3.151  11.874  0.1004 -1.6828  1.3279
16281TIP3    H270335   1.943   3.041  11.815  0.4102 -0.6539 -0.1886
16282TIP3   OH270336   4.828   3.800  15.150 -0.3811  0.4222 -0.1361
16282TIP3    H170337   4.897   3.740  15.180 -0.5257 -0.1533 -0.9070
16282TIP3    H270338   4.765   3.802  15.222 -1.1071 -1.5458 -0.6457
16283TIP3   OH270339   0.776   5.650  13.847  0.3797  0.4919 -0.1623
16283TIP3    H170340   0.722   5.579  13.811  0.1767  0.3121  0.4919
16283TIP3    H270341   0.719   5.694  13.910 -0.3495  2.7816 -2.2449
16284TIP3   OH270342   5.803   3.974  13.795 -0.3575  0.0899 -0.2738
16284TIP3    H170343   5.735   3.973  13.863  0.4035  1.1918  0.5497
16284TIP3    H270344   5.834   3.884  13.790 -1.5449 -0.3237 -0.3165
16285TIP3   OH270345   2.290   5.118   1.751  0.0790 -0.0331 -0.3263
16285TIP3    H170346   2.313   5.030   1.722 -1.2448 -0.3471 -0.4458
16285TIP3    H270347   2.233   5.152   1.683 -1.4133 -0.0129  0.8943
16286TIP3   OH270348   6.526   1.396  12.368  0.5065 -0.1642  0.6633
16286TIP3    H170349   6.446   1.446  12.380 -0.6822 -1.9483  0.4704
16286TIP3    H270350   6.596   1.462  12.371 -0.9937  1.5256  0.0270
16287TIP3   OH270351   4.157   1.050  13.456  0.2679 -0.5186  0.0620
16287TIP3    H170352   4.096   1.046  13.530  1.1511  1.1011  0.9385
16287TIP3    H270353   4.122   1.120  13.400 -0.7719 -2.1827 -1.4686
16288TIP3   OH270354   2.244   2.720  15.145  0.5506  0.7542 -0.1485
16288TIP3    H170355   2.303   2.654  15.180  0.8002  1.0986  0.0807
16288TIP3    H270356   2.239   2.700  15.051  2.2860  1.6837 -0.4602
16289TIP3   OH270357   6.813   3.021  11.906  0.5474  0.4605  0.1243
16289TIP3    H170358   6.796   3.067  11.824 -0.1698  1.2491  0.6895
16289TIP3    H270359   6.744   3.052  11.965 -0.0129 -1.4170  0.5210
16290TIP3   OH270360   6.561   0.322   5.593 -0.4825  0.4703 -0.3198
16290TIP3    H170361   6.592   0.321   5.683 -0.5091 -0.5287 -0.3023
16290TIP3    H270362   6.624   0.375   5.546 -0.4773  1.0138  0.2886
16291TIP3   OH270363   5.531   0.551   6.041  0.5011 -0.1516 -0.1233
16291TIP3    H170364   5.472   0.566   6.115 -0.6618  1.0210 -1.2312
16291TIP3    H270365   5.615   0.588   6.070 -0.1244  0.9421  0.3751
16292TIP3   OH270366   3.752   3.813  13.024  0.5061 -0.4690 -0.5686
16292TIP3    H170367   3.662   3.783  13.035  0.4452 -0.4688 -1.0234
16292TIP3    H270368   3.748   3.908  13.041  0.7585 -0.7398  1.1837
16293TIP3   OH270369   1.898   3.546   2.385  0.5535  0.7142  0.1100
16293TIP3    H170370   1.843   3.470   2.366  0.2770  1.0824 -0.5768
16293TIP3    H270371   1.852   3.592   2.455 -0.4820  1.4904 -1.0521
16294TIP3   OH270372   0.148   4.771   1.071  0.3780 -0.4175  0.2017
16294TIP3    H170373   0.175   4.759   1.162  1.8036  1.2522  0.0432
16294TIP3    H270374   0.226   4.751   1.020  0.1140  0.3739 -0.5406
16295TIP3   OH270375   5.639   2.677  11.407  0.5229  0.2529 -0.0984
16295TIP3    H170376   5.734   2.683  11.409  0.4731  1.7816 -0.9100
16295TIP3    H270377   5.617   2.679  11.314 -0.3081  0.1194  0.0901
16296TIP3   OH270378   0.083   5.990   3.510  0.5626  0.2972 -0.0392
16296TIP3    H170379   0.172   6.021   3.525  1.0087 -0.4587 -0.9717
16296TIP3    H270380   0.056   6.032   3.428 -0.1883  0.9983  0.5424
16297TIP3   OH270381   6.544   5.466   1.571  0.2917 -0.8612 -0.1372
16297TIP3    H170382   6.603   5.467   1.496  1.4690 -2.0991  0.7064
16297TIP3    H270383   6.586   5.524   1.635 -0.0084 -0.8503  0.0495
16298TIP3   OH270384   4.465   0.300  13.724 -0.2737 -0.6888  0.7239
16298TIP3    H170385   4.506   0.264  13.646 -1.8188 -1.6554  0.3109
16298TIP3    H270386   4.372   0.279  13.715 -0.8410  1.0553  1.7988
16299TIP3   OH270387   4.016   2.771  15.276  0.1554 -0.2079  0.3672
16299TIP3    H170388   4.059   2.853  15.300  0.2637  0.1045 -0.8331
16299TIP3    H270389   3.963   2.793  15.199 -0.3110 -1.1206  0.4100
16300TIP3   OH270390   3.224   2.606  14.653 -0.6583 -0.2452 -0.2712
16300TIP3    H170391   3.287   2.567  14.714  0.3065 -0.7395 -1.5292
16300TIP3    H270392   3.206   2.692  14.689  1.8501  0.4873 -0.5345
16301TIP3   OH270393   2.102   1.197  15.621 -0.3506  0.6500 -0.2510
16301TIP3    H170394   2.099   1.108  15.656  1.2445  0.4518 -0.5341
16301TIP3    H270395   2.145   1.248  15.690  0.9725  0.6706 -1.0487
16302TIP3   OH270396   5.588   2.439  11.060 -0.0418 -0.2947  0.1837
16302TIP3    H170397   5.584   2.533  11.077  1.4402 -0.2337  0.3202
16302TIP3    H270398   5.658   2.429  10.996  0.2239 -1.3537  0.6106
16303TIP3   OH270399   5.233   4.708   0.684  0.3145  0.2046  0.0070
16303TIP3    H170400   5.213   4.621   0.717 -0.6976 -0.3732 -1.9234
16303TIP3    H270401   5.194   4.709   0.596 -2.1832  3.5489  0.9528
16304TIP3   OH270402   1.223   5.498  15.428  0.1470 -0.3832  0.0556
16304TIP3    H170403   1.295   5.491  15.365  0.5535  0.5486  0.3978
16304TIP3    H270404   1.221   5.591  15.452 -0.1815 -0.6629  1.1869
16305TIP3   OH270405   6.522   3.009  12.782 -0.3349 -0.1515 -0.7809
16305TIP3    H170406   6.538   3.049  12.696 -0.7124  1.9296  0.0668
16305TIP3    H270407   6.608   3.009  12.824 -0.2444 -0.7220 -0.9510
16306TIP3   OH270408   0.566   0.601  14.898  0.3495  0.3364 -0.5297
16306TIP3    H170409   0.658   0.583  14.876 -0.3157 -0.7531 -2.6100
16306TIP3    H270410   0.540   0.526  14.952  0.7014  0.7377  0.2202
16307TIP3   OH270411   2.388   6.576  15.967 -0.7898 -0.1617 -0.0193
16307TIP3    H170412   2.396   6.481  15.973 -0.8276 -0.1138  0.8254
16307TIP3    H270413   2.426   6.609  16.048 -2.1947  0.4681  0.4176
16308TIP3   OH270414   0.247   5.756  13.604  0.8846 -0.4506 -0.1723
16308TIP3    H170415   0.160   5.789  13.625  0.9960  0.2377 -0.7241
16308TIP3    H270416   0.307   5.818  13.645  1.0968  0.1550 -1.3363
16309TIP3   OH270417   4.033   5.756   1.541  0.3729 -0.0679  0.0535
16309TIP3    H170418   4.055   5.836   1.492 -0.2778 -0.3507 -0.7238
16309TIP3    H270419   4.007   5.787   1.627 -1.3675  0.7113 -0.7132
16310TIP3   OH270420   3.366   1.203  12.511 -0.5477 -0.3927 -0.2721
16310TIP3    H170421   3.442   1.259  12.529 -1.5844  1.4052 -1.2650
16310TIP3    H270422   3.399   1.114  12.524  1.2769  0.3975  0.9300
16311TIP3   OH270423   1.658   4.271  14.403 -0.4496 -0.0057 -0.1566
16311TIP3    H170424   1.582   4.327  14.417  0.6909  1.2979  1.3176
16311TIP3    H270425   1.710   4.282  14.483  0.5836 -1.9933 -0.4949
16312TIP3   OH270426   0.001   3.033   2.889 -0.0379  0.2556  0.3252
16312TIP3    H170427   0.056   3.112   2.885  1.4759 -0.7284  0.9643
16312TIP3    H270428   0.053   2.970   2.939 -0.6636 -1.5918 -1.2603
16313TIP3   OH270429   4.368   4.250  14.597  0.4527  0.0875  0.0583
16313TIP3    H170430   4.358   4.204  14.680  1.6008  0.4917  0.4352
16313TIP3    H270431   4.363   4.182  14.531  1.9854 -0.5841  0.6004
16314TIP3   OH270432   6.656   6.560   0.907  0.0236  0.5667  0.2061
16314TIP3    H170433   6.594   6.633   0.915 -1.0197 -0.3680  1.0451
16314TIP3    H270434   6.657   6.539   0.814 -0.4646  0.9881  0.1028
16315TIP3   OH270435   5.546   1.264  14.581 -0.0792  0.2094 -0.1139
16315TIP3    H170436   5.549   1.170  14.563 -0.6008 -0.0819  1.2312
16315TIP3    H270437   5.592   1.275  14.664 -1.9244  0.8245  0.8911
16316TIP3   OH270438   4.490   0.321  14.947 -0.3177 -0.6801 -0.0038
16316TIP3    H170439   4.563   0.270  14.984  1.6355  0.9415 -1.4076
16316TIP3    H270440   4.505   0.320  14.853 -3.1487 -1.6817 -0.5542
16317TIP3   OH270441   0.740   1.524  14.561 -0.0126 -0.1829 -0.2583
16317TIP3    H170442   0.733   1.452  14.499  0.9497  2.3347 -3.6223
16317TIP3    H270443   0.653   1.562  14.563 -0.0479 -0.2760 -0.0656
16318TIP3   OH270444   3.842   2.711  17.007  0.8096  0.1093 -0.0342
16318TIP3    H170445   3.773   2.648  16.984 -0.4960  2.1375 -2.1033
16318TIP3    H270446   3.831   2.725  17.101  0.4857 -1.9239  0.2915
16319TIP3   OH270447   2.922   3.248  15.359  0.2167 -0.0797 -0.2789
16319TIP3    H170448   3.009   3.269  15.392  1.0052  0.0195 -2.3407
16319TIP3    H270449   2.930   3.250  15.264 -1.3067 -2.9651 -0.5843
16320TIP3   OH270450   3.546   1.054   1.375  0.2785  0.3163 -0.3783
16320TIP3    H170451   3.549   1.012   1.290 -1.0819 -0.8135  0.0926
16320TIP3    H270452   3.635   1.085   1.390  0.8590 -0.6830 -1.6009
16321TIP3   OH270453   0.739   2.031  12.608  0.1798 -0.1859 -0.2288
16321TIP3    H170454   0.736   2.116  12.653 -0.7946 -0.0418 -0.5373
16321TIP3    H270455   0.830   2.023  12.580  0.7317 -0.1076  1.4088
16322TIP3   OH270456   3.261   2.991  12.454  0.2479  0.2970 -0.5531
16322TIP3    H170457   3.276   2.943  12.372  1.5983 -0.6522  0.2193
16322TIP3    H270458   3.253   2.923  12.521 -0.6776  1.0708  0.1600
16323TIP3   OH270459   0.040   6.371   0.504 -0.2684 -0.5646 -0.2389
16323TIP3    H170460   0.050   6.462   0.475 -0.7041 -0.5317 -0.2935
16323TIP3    H270461   0.128   6.343   0.525 -0.3368  0.5242  1.7519
16324TIP3   OH270462   2.096   3.978   1.709  0.3741  0.3572 -0.0129
16324TIP3    H170463   2.068   4.057   1.756 -1.4957 -0.7614  0.8535
16324TIP3    H270464   2.038   3.975   1.632 -1.4290 -1.4873  1.3086
16325TIP3   OH270465   2.226   4.556  15.530 -0.1687 -0.7564  0.6010
16325TIP3    H170466   2.251   4.624  15.467  3.4493 -2.5659 -0.1814
16325TIP3    H270467   2.208   4.479  15.476 -0.3577 -1.4623  1.6392
16326TIP3   OH270468   2.990   5.721  15.529 -0.6699 -0.2034 -0.2329
16326TIP3    H170469   3.048   5.749  15.458  0.3040 -2.1953 -0.3078
16326TIP3    H270470   2.947   5.801  15.558  1.2468  1.1760 -0.9733
16327TIP3   OH270471   0.663   3.133  12.548 -0.1633  0.7934 -0.0041
16327TIP3    H170472   0.610   3.205  12.584 -0.4548 -0.6938  2.8177
16327TIP3    H270473   0.602   3.084  12.493 -1.6551 -0.3652  2.4708
16328TIP3   OH270474   0.887   0.603  17.067  0.1298 -0.1121 -0.2477
16328TIP3    H170475   0.897   0.515  17.103  0.5406  0.3464  0.7850
16328TIP3    H270476   0.917   0.594  16.976  1.9073 -0.6569  0.3501
16329TIP3   OH270477   6.072   2.981  12.707 -0.3713  0.1671 -0.1701
16329TIP3    H170478   6.135   2.915  12.738 -0.4398  0.8558  1.5598
16329TIP3    H270479   5.997   2.929  12.678  0.0347 -0.5762  0.0649
16330TIP3   OH270480   4.769   2.220  11.305 -0.3459 -0.4570  0.7239
16330TIP3    H170481   4.797   2.166  11.378 -2.5887 -3.3143 -0.3292
16330TIP3    H270482   4.674   2.206  11.300 -0.5248  1.0667 -1.5973
16331TIP3   OH270483   0.310   3.461  11.805  0.3232 -0.5520  0.2289
16331TIP3    H170484   0.294   3.373  11.770 -0.7224 -0.9010  1.4868
16331TIP3    H270485   0.250   3.468  11.878  1.9627  0.3786  1.5577
16332TIP3   OH270486   5.530   6.235  17.043  0.2084 -0.0215 -0.7535
16332TIP3    H170487   5.464   6.181  17.000 -0.3665  0.9592 -1.1413
16332TIP3    H270488   5.603   6.238  16.981 -0.5590  1.2686 -1.6562
16333TIP3   OH270489   2.988   6.079  14.256  0.2261  0.2155 -0.8565
16333TIP3    H170490   3.006   5.990  14.228 -0.5486  0.0468 -0.8395
16333TIP3    H270491   2.918   6.070  14.321  0.2981  0.8132 -0.6895
16334TIP3   OH270492   4.992   0.494   2.854  0.6289 -0.0918 -0.5376
16334TIP3    H170493   4.946   0.424   2.808  1.1490 -1.2904  0.6976
16334TIP3    H270494   4.946   0.574   2.828 -0.5183 -0.9784 -1.3287
16335TIP3   OH270495   3.431   4.498  10.864 -0.3696 -0.3039  0.3995
16335TIP3    H170496   3.449   4.588  10.891  0.5246 -0.3003 -0.1604
16335TIP3    H270497   3.351   4.474  10.911  0.0554  0.3651  1.5032
16336TIP3   OH270498   0.501   4.662  12.941  0.2268  0.0739  0.5679
16336TIP3    H170499   0.494   4.689  12.850  0.5278 -0.8547  0.2656
16336TIP3    H270500   0.595   4.649  12.955  0.0018 -2.0072  0.3487
16337TIP3   OH270501   4.452   6.578   3.425 -0.1011 -0.2640 -0.0110
16337TIP3    H170502   4.543   6.602   3.411  0.1253 -1.0063  0.1220
16337TIP3    H270503   4.446   6.488   3.391 -0.8731 -0.0888 -0.3677
16338TIP3   OH270504   2.592   5.935  14.888 -0.0909  0.0327  0.8773
16338TIP3    H170505   2.504   5.970  14.904 -0.4495 -0.6441  0.4340
16338TIP3    H270506   2.578   5.844  14.863  0.7827 -0.2465  1.3611
16339TIP3   OH270507   2.894   1.310  12.707  0.3751 -0.0745 -0.1580
16339TIP3    H170508   2.986   1.323  12.683  0.3386  1.6949  0.4774
16339TIP3    H270509   2.880   1.216  12.701  1.5464 -0.1640 -2.7094
16340TIP3   OH270510   5.719   1.644   4.648  0.0220  0.4046 -0.1573
16340TIP3    H170511   5.802   1.637   4.695  0.3400 -0.2043 -0.7768
16340TIP3    H270512   5.741   1.693   4.569 -0.5207  1.4798  0.3354
16341TIP3   OH270513   2.079   0.371   4.177 -0.0034 -0.1447  0.1954
16341TIP3    H170514   2.171   0.385   4.154 -0.3218  1.3514 -0.2923
16341TIP3    H270515   2.079   0.362   4.272  0.5404  1.0797  0.3418
16342TIP3   OH270516   5.778   1.425  14.183  0.0604  0.3872  0.2730
16342TIP3    H170517   5.784   1.430  14.278  0.0375  1.7224  0.2215
16342TIP3    H270518   5.684   1.429  14.165  0.0131 -0.6464  0.2088
16343TIP3   OH270519   6.732   3.682   4.338 -0.4576 -0.3386  0.6608
16343TIP3    H170520   6.641   3.682   4.367 -0.0981 -1.6634  1.9273
16343TIP3    H270521   6.757   3.589   4.340  1.2432  0.1054  1.3962
16344TIP3   OH270522   6.810   0.256  13.050  0.0404  0.0241  0.3038
16344TIP3    H170523   6.716   0.268  13.063 -0.2960  2.6644 -2.9682
16344TIP3    H270524   6.821   0.163  13.032 -2.2145 -0.1172 -0.5714
16345TIP3   OH270525   2.643   3.576  15.992  0.7480 -0.6639 -0.3122
16345TIP3    H170526   2.706   3.648  15.997  1.2884 -1.1083 -0.5657
16345TIP3    H270527   2.558   3.618  15.999  0.9374  0.2548 -2.5855
16346TIP3   OH270528   5.022   6.704   5.663 -0.4492 -0.2227  0.7619
16346TIP3    H170529   5.041   6.723   5.755  0.1672  1.9867  0.2452
16346TIP3    H270530   5.108   6.703   5.621 -0.8453  1.0198 -0.1344
16347TIP3   OH270531   0.191   3.965  13.561  0.2511  0.9877 -0.2629
16347TIP3    H170532   0.277   3.937  13.592  0.4113  0.2532 -1.3147
16347TIP3    H270533   0.158   4.023  13.629  0.9461  0.1088  0.8528
16348TIP3   OH270534   2.758   4.665  16.051 -0.2573 -0.2335 -0.3414
16348TIP3    H170535   2.826   4.728  16.026 -0.2889 -0.8510 -2.1017
16348TIP3    H270536   2.676   4.706  16.024 -0.4637 -0.2049  0.2943
16349TIP3   OH270537   2.693   0.630  13.514  0.0371  1.3515  0.3353
16349TIP3    H170538   2.661   0.655  13.428 -0.6548  1.5928  0.6551
16349TIP3    H270539   2.620   0.647  13.573 -0.2747 -0.8357  0.6667
16350TIP3   OH270540   4.663   1.582   0.895 -0.0278  0.2244  0.4218
16350TIP3    H170541   4.758   1.580   0.888 -0.0613  0.6904 -0.2213
16350TIP3    H270542   4.644   1.532   0.974  0.8429  1.2503  1.3219
16351TIP3   OH270543   1.571   1.148   3.904 -0.2858  0.0517  0.1093
16351TIP3    H170544   1.617   1.232   3.896 -1.9513  1.2111  1.5881
16351TIP3    H270545   1.595   1.116   3.991 -1.4551  0.1882  0.4975
16352TIP3   OH270546   4.181   3.962   1.427  0.6062 -0.9485  0.0125
16352TIP3    H170547   4.160   3.986   1.336 -1.0251  1.7278  0.9732
16352TIP3    H270548   4.248   4.025   1.453 -0.9952  0.2441  1.4765
16353TIP3   OH270549   0.101   0.353  15.357 -0.7469  0.4687 -0.2748
16353TIP3    H170550   0.069   0.412  15.289 -1.8399  0.4832  0.2332
16353TIP3    H270551   0.027   0.342  15.416 -0.2267 -0.5807  0.2110
16354TIP3   OH270552   2.139   0.732  13.097  0.3650  0.0581  0.4250
16354TIP3    H170553   2.103   0.818  13.077 -0.2418  0.1364  1.7956
16354TIP3    H270554   2.225   0.732  13.055  1.1916  2.0704  1.9752
16355TIP3   OH270555   0.707   3.984   2.517 -0.0498  0.2475 -0.0678
16355TIP3    H170556   0.753   3.931   2.582  1.7748  1.1983 -0.5114
16355TIP3    H270557   0.623   3.939   2.505  1.4118 -2.6197 -0.5158
16356TIP3   OH270558   6.248   2.590  11.275 -0.3737 -0.2990  0.0067
16356TIP3    H170559   6.235   2.518  11.213  0.9617  1.0844 -2.0183
16356TIP3    H270560   6.205   2.665  11.234  1.5165  0.9187  0.1278
16357TIP3   OH270561   4.931   5.797   4.144 -0.2906 -0.0216 -0.0634
16357TIP3    H170562   4.904   5.863   4.080 -2.5070  0.1981  1.0068
16357TIP3    H270563   4.906   5.713   4.106  0.9769 -0.1301 -0.6858
16358TIP3   OH270564   1.064   3.888  15.967 -0.1796  0.1747 -0.3347
16358TIP3    H170565   1.129   3.827  15.931 -0.2880 -1.7668  2.3997
16358TIP3    H270566   1.108   3.927  16.043 -0.9572  1.7752 -0.6607
16359TIP3   OH270567   6.351   0.921   3.201  0.2962  0.4076 -0.8279
16359TIP3    H170568   6.383   0.865   3.271  0.5440  1.5625  0.0010
16359TIP3    H270569   6.342   0.862   3.125 -1.3452 -1.1743  0.5083
16360TIP3   OH270570   2.513   4.899  12.737 -0.1533 -0.7838  0.2925
16360TIP3    H170571   2.509   4.972  12.675 -0.3081 -1.3180 -0.3314
16360TIP3    H270572   2.474   4.934  12.817  0.1425 -0.0560  0.1261
16361TIP3   OH270573   0.308   3.695   5.152 -0.1590  0.2845 -0.2979
16361TIP3    H170574   0.395   3.669   5.182 -1.1112  0.1239  2.6638
16361TIP3    H270575   0.313   3.791   5.144  0.9310  0.0888 -2.6902
16362TIP3   OH270576   2.179   3.867  14.209  0.3576 -0.4433 -0.4827
16362TIP3    H170577   2.117   3.934  14.236  0.4721 -0.2090 -0.7935
16362TIP3    H270578   2.214   3.832  14.291 -0.8945 -1.2638 -0.2685
16363TIP3   OH270579   0.015   6.816   1.003  0.2683 -0.3265 -0.1085
16363TIP3    H170580  -0.035   6.758   0.947 -0.0958 -0.2200  0.1021
16363TIP3    H270581  -0.012   6.904   0.978  0.7498 -0.2482 -0.3645
16364TIP3   OH270582   1.662   1.093   4.162  0.3365  0.4557 -0.3162
16364TIP3    H170583   1.734   1.128   4.214  0.1111  0.4133  0.0249
16364TIP3    H270584   1.603   1.053   4.226 -0.0335  0.5625 -0.5870
16365TIP3   OH270585   4.513   5.170   5.308  0.1881 -0.2225  0.5930
16365TIP3    H170586   4.597   5.150   5.265  1.1427  0.7158  1.9383
16365TIP3    H270587   4.470   5.085   5.317  1.0660 -0.7449  0.0304
16366TIP3   OH270588   3.339   4.613   2.659 -0.5735  0.2473  0.3106
16366TIP3    H170589   3.431   4.611   2.683 -0.8752  0.5139  1.5464
16366TIP3    H270590   3.299   4.545   2.714 -1.1418  0.2530 -0.0906
16367TIP3   OH270591   0.963   0.563   3.042 -0.0772  0.1867  0.2575
16367TIP3    H170592   1.025   0.504   3.086  1.1333  1.3394  0.1600
16367TIP3    H270593   1.015   0.640   3.020 -1.6543  1.3805  0.5394
16368TIP3   OH270594   2.833   5.309   6.626  0.3036  0.0824 -0.4620
16368TIP3    H170595   2.808   5.291   6.535 -1.5557 -1.4695  0.2781
16368TIP3    H270596   2.906   5.370   6.619 -0.4275  0.7977 -2.9668
16369TIP3   OH270597   5.875   2.574  11.874  0.4897 -0.3607 -0.0812
16369TIP3    H170598   5.881   2.658  11.827 -0.6835 -0.2305 -0.0203
16369TIP3    H270599   5.928   2.514  11.822 -0.0386  0.0134 -1.0794
16370TIP3   OH270600   1.922   2.134  13.763 -0.1177 -0.0254 -0.0313
16370TIP3    H170601   1.991   2.068  13.764  1.1972  1.3039  0.4581
16370TIP3    H270602   1.969   2.217  13.764 -1.7517  0.9214  0.5977
16371TIP3   OH270603   2.698   6.451  14.862  0.2622 -0.3712  0.2729
16371TIP3    H170604   2.633   6.515  14.893 -0.4661  0.2130 -2.1933
16371TIP3    H270605   2.772   6.505  14.834  0.2432 -0.7134 -0.4488
16372TIP3   OH270606   0.779   1.565   4.521 -0.2139  0.0679  0.3934
16372TIP3    H170607   0.790   1.625   4.594 -1.2263  1.4965 -0.5775
16372TIP3    H270608   0.698   1.594   4.478 -0.3140 -1.5116 -0.5591
16373TIP3   OH270609   5.713   1.187   0.733 -0.1977  0.7246  0.3888
16373TIP3    H170610   5.762   1.210   0.655 -1.1359 -0.6068 -0.6543
16373TIP3    H270611   5.623   1.215   0.715 -0.3788  0.6416  1.1025
16374TIP3   OH270612   1.755   1.172   1.206  0.1941  0.1517  0.5353
16374TIP3    H170613   1.796   1.130   1.130 -1.5889  0.7232 -0.8070
16374TIP3    H270614   1.764   1.108   1.276 -0.9436 -1.8239 -1.0036
16375TIP3   OH270615   3.985   5.912   5.752  0.0504 -0.2304 -0.0005
16375TIP3    H170616   4.073   5.878   5.732 -0.7014 -1.4296 -1.5039
16375TIP3    H270617   3.998   6.006   5.760  1.4165 -0.3210 -0.6722
16376TIP3   OH270618   4.823   3.480   4.120  0.1785  0.1403 -0.0263
16376TIP3    H170619   4.739   3.434   4.114  0.0049  0.6165 -1.6536
16376TIP3    H270620   4.820   3.545   4.050  0.2790  2.9311  2.3939
16377TIP3   OH270621   3.836   2.386   0.979 -0.1452 -0.9081  0.1806
16377TIP3    H170622   3.836   2.310   1.038 -0.0162 -2.2389 -1.4713
16377TIP3    H270623   3.911   2.372   0.922 -1.3236 -0.6344 -1.4970
16378TIP3   OH270624   6.823   4.035  12.463  0.8513  0.3200  0.4018
16378TIP3    H170625   6.862   4.056  12.379  1.4473 -0.0495  0.5799
16378TIP3    H270626   6.729   4.033  12.446  1.0273 -1.1013 -0.5680
16379TIP3   OH270627   1.442   0.330  10.837 -0.5317  0.0733 -0.3640
16379TIP3    H170628   1.382   0.262  10.868 -1.4213  1.2587  0.5969
16379TIP3    H270629   1.431   0.330  10.742 -2.3468  0.5126 -0.1829
16380TIP3   OH270630   5.791   6.343  12.168  0.2763  0.5488 -0.3223
16380TIP3    H170631   5.763   6.435  12.173  1.4533  0.8606  2.0661
16380TIP3    H270632   5.886   6.347  12.176  0.2890 -0.9153  0.5703
16381TIP3   OH270633   3.076   2.330  16.834 -0.1134 -0.1859 -0.1280
16381TIP3    H170634   3.070   2.339  16.929 -1.1687  1.5096 -0.3188
16381TIP3    H270635   3.161   2.288  16.819 -1.2015 -3.3600  1.6696
16382TIP3   OH270636   1.975   2.365   1.841 -0.8440  0.2772 -0.2652
16382TIP3    H170637   1.981   2.367   1.937 -2.0977 -1.8314 -0.0988
16382TIP3    H270638   2.066   2.353   1.812 -0.8400 -4.2380  0.9636
16383TIP3   OH270639   1.885   1.954   2.064  0.1141 -0.4781  0.0421
16383TIP3    H170640   1.951   1.935   1.997 -0.7925 -1.5569 -0.5861
16383TIP3    H270641   1.802   1.929   2.024 -1.0781  3.1553 -0.1327
16384TIP3   OH270642   5.583   0.469   0.219 -0.3428  0.1632  0.3489
16384TIP3    H170643   5.545   0.522   0.149 -0.0428 -0.0333  0.0278
16384TIP3    H270644   5.560   0.379   0.195  1.1975 -0.0664 -0.4409
16385TIP3   OH270645   4.557   6.447  10.877  0.8103  0.5284  0.1459
16385TIP3    H170646   4.478   6.435  10.931  0.9007  0.3362  0.2367
16385TIP3    H270647   4.540   6.396  10.798  1.0455  0.0843  0.3766
16386TIP3   OH270648   0.116   2.369  15.434 -0.2297  0.1524 -0.2866
16386TIP3    H170649   0.183   2.385  15.501  0.5375 -0.1702 -0.9477
16386TIP3    H270650   0.133   2.279  15.405 -1.0808  0.0059 -0.3332
16387TIP3   OH270651   6.779   2.710   3.589 -0.5875 -0.0996 -0.8644
16387TIP3    H170652   6.815   2.637   3.539 -0.0831 -0.5154  0.0664
16387TIP3    H270653   6.721   2.755   3.529  0.3846 -0.2841 -1.9713
16388TIP3   OH270654   1.189   5.931   4.384 -0.0659  0.0053 -0.2869
16388TIP3    H170655   1.264   5.940   4.326 -0.1366 -0.1856 -0.4105
16388TIP3    H270656   1.208   5.853   4.436 -1.7112 -2.1796 -2.6905
16389TIP3   OH270657   1.286   4.600   5.955  0.0077 -0.1214  0.2872
16389TIP3    H170658   1.344   4.533   5.991  2.7155  0.9333 -1.7609
16389TIP3    H270659   1.318   4.682   5.991  0.4289  0.5766 -1.5599
16390TIP3   OH270660   3.626   1.637  14.222  0.1968  0.1190  0.3643
16390TIP3    H170661   3.645   1.544  14.234 -0.0082  0.2237  1.6240
16390TIP3    H270662   3.531   1.640  14.205  0.0909  0.1484  0.9587
16391TIP3   OH270663   4.596   4.590   5.326 -0.5847 -0.5266 -0.2767
16391TIP3    H170664   4.642   4.507   5.334 -0.3953 -0.4405 -0.4750
16391TIP3    H270665   4.641   4.649   5.387 -2.1102 -1.1686  1.5774
16392TIP3   OH270666   1.431   1.020  15.149 -1.2198  0.6040  0.2272
16392TIP3    H170667   1.510   0.988  15.106 -1.9826 -1.4133  0.1841
16392TIP3    H270668   1.455   1.104  15.186  0.8491  0.1615 -0.0215
16393TIP3   OH270669   3.398   2.835   4.122  0.2134 -0.1270  0.6375
16393TIP3    H170670   3.441   2.921   4.123  3.1425 -1.3335 -2.2238
16393TIP3    H270671   3.448   2.783   4.185  1.6002 -0.8875 -0.9944
16394TIP3   OH270672   1.866   6.852  12.180  0.0766  0.0424  0.1730
16394TIP3    H170673   1.775   6.862  12.205  0.5169  0.4581  1.6824
16394TIP3    H270674   1.895   6.772  12.224  0.2842 -0.4548 -0.8247
16395TIP3   OH270675   4.710   6.604   3.326  0.4094  0.3317  0.2223
16395TIP3    H170676   4.775   6.595   3.256 -0.2473 -0.1531 -0.3563
16395TIP3    H270677   4.746   6.554   3.399  0.2743 -0.7561 -0.4185
16396TIP3   OH270678   5.104   4.896   3.453  0.1965 -0.4020  0.2387
16396TIP3    H170679   5.115   4.932   3.366 -2.5198  3.0463  1.0979
16396TIP3    H270680   5.189   4.909   3.495  0.1723  2.7065 -0.4225
16397TIP3   OH270681   3.177   3.557  16.379 -0.8119 -0.4346 -0.4900
16397TIP3    H170682   3.131   3.522  16.455  1.1114  0.4149  1.1261
16397TIP3    H270683   3.121   3.628  16.348 -0.8356  0.3321  1.2003
16398TIP3   OH270684   3.872   2.806  14.480 -0.2937  0.2655  0.2627
16398TIP3    H170685   3.898   2.714  14.485 -2.2467 -0.2747  2.4939
16398TIP3    H270686   3.828   2.814  14.395 -3.0375 -1.8263  1.3328
16399TIP3   OH270687   4.300   6.637  15.298  0.3151 -0.7189 -0.5991
16399TIP3    H170688   4.220   6.685  15.319  0.5752 -0.3430 -0.4595
16399TIP3    H270689   4.371   6.698  15.319  0.6867 -1.4776  0.4423
16400TIP3   OH270690   2.052   0.964  11.537 -0.1445 -0.2394 -0.1324
16400TIP3    H170691   2.132   0.941  11.490 -0.3913 -0.4904 -0.4414
16400TIP3    H270692   2.057   0.916  11.619 -0.5415 -1.2554 -0.6717
16401TIP3   OH270693   3.079   2.106   5.115 -0.2607 -0.0647  0.2761
16401TIP3    H170694   3.030   2.075   5.191  1.3661  0.7283  1.7049
16401TIP3    H270695   3.012   2.139   5.055 -1.4794  1.3333  2.3002
16402TIP3   OH270696   6.606   5.660  15.599 -0.7432  0.1233  0.7937
16402TIP3    H170697   6.697   5.638  15.617 -0.9970  0.7423  3.2209
16402TIP3    H270698   6.602   5.671  15.504  1.7478  0.3568  0.6458
16403TIP3   OH270699   1.725   4.164   2.401 -0.0258  0.1956 -0.1387
16403TIP3    H170700   1.659   4.095   2.400  0.7999 -0.6394 -1.5856
16403TIP3    H270701   1.675   4.245   2.392 -1.0533 -0.1206  2.2318
16404TIP3   OH270702   2.140   4.017  14.711 -0.1345  0.0712  0.1620
16404TIP3    H170703   2.234   4.020  14.693 -0.3782  3.8218 -1.6225
16404TIP3    H270704   2.133   3.986  14.801  2.9674  0.9740  0.8308
16405TIP3   OH270705   0.616   5.272   3.659 -0.8105 -0.4577 -0.0476
16405TIP3    H170706   0.696   5.222   3.675  0.0947  0.9757  0.0776
16405TIP3    H270707   0.561   5.254   3.735  0.7722  1.1146  1.5725
16406TIP3   OH270708   4.084   5.485  14.418  0.0272  0.0850 -0.5739
16406TIP3    H170709   4.124   5.430  14.486 -0.9629  0.5533  0.4057
16406TIP3    H270710   4.159   5.520  14.369  0.8001  0.4112  0.8031
16407TIP3   OH270711   4.656   6.093  11.625 -0.7244  0.4827 -0.0884
16407TIP3    H170712   4.703   6.066  11.704  2.4667  0.3569 -1.8524
16407TIP3    H270713   4.653   6.188  11.630 -0.7953  0.4617  0.2948
16408TIP3   OH270714   2.765   1.760  11.973  0.3722  0.6096  0.8234
16408TIP3    H170715   2.676   1.735  11.999  0.3478  0.5120  0.6435
16408TIP3    H270716   2.758   1.784  11.881  1.2886 -3.4799 -0.5082
16409TIP3   OH270717   1.546   5.413   1.304 -0.2339 -0.3204 -0.3424
16409TIP3    H170718   1.457   5.434   1.275 -1.0703 -0.7064  1.7629
16409TIP3    H270719   1.599   5.419   1.224 -1.8405  1.5315 -1.3673
16410TIP3   OH270720   5.288   5.210  15.695 -0.2837 -0.1325  0.1407
16410TIP3    H170721   5.341   5.184  15.619 -2.0057  1.5174 -1.7451
16410TIP3    H270722   5.209   5.249  15.657 -0.9955  1.2506  2.7995
16411TIP3   OH270723   2.146   3.964   5.416  0.5188 -0.7654 -0.2985
16411TIP3    H170724   2.126   3.872   5.398  1.5957 -0.8476 -1.1924
16411TIP3    H270725   2.237   3.975   5.388  0.6837  0.3702  0.5782
16412TIP3   OH270726   3.659   2.518  16.647  0.4684 -0.0792 -0.1444
16412TIP3    H170727   3.597   2.455  16.610 -0.3621  0.2483  0.6531
16412TIP3    H270728   3.723   2.533  16.577 -1.8463  1.6338 -2.0510
16413TIP3   OH270729   3.337   2.143  13.895  0.2876  0.6665 -0.0289
16413TIP3    H170730   3.263   2.084  13.883  0.2350  1.1020 -2.2875
16413TIP3    H270731   3.394   2.099  13.958  0.1321 -1.6867 -1.4305
16414TIP3   OH270732   5.549   3.520  11.247  0.1640  0.4801 -0.2780
16414TIP3    H170733   5.489   3.570  11.301 -0.0248  2.3619 -2.1019
16414TIP3    H270734   5.493   3.466  11.191  0.3230 -0.5279  0.5014
16415TIP3   OH270735   2.707   6.191   4.524 -0.0760  0.1937 -0.8565
16415TIP3    H170736   2.651   6.113   4.518  1.3173 -1.0844  1.4791
16415TIP3    H270737   2.685   6.229   4.609  2.2854 -0.1400 -0.0435
16416TIP3   OH270738   2.962   1.684   5.464 -0.0347 -0.8398  0.4542
16416TIP3    H170739   2.955   1.623   5.390  0.0539 -2.1827  1.5172
16416TIP3    H270740   2.942   1.769   5.426 -0.6588 -1.5889 -0.9891
16417TIP3   OH270741   1.215   4.076   4.172 -0.3928  0.2072  0.3882
16417TIP3    H170742   1.152   4.120   4.229 -1.1686  0.4508 -0.6245
16417TIP3    H270743   1.172   3.995   4.146 -0.9086  0.9938 -1.3962
16418TIP3   OH270744   2.189   1.195   4.278  0.2161  0.3462  0.5582
16418TIP3    H170745   2.201   1.154   4.364  0.7187 -0.6252  0.0366
16418TIP3    H270746   2.181   1.122   4.217 -0.0924  1.0253 -0.2320
16419TIP3   OH270747   6.491   3.421   5.645 -0.3866 -0.9808  0.4177
16419TIP3    H170748   6.532   3.506   5.630  1.6124 -1.8038  0.8660
16419TIP3    H270749   6.413   3.440   5.697  0.0073  0.5631  0.4950
16420TIP3   OH270750   6.609   0.548  15.917 -0.4678  0.1979 -0.5911
16420TIP3    H170751   6.673   0.590  15.859 -1.0468  1.6521 -0.2274
16420TIP3    H270752   6.537   0.523  15.859 -0.9603  1.4781 -0.5876
16421TIP3   OH270753   0.901   6.827  14.208 -0.2327  0.0038  0.7226
16421TIP3    H170754   0.919   6.889  14.138 -0.7982  0.5594  1.0610
16421TIP3    H270755   0.819   6.785  14.182 -0.1655 -0.1721  0.7930
16422TIP3   OH270756   5.292   1.052   1.791 -0.4568  0.1121 -0.1039
16422TIP3    H170757   5.313   1.118   1.724  1.4369  1.7768  1.9318
16422TIP3    H270758   5.333   0.972   1.759 -1.5828  0.2255 -1.9781
16423TIP3   OH270759   0.508   0.086  14.346  0.4770 -0.4041  0.0968
16423TIP3    H170760   0.494   0.180  14.340 -0.6026 -0.6300 -1.2600
16423TIP3    H270761   0.560   0.075  14.426  0.2388  1.2861  0.5231
16424TIP3   OH270762   2.953   0.636   2.227  0.0196  0.1690 -0.0125
16424TIP3    H170763   2.918   0.567   2.282 -1.3904  1.4997  0.8426
16424TIP3    H270764   2.900   0.633   2.147 -2.2396  2.1355  1.2515
16425TIP3   OH270765   3.377   3.155  14.003  0.9156  0.4246  0.2938
16425TIP3    H170766   3.377   3.212  13.926 -0.7150  0.1246  0.0409
16425TIP3    H270767   3.376   3.215  14.078  1.8426  0.7154  0.0849
16426TIP3   OH270768   3.495   4.916   2.935  0.1067 -0.0912 -0.0566
16426TIP3    H170769   3.536   4.936   3.019  0.8515  1.3525 -0.7281
16426TIP3    H270770   3.401   4.909   2.955  0.5121 -2.8413  1.3886
16427TIP3   OH270771   4.751   3.138  11.089 -0.3049 -0.5182  0.4165
16427TIP3    H170772   4.666   3.170  11.057 -0.3365 -1.8506 -0.9686
16427TIP3    H270773   4.783   3.082  11.018  1.0782 -1.1726  1.5190
16428TIP3   OH270774   2.280   6.018   6.181  0.3690 -0.7293  0.4385
16428TIP3    H170775   2.251   5.930   6.204 -0.9724 -0.1878  0.8965
16428TIP3    H270776   2.288   6.064   6.265 -2.6945  0.6862  0.0746
16429TIP3   OH270777   2.930   3.551  14.976 -0.1402 -0.2997  0.4226
16429TIP3    H170778   3.013   3.594  14.954 -0.4078 -1.1058 -2.6685
16429TIP3    H270779   2.883   3.547  14.893 -3.1543 -0.2441  2.0036
16430TIP3   OH270780   0.396   3.245  15.859  0.6066  0.3682 -0.5165
16430TIP3    H170781   0.462   3.256  15.790  0.8575 -1.8096 -0.6835
16430TIP3    H270782   0.447   3.238  15.940  0.3390  2.3719 -0.1280
16431TIP3   OH270783   5.201   2.297  13.926 -0.2089 -0.2702  0.1468
16431TIP3    H170784   5.168   2.229  13.868  0.6170 -1.1897  0.7407
16431TIP3    H270785   5.123   2.325  13.975 -0.4569 -1.1762  0.2892
16432TIP3   OH270786   6.184   4.708   3.834 -0.3867 -1.0300  0.4620
16432TIP3    H170787   6.231   4.761   3.898 -1.2694 -3.1913  3.0714
16432TIP3    H270788   6.093   4.713   3.860 -0.7186 -2.3168 -0.3297
16433TIP3   OH270789   2.525   1.259  13.882 -0.0873 -0.5930 -0.7556
16433TIP3    H170790   2.500   1.317  13.955 -2.0261  0.0362 -1.8472
16433TIP3    H270791   2.599   1.209  13.916  1.7553  2.5129  0.2463
16434TIP3   OH270792   0.133   5.102  13.683  0.1948  0.4832 -0.1116
16434TIP3    H170793   0.084   5.046  13.743 -0.5451  1.2623  0.0229
16434TIP3    H270794   0.098   5.190  13.698  1.1375  0.9397 -0.5280
16435TIP3   OH270795   6.646   0.121  17.087 -0.0465  0.4135  0.2304
16435TIP3    H170796   6.640   0.151  16.996 -0.4721 -0.1933  0.0492
16435TIP3    H270797   6.601   0.036  17.087  1.5097 -0.4398  0.6370
16436TIP3   OH270798   4.555   1.382   3.025  0.5518 -0.0805  0.5126
16436TIP3    H170799   4.489   1.400   3.092  0.1193 -0.6834  0.2588
16436TIP3    H270800   4.629   1.346   3.073  0.1994 -0.6226  0.6644
16437TIP3   OH270801   5.509   4.716  11.118  0.4095  0.0259  0.1336
16437TIP3    H170802   5.421   4.692  11.148  0.7451  0.1031  1.2346
16437TIP3    H270803   5.563   4.710  11.197  1.5168 -0.5955 -0.6453
16438TIP3   OH270804   1.166   1.443   2.571 -0.1742 -0.8806 -0.1010
16438TIP3    H170805   1.084   1.472   2.531  0.3531 -1.9939 -2.1268
16438TIP3    H270806   1.227   1.435   2.497  1.0215 -2.5142  0.9952
16439TIP3   OH270807   0.430   2.716   2.733 -0.3257 -0.1027  0.4514
16439TIP3    H170808   0.480   2.635   2.737 -0.9318 -0.6055 -1.2530
16439TIP3    H270809   0.374   2.706   2.656  0.2336  2.2919 -0.3564
16440TIP3   OH270810   1.752   5.320  15.058  0.2988 -0.1967  0.3390
16440TIP3    H170811   1.703   5.372  14.994  0.6483  0.1720  0.3657
16440TIP3    H270812   1.843   5.346  15.045  0.5361 -1.1566  0.0377
16441TIP3   OH270813   4.404   6.228   6.395  0.5530  0.2693 -1.0280
16441TIP3    H170814   4.398   6.157   6.459  0.0052  3.4734  2.8396
16441TIP3    H270815   4.314   6.256   6.382  0.4546 -1.2407 -4.6436
16442TIP3   OH270816   4.069   3.505   3.274 -0.4233 -0.3826 -0.0025
16442TIP3    H170817   4.154   3.467   3.297  0.1048  0.3667 -0.7004
16442TIP3    H270818   4.056   3.575   3.338  1.4501  2.2888 -2.3100
16443TIP3   OH270819   5.858   2.990   6.153 -0.5343 -0.5468  0.8013
16443TIP3    H170820   5.905   3.072   6.143  0.1895 -1.1740 -1.6340
16443TIP3    H270821   5.915   2.935   6.206 -0.4104  0.0539  1.2969
16444TIP3   OH270822   5.112   3.719   1.135  0.1478  0.3415  0.1000
16444TIP3    H170823   5.124   3.795   1.079 -1.9759  0.6897  0.0548
16444TIP3    H270824   5.087   3.648   1.075  1.2226 -0.1766  0.2437
16445TIP3   OH270825   1.677   1.096  15.527 -0.0065  0.0138  0.4546
16445TIP3    H170826   1.720   1.176  15.499 -0.5349 -0.0692 -0.6567
16445TIP3    H270827   1.735   1.026  15.497  0.1658 -0.0400  0.9070
16446TIP3   OH270828   5.383   3.719   5.711 -0.2346 -0.0408 -0.2985
16446TIP3    H170829   5.344   3.660   5.646  1.4722 -2.6860  0.9158
16446TIP3    H270830   5.320   3.722   5.782 -1.4243  1.6611 -1.3436
16447TIP3   OH270831   5.270   1.741  12.099 -0.3722  0.5168  0.3903
16447TIP3    H170832   5.261   1.796  12.177 -1.2649  0.0215  0.6534
16447TIP3    H270833   5.304   1.658  12.132  1.9116  1.1800 -0.1310
16448TIP3   OH270834   1.210   6.478  12.260 -0.9242  0.1382 -0.2985
16448TIP3    H170835   1.213   6.526  12.343  1.4295 -1.0553  0.4076
16448TIP3    H270836   1.146   6.409  12.274 -1.1931  0.4878  0.2164
16449TIP3   OH270837   0.029   6.022  14.290  0.1434  0.4224  0.4167
16449TIP3    H170838  -0.032   6.091  14.316 -0.4894  0.1591 -0.3563
16449TIP3    H270839   0.017   5.953  14.355 -0.4440  0.3353  0.2178
16450TIP3   OH270840   0.633   2.146  14.518  0.5579  0.4177 -0.8729
16450TIP3    H170841   0.653   2.238  14.505  1.6821  0.3043 -0.0399
16450TIP3    H270842   0.648   2.106  14.433  2.0330  0.6761 -0.7525
16451TIP3   OH270843   1.154   4.079   2.561  0.1904 -0.4458 -0.2256
16451TIP3    H170844   1.152   4.096   2.655  2.7586 -0.9199 -0.0166
16451TIP3    H270845   1.074   4.119   2.528  0.5017  2.1306  1.7961
16452TIP3   OH270846   5.860   6.835   0.963 -0.2645 -0.4399 -0.3725
16452TIP3    H170847   5.788   6.775   0.981 -0.2330 -0.7049 -1.0829
16452TIP3    H270848   5.925   6.781   0.917 -0.3795  0.2132 -1.3209
16453TIP3   OH270849   5.457   6.023   3.467  0.3509 -0.2534 -0.0653
16453TIP3    H170850   5.369   5.991   3.446  1.4083 -1.6115 -3.0236
16453TIP3    H270851   5.464   6.105   3.417  0.7065 -0.0221  0.3594
16454TIP3   OH270852   5.258   2.139   6.177  0.1332  0.2070  0.1935
16454TIP3    H170853   5.287   2.158   6.267 -0.4136 -0.0858  0.4359
16454TIP3    H270854   5.307   2.200   6.123  0.6657  0.2109  0.6693
16455TIP3   OH270855   2.387   6.560  14.323  0.1859 -0.0157 -0.1955
16455TIP3    H170856   2.359   6.469  14.312 -0.0165  0.1028 -0.6925
16455TIP3    H270857   2.427   6.583  14.239  1.1094  0.0545  0.2477
16456TIP3   OH270858   2.986   4.245  12.975  0.2342  0.0564 -0.7308
16456TIP3    H170859   2.941   4.205  12.900 -0.2339 -0.6334 -0.0964
16456TIP3    H270860   3.060   4.292  12.936 -1.7545  2.4159 -1.9803
16457TIP3   OH270861   1.385   3.461  10.838  0.0559 -0.1444  0.2986
16457TIP3    H170862   1.394   3.423  10.751 -0.0944 -0.3812  0.3849
16457TIP3    H270863   1.457   3.424  10.888  1.1568  1.2901 -0.1720
16458TIP3   OH270864   4.931   0.285  13.585  0.1746 -0.9813  0.3556
16458TIP3    H170865   4.948   0.347  13.514 -2.8153  1.1326  1.2913
16458TIP3    H270866   4.892   0.209  13.542  2.3556 -1.6311 -0.6220
16459TIP3   OH270867   3.028   3.473  12.437  0.5419  0.0763  0.3181
16459TIP3    H170868   3.044   3.566  12.450  1.0268  0.0953 -0.3793
16459TIP3    H270869   2.961   3.451  12.502 -0.9895  1.3310 -0.7503
16460TIP3   OH270870   5.569   4.817   1.949  0.0187 -0.8098 -0.4518
16460TIP3    H170871   5.498   4.881   1.956  1.1687  0.4261  0.5736
16460TIP3    H270872   5.646   4.870   1.927  0.5670 -2.1718 -2.0396
16461TIP3   OH270873   2.698   1.435   3.714  0.4375 -0.4223  0.3188
16461TIP3    H170874   2.734   1.350   3.738  0.9421 -0.0138  1.0695
16461TIP3    H270875   2.766   1.474   3.658  1.7030  0.7498  2.5219
16462TIP3   OH270876   5.505   0.248   0.530 -0.5591 -0.0106 -0.6444
16462TIP3    H170877   5.436   0.193   0.565 -0.9576 -0.3670 -1.9325
16462TIP3    H270878   5.540   0.199   0.456  1.0564  0.1844 -0.0560
16463TIP3   OH270879   3.264   1.960  13.242 -0.0601 -0.2525  0.0466
16463TIP3    H170880   3.255   1.865  13.250  1.5120 -0.3573  1.0746
16463TIP3    H270881   3.256   1.993  13.332 -1.1675  0.6626 -0.3659
16464TIP3   OH270882   1.201   3.637  10.434 -0.0943 -0.3158  0.1421
16464TIP3    H170883   1.208   3.546  10.405  0.5850 -0.0202 -0.6836
16464TIP3    H270884   1.115   3.643  10.476 -0.2971 -1.2508 -0.1255
16465TIP3   OH270885   2.288   0.831  14.088 -0.1884  0.3236 -0.5798
16465TIP3    H170886   2.309   0.912  14.134  2.0735 -0.8100  0.5504
16465TIP3    H270887   2.355   0.823  14.021  0.2643 -1.0651 -0.0133
16466TIP3   OH270888   5.172   3.948   4.942 -0.1359 -0.5099  0.7037
16466TIP3    H170889   5.147   4.007   5.013  0.6329 -1.0378  1.4363
16466TIP3    H270890   5.168   4.002   4.863  0.7980  0.6045  1.3867
16467TIP3   OH270891   4.093   5.629  10.776 -0.1132  0.1537 -0.6452
16467TIP3    H170892   4.135   5.564  10.832  0.2630  0.1530 -0.9281
16467TIP3    H270893   4.068   5.580  10.697 -2.6506 -0.3899  0.3721
16468TIP3   OH270894   5.511   2.194   0.276  0.0605  0.1334  0.0635
16468TIP3    H170895   5.592   2.158   0.240  1.5657 -0.8317  3.9176
16468TIP3    H270896   5.453   2.118   0.284  1.0565 -0.4409  2.7191
16469TIP3   OH270897   3.854   3.837   5.347  0.5249  0.0001 -0.5208
16469TIP3    H170898   3.896   3.883   5.420 -1.4905 -1.0305  1.4206
16469TIP3    H270899   3.886   3.881   5.269  1.6571  2.1238  1.0449
16470TIP3   OH270900   2.986   2.092  13.638 -0.0251 -0.1588 -0.6088
16470TIP3    H170901   2.926   2.053  13.574 -1.1494 -0.5564  0.6580
16470TIP3    H270902   2.955   2.061  13.723  0.5943  1.4850  0.2590
16471TIP3   OH270903   1.574   2.228   3.526  0.1507 -0.2029  0.0164
16471TIP3    H170904   1.510   2.191   3.465  0.4721 -0.5883 -0.0919
16471TIP3    H270905   1.545   2.198   3.612 -0.7391  0.9672  0.1531
16472TIP3   OH270906   6.226   5.575   0.755  0.2929  0.2783 -0.0030
16472TIP3    H170907   6.139   5.609   0.732  0.2199  0.1313  0.0617
16472TIP3    H270908   6.253   5.526   0.677 -0.0199 -0.3488  0.2813
16473TIP3   OH270909   4.614   0.004   0.408 -0.1942 -0.0361 -0.0646
16473TIP3    H170910   4.699   0.035   0.441 -1.3641  0.1282  3.2387
16473TIP3    H270911   4.558   0.081   0.411 -0.9170 -0.5412 -0.3543
16474TIP3   OH270912   6.669   2.943   4.392  0.2223 -0.6176 -0.5858
16474TIP3    H170913   6.740   3.000   4.423 -0.5565  0.2443 -0.3392
16474TIP3    H270914   6.590   2.979   4.432 -0.7581  0.1276 -2.9806
16475TIP3   OH270915   6.407   3.719   2.692  0.0041 -0.0644  0.2127
16475TIP3    H170916   6.364   3.657   2.751  0.9326  0.1614  1.1513
16475TIP3    H270917   6.406   3.802   2.739 -0.6636  0.5049 -0.7738
16476TIP3   OH270918   2.054   4.472  12.745  0.0180  0.2259  0.3500
16476TIP3    H170919   2.028   4.418  12.819  1.8305 -0.1969  0.7469
16476TIP3    H270920   2.112   4.538  12.784  0.9338  0.0399 -0.6455
16477TIP3   OH270921   5.231   5.278  14.134  0.2982  0.3670  0.4317
16477TIP3    H170922   5.217   5.354  14.192  2.8423  1.9927 -0.8631
16477TIP3    H270923   5.160   5.282  14.071 -0.2338  1.0026  1.0517
16478TIP3   OH270924   0.388   1.028  15.870 -0.6117 -0.3275 -0.7210
16478TIP3    H170925   0.425   1.079  15.942 -0.4880 -0.0405 -0.9849
16478TIP3    H270926   0.463   0.996  15.821 -0.6657 -1.5390 -0.0333
16479TIP3   OH270927   1.085   5.962   3.022 -0.3594  0.2548  0.3046
16479TIP3    H170928   1.074   5.918   3.106  0.8481  0.2087  0.4491
16479TIP3    H270929   1.176   5.992   3.022 -0.9158  2.0761 -0.1157
16480TIP3   OH270930   6.373   0.792  11.510 -0.0389  0.8570  0.1932
16480TIP3    H170931   6.416   0.709  11.489  1.5248  1.9386 -1.1059
16480TIP3    H270932   6.280   0.771  11.512  0.3023 -0.8719 -0.3241
16481TIP3   OH270933   2.566   2.003  16.978 -0.5091  0.0310 -0.3530
16481TIP3    H170934   2.598   2.088  17.009 -0.3493 -0.0261 -0.3592
16481TIP3    H270935   2.623   1.939  17.019 -1.3244 -0.1435  0.5321
16482TIP3   OH270936   1.591   5.985  14.500  0.2664  0.4163  0.2101
16482TIP3    H170937   1.499   5.959  14.505  1.1146 -3.3184 -0.7746
16482TIP3    H270938   1.630   5.924  14.438  3.5550  1.5433  0.9752
16483TIP3   OH270939   5.641   0.046  16.491  0.0967  0.1013 -0.2995
16483TIP3    H170940   5.688   0.070  16.412  0.2717 -0.3545 -0.3399
16483TIP3    H270941   5.710   0.029  16.556 -0.0220 -0.1286 -0.2299
16484TIP3   OH270942   0.416   2.078   3.216 -0.0670 -0.5758 -0.1016
16484TIP3    H170943   0.367   2.079   3.134  0.2709  1.3904 -0.3433
16484TIP3    H270944   0.436   1.986   3.232 -3.3688 -1.4423 -0.2259
16485TIP3   OH270945   5.119   0.663  11.672 -0.1236  0.2428 -0.2193
16485TIP3    H170946   5.136   0.740  11.617 -2.5404  2.2583  1.6595
16485TIP3    H270947   5.047   0.617  11.628  0.4299 -0.2652 -0.6261
16486TIP3   OH270948   0.677   5.672  14.262  0.4196 -0.2118  0.5752
16486TIP3    H170949   0.759   5.704  14.300  0.3273  3.8092 -2.0519
16486TIP3    H270950   0.692   5.672  14.168 -2.3527 -0.1296  0.0476
16487TIP3   OH270951   3.391   0.874  16.432  0.1300 -0.1595 -0.7021
16487TIP3    H170952   3.410   0.867  16.526 -0.6320 -1.5041 -0.6096
16487TIP3    H270953   3.463   0.924  16.396  0.7190 -0.0915  0.5302
16488TIP3   OH270954   6.773   4.163   2.393  0.3818  0.0299  0.3134
16488TIP3    H170955   6.765   4.153   2.488 -0.3820 -0.3331  0.2192
16488TIP3    H270956   6.685   4.186   2.364  0.6646  0.3601 -0.2824
16489TIP3   OH270957   2.192   0.459  15.330 -0.2072 -0.5866  0.1338
16489TIP3    H170958   2.200   0.541  15.282 -1.4479 -0.6861 -0.2805
16489TIP3    H270959   2.118   0.472  15.389  1.7206 -0.2068  2.6365
16490TIP3   OH270960   5.415   3.573  11.888 -0.2836 -0.1560  0.1804
16490TIP3    H170961   5.420   3.636  11.959  0.6075  0.8972 -0.7709
16490TIP3    H270962   5.437   3.623  11.810  0.3345 -1.6302 -0.6314
16491TIP3   OH270963   5.092   4.574   1.583 -0.1231 -0.2608  0.0385
16491TIP3    H170964   5.005   4.594   1.548 -0.9085  0.8165  2.3915
16491TIP3    H270965   5.150   4.637   1.540 -0.6669 -0.3225 -0.8044
16492TIP3   OH270966   4.372   6.487  17.104  0.2757  0.0958  0.1414
16492TIP3    H170967   4.392   6.437  17.025  0.5997  0.3091  0.0826
16492TIP3    H270968   4.337   6.570  17.071  1.0840  0.4693  0.1974
16493TIP3   OH270969   2.688   4.965  14.381  0.2015 -0.4078  0.2178
16493TIP3    H170970   2.593   4.950  14.379  0.2526 -0.7747 -1.6749
16493TIP3    H270971   2.702   5.020  14.457 -1.7031  0.6981 -0.1694
16494TIP3   OH270972   4.739   3.980  14.417  0.0199  0.3663  0.4580
16494TIP3    H170973   4.800   3.993  14.489  1.0848 -1.9188  0.0672
16494TIP3    H270974   4.742   3.886  14.400 -3.4859  0.1671  0.2652
16495TIP3   OH270975   4.901   0.343  12.470 -0.3696 -0.3418  0.1049
16495TIP3    H170976   4.992   0.315  12.464 -0.1056  0.1186  1.5810
16495TIP3    H270977   4.862   0.284  12.535 -0.6807  0.5300  0.7273
16496TIP3   OH270978   5.543   2.277  15.429 -0.1020  0.3476 -0.0028
16496TIP3    H170979   5.457   2.304  15.462 -0.0998  0.9807 -0.4832
16496TIP3    H270980   5.589   2.359  15.415  0.6130  0.0057  0.3114
16497TIP3   OH270981   5.061   3.392  15.090 -0.4163  0.4058  0.2268
16497TIP3    H170982   5.114   3.362  15.016  0.5057  2.0221  0.1994
16497TIP3    H270983   4.971   3.370  15.065 -0.1330  0.9553 -1.3992
16498TIP3   OH270984   1.226   6.160   4.009 -0.0230 -0.3534  0.4538
16498TIP3    H170985   1.191   6.087   3.958  1.5261  0.3964 -1.8680
16498TIP3    H270986   1.196   6.238   3.963  0.9109  0.3878  1.0597
16499TIP3   OH270987   4.656   0.039  13.007 -0.6782  0.6649  0.2757
16499TIP3    H170988   4.575  -0.005  13.031 -2.4926  4.7739  2.7786
16499TIP3    H270989   4.628   0.112  12.951  1.2912  2.0343  0.9575
16500TIP3   OH270990   6.342   2.903  12.391 -0.3953 -0.3754  0.1653
16500TIP3    H170991   6.367   2.850  12.467  0.0324  0.7582  0.8412
16500TIP3    H270992   6.333   2.840  12.320  1.3216 -1.2134  0.6399
16501TIP3   OH270993   2.841   1.708  10.402  0.1202  0.1484  0.6063
16501TIP3    H170994   2.874   1.717  10.492 -0.1303  1.4798  0.5842
16501TIP3    H270995   2.889   1.633  10.367  2.3786  1.3554  0.9101
16502TIP3   OH270996   0.856   3.604  14.179 -0.4268 -0.1550  0.0807
16502TIP3    H170997   0.910   3.607  14.100  0.9586 -0.4357  0.9786
16502TIP3    H270998   0.852   3.512  14.203 -0.5299 -0.0373  0.5342
16503TIP3   OH270999   0.234   4.647  16.764 -0.0243  0.1381 -0.0776
16503TIP3    H171000   0.307   4.623  16.706 -0.3206  0.1482 -0.4580
16503TIP3    H271001   0.275   4.659  16.850  1.0001  3.3454 -0.8653
16504TIP3   OH271002   4.715   2.118   3.477  0.8689 -0.1879 -0.4507
16504TIP3    H171003   4.727   2.176   3.552 -1.2784  0.6148 -0.6625
16504TIP3    H271004   4.797   2.125   3.428  1.5519  0.8119  0.7707
16505TIP3   OH271005   1.724   2.642  11.718  0.3650  0.1212  0.8616
16505TIP3    H171006   1.745   2.555  11.752 -0.7770 -0.6463 -0.2854
16505TIP3    H271007   1.636   2.632  11.681 -1.0311  2.4991  3.2430
16506TIP3   OH271008   4.762   1.402  16.158 -0.4770  0.3169 -0.1938
16506TIP3    H171009   4.730   1.488  16.131  0.2991  1.4070  2.1042
16506TIP3    H271010   4.823   1.376  16.089 -2.2455  0.6168 -1.9494
16507TIP3   OH271011   3.200   5.601  16.546  0.2649  0.7199 -0.2843
16507TIP3    H171012   3.240   5.687  16.529 -0.3327  0.5742 -2.7858
16507TIP3    H271013   3.166   5.573  16.461 -0.4938 -1.5443  0.6908
16508TIP3   OH271014   3.250   1.434   0.964 -0.1704  0.1855  0.4463
16508TIP3    H171015   3.339   1.470   0.958  0.5004 -1.3141  1.0751
16508TIP3    H271016   3.260   1.351   1.010 -1.6037 -1.0769 -1.3695
16509TIP3   OH271017   4.558   6.425   6.278  0.0316 -0.0870 -0.3809
16509TIP3    H171018   4.559   6.403   6.185 -1.9983  0.7504 -0.6362
16509TIP3    H271019   4.504   6.358   6.319  1.7220 -1.0366  0.4105
16510TIP3   OH271020   1.791   3.151   4.103 -0.2185 -0.4222  0.5217
16510TIP3    H171021   1.885   3.134   4.090 -0.0829  0.4022  0.4013
16510TIP3    H271022   1.772   3.225   4.046 -1.1962 -1.2548 -0.2857
16511TIP3   OH271023   1.660   2.236   5.708 -0.1136 -0.0797  0.2473
16511TIP3    H171024   1.612   2.295   5.650  0.8417 -0.3839 -0.9004
16511TIP3    H271025   1.658   2.280   5.794 -0.5711  0.9493 -0.2714
16512TIP3   OH271026   3.164   5.190  11.245 -0.6284 -0.0259  0.0583
16512TIP3    H171027   3.252   5.199  11.209 -1.5983 -0.0003 -2.5392
16512TIP3    H271028   3.163   5.104  11.286 -0.1706 -1.3633 -2.5194
16513TIP3   OH271029   4.082   3.467   2.196  0.1627 -0.2688 -0.5431
16513TIP3    H171030   4.078   3.556   2.162 -1.8589  0.2806  0.9687
16513TIP3    H271031   4.069   3.476   2.291 -0.0740 -2.1653 -0.3505
16514TIP3   OH271032   3.848   3.771   3.907  0.3609 -0.1143 -0.0426
16514TIP3    H171033   3.869   3.717   3.832 -1.1267  0.4886 -0.9286
16514TIP3    H271034   3.766   3.734   3.942  0.6773  0.0192  0.8817
16515TIP3   OH271035   1.382   2.918  16.317 -0.5729  0.2831 -0.5067
16515TIP3    H171036   1.410   2.976  16.246 -0.7945 -0.0316 -0.8546
16515TIP3    H271037   1.318   2.969  16.367 -2.2481 -0.3171 -1.9503
16516TIP3   OH271038   1.908   3.196  16.278  0.3692 -0.0604 -0.7009
16516TIP3    H171039   1.889   3.103  16.283  0.0362  0.0713  1.1866
16516TIP3    H271040   1.834   3.233  16.230 -0.7975 -0.4613  0.7191
16517TIP3   OH271041   0.664   4.913   2.352 -0.1202  0.3811 -0.5838
16517TIP3    H171042   0.662   5.001   2.391 -2.5380  0.0478  0.1981
16517TIP3    H271043   0.755   4.886   2.359  0.1401  1.6333  1.9801
16518TIP3   OH271044   0.423   3.384  14.769  0.0115 -0.9955  0.1968
16518TIP3    H171045   0.424   3.379  14.865 -0.4564 -2.2842  0.1415
16518TIP3    H271046   0.409   3.477  14.751  2.1057 -0.3776  1.3491
16519TIP3   OH271047   0.929   2.959   3.661 -0.1763  0.1304  0.6586
16519TIP3    H171048   0.909   2.879   3.710 -1.3871 -0.7181 -1.1263
16519TIP3    H271049   1.019   2.947   3.631 -0.0170 -0.1207  1.2325
16520TIP3   OH271050   5.927   4.852  12.393  0.5948  0.1961  0.4125
16520TIP3    H171051   5.916   4.877  12.301  2.4662  1.1977  0.4074
16520TIP3    H271052   5.850   4.799  12.413  0.2430 -0.2159 -1.7926
16521TIP3   OH271053   6.469   5.182   0.365 -0.4994  0.2816 -0.3478
16521TIP3    H171054   6.383   5.205   0.329  0.3726  2.8673 -1.0027
16521TIP3    H271055   6.498   5.261   0.410  1.2602 -0.7721  0.4757
16522TIP3   OH271056   4.736   0.078  14.480 -0.5002  0.2619 -0.4212
16522TIP3    H171057   4.773   0.071  14.567 -0.9308 -0.6263 -0.2999
16522TIP3    H271058   4.762   0.166  14.450  1.9237 -0.4093 -0.4834
16523TIP3   OH271059   1.453   5.584  11.231  0.0574 -0.6349  0.2705
16523TIP3    H171060   1.483   5.565  11.320  0.1319 -0.6857  0.2351
16523TIP3    H271061   1.360   5.606  11.241  0.2668  0.1700  0.4645
16524TIP3   OH271062   0.199   3.326  14.493  0.6623 -0.0495  0.7219
16524TIP3    H171063   0.108   3.295  14.497  0.0976  1.3876 -0.1923
16524TIP3    H271064   0.227   3.310  14.403  0.5745  1.4048  0.4082
16525TIP3   OH271065   1.104   2.408  10.660  0.2605  0.1240 -0.4559
16525TIP3    H171066   1.047   2.332  10.647  1.2686 -1.3401  2.5943
16525TIP3    H271067   1.169   2.402  10.591 -1.8703  0.5451 -2.6289
16526TIP3   OH271068   5.144   3.608   1.880 -0.0430 -0.0097  0.2608
16526TIP3    H171069   5.156   3.600   1.975  1.5614 -1.4112 -0.0142
16526TIP3    H271070   5.204   3.678   1.855 -0.5669  0.4535  0.2733
16527TIP3   OH271071   1.466   6.284   4.647  0.0213 -0.0996  0.1580
16527TIP3    H171072   1.406   6.347   4.606 -0.6143 -1.5233 -1.2007
16527TIP3    H271073   1.410   6.212   4.675  0.8468 -0.4924  0.8571
16528TIP3   OH271074   5.898   1.074   3.341 -0.1126  0.3158  0.0284
16528TIP3    H171075   5.888   1.142   3.275  0.8605 -0.3636 -0.8512
16528TIP3    H271076   5.991   1.075   3.362 -0.5106  0.9667  1.9031
16529TIP3   OH271077   1.144   0.470   2.070  0.3162 -0.0954 -0.2711
16529TIP3    H171078   1.212   0.497   2.131  2.1503 -1.3864 -1.6355
16529TIP3    H271079   1.128   0.547   2.016  1.0822  0.0717 -0.2637
16530TIP3   OH271080   2.410   1.858   5.932  0.0117 -0.6313  0.1366
16530TIP3    H171081   2.337   1.877   5.874  0.9459  0.3393 -0.7750
16530TIP3    H271082   2.436   1.944   5.966  1.1951 -0.8533 -0.1568
16531TIP3   OH271083   2.188   4.298  14.121 -0.7114  0.4117  0.3916
16531TIP3    H171084   2.108   4.348  14.102 -1.3306 -1.0084 -1.0106
16531TIP3    H271085   2.164   4.208  14.100  1.6499  0.1117 -1.2941
16532TIP3   OH271086   4.738   0.903   5.013  0.4007  0.1128 -0.1765
16532TIP3    H171087   4.690   0.822   4.998  0.8513 -0.0598 -0.7638
16532TIP3    H271088   4.678   0.972   4.986  1.2075 -0.1841 -3.1409
16533TIP3   OH271089   1.072   3.317  13.071 -0.1621  0.3607  0.3761
16533TIP3    H171090   0.985   3.281  13.055  0.0528 -0.5006  1.0590
16533TIP3    H271091   1.056   3.393  13.127 -0.5334  0.6580 -0.1298
16534TIP3   OH271092   0.237   2.777   6.333 -0.6370 -0.2268  0.1806
16534TIP3    H171093   0.152   2.751   6.296 -0.7037  1.6519 -1.1045
16534TIP3    H271094   0.221   2.781   6.428 -1.8069 -0.5175  0.0121
16535TIP3   OH271095   2.997   2.291   0.991 -0.1421  0.5522 -0.5980
16535TIP3    H171096   3.060   2.288   1.063 -0.3631  0.2583 -0.4196
16535TIP3    H271097   2.920   2.246   1.024 -0.0225 -0.1407 -1.2399
16536TIP3   OH271098   5.400   3.107   5.731 -0.3310 -0.7159 -0.4952
16536TIP3    H171099   5.441   3.067   5.655  0.2453  0.5717 -0.8923
16536TIP3    H271100   5.395   3.037   5.796  1.2768 -1.2375 -0.9063
16537TIP3   OH271101   0.685   5.632  13.344  0.0824 -0.0581  0.1242
16537TIP3    H171102   0.704   5.581  13.265 -0.9923  0.3985 -0.4613
16537TIP3    H271103   0.681   5.723  13.313 -1.1054  0.0507  0.5441
16538TIP3   OH271104   1.639   6.294  11.290  0.2998 -0.1458  0.0653
16538TIP3    H171105   1.694   6.357  11.243  0.8623 -1.6717 -1.4466
16538TIP3    H271106   1.659   6.309  11.382  1.5044  0.8983 -0.3365
16539TIP3   OH271107   0.322   4.472  14.535 -0.1111  0.2862 -0.2649
16539TIP3    H171108   0.255   4.510  14.591 -0.3804 -1.6160  0.7896
16539TIP3    H271109   0.333   4.536  14.464 -2.6142  0.9035 -0.1957
16540TIP3   OH271110   2.654   1.181  14.992  0.4562  0.0086  0.0410
16540TIP3    H171111   2.747   1.164  14.979  0.4348 -1.5901  1.7140
16540TIP3    H271112   2.617   1.097  15.017 -1.6606  0.3830 -1.5457
16541TIP3   OH271113   5.282   5.422   1.840 -0.0393  0.0517 -0.0446
16541TIP3    H171114   5.260   5.357   1.773  0.7467 -1.2527  0.9254
16541TIP3    H271115   5.324   5.493   1.791  1.1668 -1.1828 -0.8874
16542TIP3   OH271116   3.464   4.463   2.009 -0.1421 -0.3509  0.5384
16542TIP3    H171117   3.393   4.481   1.948  0.0326 -0.5958  0.2602
16542TIP3    H271118   3.450   4.524   2.081  0.4123  0.8712 -0.3643
16543TIP3   OH271119   2.685   0.160   0.226  0.2007  0.1367 -0.2138
16543TIP3    H171120   2.667   0.118   0.142  0.1200 -2.0869  0.8333
16543TIP3    H271121   2.743   0.233   0.204  0.1927 -0.3857 -2.1944
16544TIP3   OH271122   0.310   1.471   0.653 -0.8674 -0.1369  0.0177
16544TIP3    H171123   0.284   1.547   0.601 -2.2961 -0.6917 -0.1327
16544TIP3    H271124   0.405   1.469   0.647 -0.9375  0.3204 -1.8404
16545TIP3   OH271125   1.128   2.034   3.213 -0.0985  0.1177 -0.5767
16545TIP3    H171126   1.086   1.948   3.208  2.0832 -0.9190 -2.5219
16545TIP3    H271127   1.055   2.096   3.211 -1.6390 -1.6236 -1.5248
16546TIP3   OH271128   2.515   2.497  12.080  0.2893 -0.2453  0.2840
16546TIP3    H171129   2.548   2.585  12.062 -5.6935  1.9896 -2.2060
16546TIP3    H271130   2.554   2.443  12.011  0.2411  1.6882 -1.3557
16547TIP3   OH271131   1.404   5.879   5.069 -0.0965 -0.4078  0.0390
16547TIP3    H171132   1.405   5.919   4.981  0.3405  1.0220  0.6561
16547TIP3    H271133   1.340   5.808   5.062 -0.4172 -0.0274 -1.3130
16548TIP3   OH271134   2.800   6.251   4.101 -0.1479  0.3776 -0.0692
16548TIP3    H171135   2.856   6.292   4.168  0.9386 -0.6179 -0.3299
16548TIP3    H271136   2.850   6.174   4.073 -0.2436  1.1152 -2.4856
16549TIP3   OH271137   5.710   3.048   2.930  0.6115  0.0315  0.2931
16549TIP3    H171138   5.697   3.132   2.973  1.3531  0.1585  0.2871
16549TIP3    H271139   5.801   3.051   2.899  1.4659 -1.7245  2.3906
16550TIP3   OH271140   0.470   3.202  13.681  0.7867  0.2039 -0.3804
16550TIP3    H171141   0.497   3.294  13.675 -1.1466  1.0242  1.7919
16550TIP3    H271142   0.542   3.158  13.725 -0.0530  1.7925  2.9696
16551TIP3   OH271143   1.187   0.293   3.667  0.2164  0.3908  0.1623
16551TIP3    H171144   1.098   0.309   3.698  0.6748  2.3059  0.6519
16551TIP3    H271145   1.237   0.273   3.746  0.5338  0.9652  0.1128
16552TIP3   OH271146   4.844   3.581   6.361  0.5753  0.1281  0.3155
16552TIP3    H171147   4.841   3.496   6.317  0.1946  0.4246 -0.2465
16552TIP3    H271148   4.801   3.641   6.300 -0.6336  0.4072  1.4091
16553TIP3   OH271149   3.789   0.469   4.985 -0.1482 -0.1880 -0.1447
16553TIP3    H171150   3.822   0.558   4.974 -0.8620  0.0813 -0.2202
16553TIP3    H271151   3.739   0.472   5.066 -0.6574 -0.3591 -0.4437
16554TIP3   OH271152   3.699   1.316  14.749 -0.1444  0.3277  0.1810
16554TIP3    H171153   3.736   1.291  14.665  1.8453  3.5278 -0.0597
16554TIP3    H271154   3.757   1.275  14.814 -1.1957 -1.4510  0.0729
16555TIP3   OH271155   0.223   4.284   4.408 -0.4013 -0.0444 -0.3000
16555TIP3    H171156   0.145   4.260   4.458 -0.9912 -0.9035 -1.5827
16555TIP3    H271157   0.250   4.369   4.444 -1.3510 -0.1972  0.8145
16556TIP3   OH271158   0.499   0.252   4.055  0.6440  0.2464  0.4776
16556TIP3    H171159   0.591   0.238   4.075 -0.0678 -0.8743  3.6329
16556TIP3    H271160   0.475   0.330   4.106  0.0333  1.0978 -1.0666
16557TIP3   OH271161   5.764   1.994  12.730 -0.4743 -0.2564 -0.4531
16557TIP3    H171162   5.742   1.998  12.636 -2.9428 -0.1856  0.0637
16557TIP3    H271163   5.749   1.903  12.754  0.9288 -0.4619 -0.2387
16558TIP3   OH271164   4.859   5.125   1.177  0.1256  0.3116  0.5423
16558TIP3    H171165   4.858   5.093   1.268  0.8106 -0.2029  0.3706
16558TIP3    H271166   4.777   5.174   1.169  0.8613  1.8687  1.9708
16559TIP3   OH271167   6.389   3.891   3.153 -0.4305  0.2692 -0.2803
16559TIP3    H171168   6.344   3.929   3.228 -0.9599  2.8825 -1.8149
16559TIP3    H271169   6.321   3.880   3.086  0.3632 -0.2401 -1.0349
16560TIP3   OH271170   1.311   3.375   0.546  0.4524 -0.5339  0.6410
16560TIP3    H171171   1.354   3.458   0.524 -0.2246  0.4276  2.7338
16560TIP3    H271172   1.320   3.323   0.466  1.7788  1.1587 -0.4139
16561TIP3   OH271173   2.039   2.808  12.299 -0.2561  0.3836  0.6023
16561TIP3    H171174   2.000   2.884  12.256 -2.9363 -1.0869  0.1530
16561TIP3    H271175   2.081   2.759  12.228 -0.8654  0.1542  0.3856
16562TIP3   OH271176   1.691   6.505  10.468 -0.3085 -0.2616 -0.3304
16562TIP3    H171177   1.774   6.548  10.485 -0.9147 -0.0893  3.0257
16562TIP3    H271178   1.711   6.435  10.406  2.2218  0.0624  0.0416
16563TIP3   OH271179   4.056   0.308  16.018 -0.7196 -0.1446 -0.6937
16563TIP3    H171180   4.085   0.399  16.021  0.7631 -0.5924 -0.4301
16563TIP3    H271181   3.995   0.299  16.091  0.1016  0.3369  0.0744
16564TIP3   OH271182   3.155   2.651  15.482 -0.3954 -0.7910 -0.7091
16564TIP3    H171183   3.161   2.696  15.397  2.0221 -0.8887 -0.6651
16564TIP3    H271184   3.128   2.719  15.543 -3.1489 -0.9207 -1.6265
16565TIP3   OH271185   3.163   1.049  13.552  0.6018  0.1401  0.3645
16565TIP3    H171186   3.122   1.110  13.492  0.3421 -0.5298 -0.1497
16565TIP3    H271187   3.180   1.101  13.631  0.3013  0.8444 -0.0237
16566TIP3   OH271188   1.437   0.104  13.018  0.5241  0.2561  0.0154
16566TIP3    H171189   1.379   0.053  12.962  0.7969 -0.4925  0.3962
16566TIP3    H271190   1.457   0.183  12.968 -0.9388  0.5981 -0.0482
16567TIP3   OH271191   5.952   3.372  16.867 -0.2909  0.1299 -0.7178
16567TIP3    H171192   6.027   3.314  16.884 -0.3616 -0.0184 -0.8964
16567TIP3    H271193   5.893   3.358  16.940  0.6765  1.6328  0.4033
16568TIP3   OH271194   2.072   3.278  13.682  0.2458 -0.0952  0.2179
16568TIP3    H171195   2.082   3.236  13.767  1.9922 -1.3208 -0.5367
16568TIP3    H271196   1.988   3.245  13.649 -0.4454  0.3825  1.4228
16569TIP3   OH271197   4.288   1.933   5.277 -0.7648  0.1526  0.1771
16569TIP3    H171198   4.358   1.869   5.268 -0.4358  0.5404 -0.0400
16569TIP3    H271199   4.332   2.018   5.274 -1.2930  0.4118 -0.4381
16570TIP3   OH271200   3.101   5.627   2.336 -0.2957  0.1784  0.3021
16570TIP3    H171201   3.063   5.710   2.366 -1.9598  0.6039 -2.6072
16570TIP3    H271202   3.040   5.560   2.368 -2.6179  0.7008 -2.6339
16571TIP3   OH271203   6.827   5.547   6.103  0.5907 -0.2088 -0.3571
16571TIP3    H171204   6.854   5.539   6.194  1.5177 -0.2116 -0.6232
16571TIP3    H271205   6.857   5.635   6.077  1.6779 -0.7692 -1.0813
16572TIP3   OH271206   2.913   6.357  16.759 -0.1588  0.0932 -0.4350
16572TIP3    H171207   2.838   6.299  16.750  0.2338 -0.3152 -1.1230
16572TIP3    H271208   2.875   6.444  16.774 -0.7460 -0.3334  0.6354
16573TIP3   OH271209   0.378   5.538  16.879 -0.2386 -0.2044  0.0961
16573TIP3    H171210   0.353   5.448  16.900 -1.0434  0.2601  1.2023
16573TIP3    H271211   0.419   5.571  16.958  1.4046 -0.0401 -0.7836
16574TIP3   OH271212   1.980   4.809  12.793 -0.0031  0.2051  0.2373
16574TIP3    H171213   1.908   4.853  12.837 -0.4110 -0.3462  0.1410
16574TIP3    H271214   2.058   4.854  12.823 -0.4611  1.6010 -0.5723
16575TIP3   OH271215   5.051   3.673  13.508  0.2861  0.0930 -0.0438
16575TIP3    H171216   5.126   3.629  13.468 -1.2173 -2.5394 -0.1241
16575TIP3    H271217   5.054   3.647  13.600  0.3223  1.2540  0.2993
16576TIP3   OH271218   4.230   6.169  15.801  0.3092 -0.3442 -0.0302
16576TIP3    H171219   4.200   6.243  15.747 -0.4224 -1.7669 -1.6842
16576TIP3    H271220   4.154   6.111  15.806  0.5285 -0.5082  2.1715
16577TIP3   OH271221   3.409   5.108  15.864  0.2156 -0.7832  0.5028
16577TIP3    H171222   3.400   5.131  15.772 -0.5877  1.2656  1.0422
16577TIP3    H271223   3.432   5.015  15.863 -1.9730 -1.4145 -1.7130
16578TIP3   OH271224   0.910   5.803  15.964  0.6083  0.1639  0.5594
16578TIP3    H171225   0.941   5.764  16.046  2.5183 -0.8268 -0.5635
16578TIP3    H271226   0.860   5.733  15.922  0.5948  0.2951  0.3567
16579TIP3   OH271227   1.931   4.204  17.051 -0.0906  0.7889  0.4614
16579TIP3    H171228   1.912   4.172  17.139  0.6317 -0.9500  0.0354
16579TIP3    H271229   2.027   4.208  17.048 -0.0844  0.2989 -0.3912
16580TIP3   OH271230   3.131   3.813  11.358  0.0147 -0.1322  0.0748
16580TIP3    H171231   3.061   3.756  11.327  0.1647 -0.4126  0.2413
16580TIP3    H271232   3.123   3.810  11.454  0.5837 -0.5932  0.1152
16581TIP3   OH271233   1.414   6.108  16.149 -0.3491  0.4111  0.3030
16581TIP3    H171234   1.470   6.184  16.135  4.1173 -2.5905 -0.0900
16581TIP3    H271235   1.439   6.076  16.237 -0.9370 -1.3907 -0.1355
16582TIP3   OH271236   6.067   6.850  15.139  0.3679  0.0597  0.2576
16582TIP3    H171237   6.067   6.944  15.154 -0.5915  0.2878 -0.9738
16582TIP3    H271238   6.138   6.817  15.193  1.0009  1.5408  0.3829
16583TIP3   OH271239   2.856   2.075   1.259  0.0041 -0.0137 -0.1031
16583TIP3    H171240   2.815   2.060   1.173  0.0644 -0.8936  0.0103
16583TIP3    H271241   2.786   2.058   1.322 -0.5588  2.4165  0.0004
16584TIP3   OH271242   1.092   4.374  14.682 -0.4372 -0.4519 -0.2073
16584TIP3    H171243   1.146   4.369  14.761  0.8918  0.6860 -0.9899
16584TIP3    H271244   1.015   4.321  14.702 -0.6526  0.6447  2.2655
16585TIP3   OH271245   1.335   3.231  13.184 -0.8186  0.3758 -0.7037
16585TIP3    H171246   1.278   3.278  13.123 -2.1541  0.3428  0.4512
16585TIP3    H271247   1.359   3.151  13.137 -1.0710  0.7725 -1.5236
16586TIP3   OH271248   5.252   4.024   5.724  0.0618 -0.3241 -0.2547
16586TIP3    H171249   5.202   3.947   5.752  1.5991 -0.8650  1.2468
16586TIP3    H271250   5.227   4.093   5.785 -0.4213  0.0406 -0.8504
16587TIP3   OH271251   5.556   2.826  16.498 -0.0837 -0.1349  0.0841
16587TIP3    H171252   5.601   2.898  16.542 -1.6107  2.0581 -1.7104
16587TIP3    H271253   5.626   2.770  16.464  1.1853  1.2862  0.2896
16588TIP3   OH271254   2.286   2.208  15.120 -0.6450 -0.7952 -0.0385
16588TIP3    H171255   2.349   2.272  15.086 -2.3793  1.1382  0.1874
16588TIP3    H271256   2.327   2.174  15.199  0.5201 -0.2778 -0.3895
16589TIP3   OH271257   0.309   5.370   0.838 -0.2241 -0.1375 -0.4576
16589TIP3    H171258   0.313   5.414   0.924 -0.5829 -0.0357 -0.4901
16589TIP3    H271259   0.398   5.338   0.823 -0.6637 -2.3801  1.1179
16590TIP3   OH271260   3.414   1.681  12.029  0.2657 -0.3541 -0.0564
16590TIP3    H171261   3.488   1.708  12.083  0.4885 -0.0664 -0.4943
16590TIP3    H271262   3.446   1.605  11.981  0.4934  0.1421 -0.7067
16591TIP3   OH271263   0.229   4.846  15.768 -0.4342  0.0290 -0.2315
16591TIP3    H171264   0.300   4.892  15.722  0.6801 -2.1390 -0.8120
16591TIP3    H271265   0.149   4.877  15.725  0.4390 -0.3981 -2.3144
16592TIP3   OH271266   4.889   6.847   3.416 -0.1467 -0.3587 -0.1791
16592TIP3    H171267   4.807   6.834   3.368 -1.6581  0.5756  1.9824
16592TIP3    H271268   4.889   6.778   3.482  0.0454  0.5203  0.7640
16593TIP3   OH271269   4.074   2.048   5.808 -0.1339  0.1873 -0.1433
16593TIP3    H171270   4.146   2.066   5.748 -0.4102  2.2312  0.0665
16593TIP3    H271271   4.109   2.068   5.895 -0.5637 -0.0732  0.0935
16594TIP3   OH271272   0.382   2.671  16.881 -0.2737 -0.3629  0.5696
16594TIP3    H171273   0.441   2.625  16.822  0.0895 -0.1950  0.7947
16594TIP3    H271274   0.437   2.738  16.923 -0.6413 -0.1493  0.7222
16595TIP3   OH271275   3.423   4.137   1.533 -0.6042  0.0064  0.8158
16595TIP3    H171276   3.378   4.088   1.602 -1.7396  0.0944  0.1598
16595TIP3    H271277   3.436   4.224   1.571 -0.5960 -0.1494  1.1751
16596TIP3   OH271278   0.626   1.188  15.606  0.2576  0.2219  0.1119
16596TIP3    H171279   0.704   1.189  15.550  0.9236 -0.0159  1.0101
16596TIP3    H271280   0.613   1.095  15.627 -0.5759  0.2044 -0.4390
16597TIP3   OH271281   5.238   2.802   2.658  0.4251  0.3355 -0.5799
16597TIP3    H171282   5.196   2.768   2.737 -0.3604 -0.0435 -1.1380
16597TIP3    H271283   5.292   2.875   2.688  0.7876 -0.3215  0.4097
16598TIP3   OH271284   3.517   6.283  12.153 -0.8927  0.0589 -0.1190
16598TIP3    H171285   3.480   6.370  12.171 -1.7581 -0.7147  2.2697
16598TIP3    H271286   3.441   6.228  12.136 -0.3802 -0.3491 -1.1280
16599TIP3   OH271287   5.663   4.402  13.848  0.1635  0.4778  0.5010
16599TIP3    H171288   5.622   4.370  13.928  1.3654  0.6911  1.2202
16599TIP3    H271289   5.626   4.489  13.835 -0.2467  0.3297  0.6501
16600TIP3   OH271290   1.469   2.444   1.772  0.0172  0.2466 -0.9173
16600TIP3    H171291   1.383   2.448   1.815 -0.1358 -0.2903 -1.1721
16600TIP3    H271292   1.521   2.386   1.828  0.4122  1.0347 -0.4355
16601TIP3   OH271293   5.784   2.585  14.305 -0.8031 -0.4275 -0.0478
16601TIP3    H171294   5.797   2.499  14.345 -2.8418 -0.7163  0.0926
16601TIP3    H271295   5.789   2.647  14.379 -1.6034 -0.6759  0.2312
16602TIP3   OH271296   2.767   5.820  16.290  0.3560  0.0471  0.0894
16602TIP3    H171297   2.753   5.741  16.342  0.1093  0.3221  0.4424
16602TIP3    H271298   2.862   5.835  16.294  0.5800 -0.9104 -0.9819
16603TIP3   OH271299   1.748   2.492  15.390 -0.0847 -0.7928  0.5669
16603TIP3    H171300   1.832   2.526  15.420  0.2651 -1.0861 -0.0665
16603TIP3    H271301   1.770   2.432  15.319 -0.9649  1.1157 -1.4359
16604TIP3   OH271302   3.419   3.063   4.502  0.2545 -0.2828  0.3835
16604TIP3    H171303   3.455   3.110   4.427 -1.3976  2.1318  0.9583
16604TIP3    H271304   3.494   3.044   4.558  1.1932  0.1026 -0.7261
16605TIP3   OH271305   6.191   5.388   3.939 -0.2381  0.3676  0.4674
16605TIP3    H171306   6.231   5.328   4.002 -1.1841  0.1007  0.8322
16605TIP3    H271307   6.261   5.407   3.877 -0.0413 -1.4971  0.0504
16606TIP3   OH271308   6.757   0.247   5.266 -0.3547 -0.0069 -0.4501
16606TIP3    H171309   6.806   0.171   5.298  0.6562  0.4419 -0.8836
16606TIP3    H271310   6.729   0.221   5.178  1.3346  0.6675 -1.2277
16607TIP3   OH271311   1.534   3.940   1.806  0.0989 -0.2824  0.2851
16607TIP3    H171312   1.443   3.951   1.834  0.2417 -1.3376  1.2357
16607TIP3    H271313   1.535   3.967   1.714 -1.2156 -0.4552  0.2084
16608TIP3   OH271314   5.825   1.150  15.819  0.0725 -0.0706 -0.3045
16608TIP3    H171315   5.881   1.115  15.889  1.6666  2.1532 -0.3629
16608TIP3    H271316   5.760   1.203  15.865  1.8605  2.4035 -0.4286
16609TIP3   OH271317   4.483   0.617  12.487 -0.2247 -0.1337  0.2682
16609TIP3    H171318   4.552   0.559  12.455 -1.5749 -1.3212 -0.6393
16609TIP3    H271319   4.468   0.679  12.415 -1.7461 -1.4271 -0.5981
16610TIP3   OH271320   3.467   6.226   4.162  0.0076  0.2974  0.1671
16610TIP3    H171321   3.426   6.249   4.246  1.3847  0.6427  0.7691
16610TIP3    H271322   3.535   6.162   4.185 -0.6434 -0.8352 -0.9029
16611TIP3   OH271323   6.349   6.459   3.230 -0.0560  0.1537 -0.3900
16611TIP3    H171324   6.306   6.374   3.225 -0.2068  0.2836 -1.6874
16611TIP3    H271325   6.380   6.475   3.141 -0.1406  1.5199 -0.1904
16612TIP3   OH271326   3.479   1.548  13.577  0.2076 -0.6962  0.2603
16612TIP3    H171327   3.419   1.622  13.582 -1.4968 -1.7651 -2.1258
16612TIP3    H271328   3.422   1.471  13.578  1.5948 -1.8135 -0.9795
16613TIP3   OH271329   2.778   0.134  15.627  0.4296  0.6579 -0.2431
16613TIP3    H171330   2.800   0.197  15.695  0.0001 -0.3255  0.8392
16613TIP3    H271331   2.688   0.108  15.647  0.2361  0.4823 -1.2985
16614TIP3   OH271332   5.711   1.805  16.781 -0.7838  0.0479 -0.1166
16614TIP3    H171333   5.784   1.829  16.837 -0.8254  0.1570 -0.1072
16614TIP3    H271334   5.659   1.886  16.774 -0.3026  0.3027 -1.0374
16615TIP3   OH271335   2.602   6.289   4.292 -0.4921 -0.6590  0.3580
16615TIP3    H171336   2.669   6.267   4.357 -0.2034  1.8147  0.9882
16615TIP3    H271337   2.649   6.292   4.209 -0.3667 -1.4337  0.3904
16616TIP3   OH271338   4.496   0.115   4.893 -0.0305 -0.2980 -0.2507
16616TIP3    H171339   4.461   0.196   4.930  2.1638  0.7337 -0.2758
16616TIP3    H271340   4.426   0.081   4.838 -1.6993  0.5630  1.2494
16617TIP3   OH271341   4.663   6.311   5.720  0.2849  0.0055  0.1933
16617TIP3    H171342   4.708   6.291   5.638 -0.5396  1.9372 -0.7782
16617TIP3    H271343   4.603   6.238   5.733  1.2705 -0.9206 -0.2444
16618TIP3   OH271344   2.489   1.525   0.320 -0.2629  0.0426  0.3161
16618TIP3    H171345   2.504   1.447   0.374  0.3306 -1.8817 -2.4212
16618TIP3    H271346   2.398   1.550   0.339 -0.6198 -1.6145  0.9452
16619TIP3   OH271347   0.434   1.756  13.005  0.3298 -0.7453  0.1808
16619TIP3    H171348   0.500   1.793  12.946  2.1981 -3.0902  0.6129
16619TIP3    H271349   0.463   1.783  13.092 -0.2805 -0.3961  0.2816
16620TIP3   OH271350   0.319   0.734   1.474 -0.0044  0.0838  0.1748
16620TIP3    H171351   0.251   0.788   1.434  1.0862  1.6147  0.2747
16620TIP3    H271352   0.272   0.682   1.540 -1.1213  0.8670  0.0380
16621TIP3   OH271353   6.535   2.445   2.110  0.3068  0.2360 -0.2259
16621TIP3    H171354   6.626   2.414   2.109  1.3718  2.6996  2.8920
16621TIP3    H271355   6.540   2.531   2.068 -0.8661 -0.1199 -1.1177
16622TIP3   OH271356   0.879   0.584  13.378 -0.1860 -0.2422  0.0576
16622TIP3    H171357   0.847   0.494  13.375  2.0703 -1.1397  0.3509
16622TIP3    H271358   0.905   0.603  13.288 -4.2490  1.6810 -0.9307
16623TIP3   OH271359   3.818   3.370  14.946  0.0574  0.3495  0.2273
16623TIP3    H171360   3.798   3.434  14.878 -0.4499  0.6407  0.6417
16623TIP3    H271361   3.884   3.313  14.907  0.9673  1.4866  0.0589
16624TIP3   OH271362   2.102   1.432  11.270  0.0322 -0.2877  0.1728
16624TIP3    H171363   2.100   1.386  11.354 -2.3585  1.7766  1.3786
16624TIP3    H271364   2.060   1.372  11.209 -1.2762 -0.5114  1.2548
16625TIP3   OH271365   2.636   6.057  12.245 -0.0222  0.1637  0.0295
16625TIP3    H171366   2.622   6.025  12.156  1.0513 -0.7046  0.1639
16625TIP3    H271367   2.553   6.040  12.290 -0.1389 -0.5819 -0.4552
16626TIP3   OH271368   4.107   1.680  11.449  0.1527  0.0099 -0.1688
16626TIP3    H171369   4.040   1.654  11.513  0.6613  0.2259  0.4572
16626TIP3    H271370   4.190   1.651  11.487  0.5191  0.6785 -0.4402
16627TIP3   OH271371   6.730   1.682  15.808 -0.3845  0.5442  0.7028
16627TIP3    H171372   6.679   1.759  15.785  2.5702  2.2147 -0.7582
16627TIP3    H271373   6.744   1.637  15.725 -0.9687 -0.9377  1.3608
16628TIP3   OH271374   0.075   5.517   5.758 -0.2003  0.3492 -0.5194
16628TIP3    H171375   0.044   5.427   5.774 -0.0246  0.6617  1.8288
16628TIP3    H271376  -0.005   5.570   5.762 -0.2279  0.3842 -1.3527
16629TIP3   OH271377   4.453   0.493   0.742 -0.6820 -0.0231 -0.1089
16629TIP3    H171378   4.514   0.420   0.753  1.8548  1.8617 -0.7374
16629TIP3    H271379   4.490   0.564   0.794 -2.2834  1.2429 -0.6187
16630TIP3   OH271380   1.871   3.254   2.940  0.1647 -0.0223  0.3511
16630TIP3    H171381   1.899   3.196   2.869 -2.8672 -2.7563  1.1144
16630TIP3    H271382   1.790   3.294   2.908 -0.7334 -0.5669  1.8385
16631TIP3   OH271383   1.537   3.647   0.634 -0.3079  0.0198 -0.1647
16631TIP3    H171384   1.536   3.641   0.539  0.7147  1.5839 -0.3179
16631TIP3    H271385   1.628   3.628   0.658 -0.3676  0.4484  0.4267
16632TIP3   OH271386   4.218   0.795  14.491  0.5941 -0.0418  0.3480
16632TIP3    H171387   4.264   0.791  14.408 -1.6317  1.1561 -1.0474
16632TIP3    H271388   4.140   0.741  14.478  0.4930 -0.3041  1.8652
16633TIP3   OH271389   3.462   2.091   5.593  0.5569  0.1057 -0.3793
16633TIP3    H171390   3.551   2.111   5.623  0.8812 -0.5224 -0.9039
16633TIP3    H271391   3.472   2.015   5.536 -0.4449 -0.6083  0.3505
16634TIP3   OH271392   4.618   4.057  14.128 -0.0824  0.8861 -0.3399
16634TIP3    H171393   4.574   4.122  14.073 -3.4301  1.2524  2.4170
16634TIP3    H271394   4.641   4.105  14.208  0.9236 -0.4954  0.2326
16635TIP3   OH271395   4.250   4.953   4.424  0.3348 -0.0869  0.4350
16635TIP3    H171396   4.248   5.017   4.494  2.0062  1.4432 -0.8161
16635TIP3    H271397   4.305   4.993   4.356 -0.3561 -1.9169 -1.3221
16636TIP3   OH271398   5.014   6.686  15.554  0.2855 -0.3513  0.8690
16636TIP3    H171399   4.951   6.657  15.620  0.3740  0.6485  1.3971
16636TIP3    H271400   5.098   6.689  15.600  0.7363 -1.5638  0.1981
16637TIP3   OH271401   3.369   3.956  13.558 -0.3476  0.6759  0.0376
16637TIP3    H171402   3.444   3.976  13.503  0.7038 -0.3531  1.0430
16637TIP3    H271403   3.303   3.923  13.497  0.0996  1.3200 -0.8217
16638TIP3   OH271404   4.915   0.904  13.783  0.5729 -0.3011  0.3719
16638TIP3    H171405   4.885   0.974  13.841  0.9094 -1.2937  1.7706
16638TIP3    H271406   4.886   0.932  13.696  2.2141  2.4636  0.5924
16639TIP3   OH271407   1.769   1.485  12.765  0.2552  0.7920 -0.4738
16639TIP3    H171408   1.679   1.457  12.781 -0.2235  1.5491 -1.6959
16639TIP3    H271409   1.823   1.413  12.798 -0.7310  0.8917  1.4617
16640TIP3   OH271410   2.052   3.065  15.644  0.4246  0.5462 -0.0992
16640TIP3    H171411   2.133   3.050  15.692 -0.1579  0.4367  0.8616
16640TIP3    H271412   2.073   3.042  15.553  1.3478  0.1385  0.2118
16641TIP3   OH271413   0.163   0.462  15.655 -0.1436  0.2921 -0.0144
16641TIP3    H171414   0.072   0.439  15.636 -1.3228  3.7374  0.7523
16641TIP3    H271415   0.208   0.453  15.571 -1.7020  0.6172 -0.9308
16642TIP3   OH271416   5.662   4.749  11.347  0.3037 -0.1660 -0.4732
16642TIP3    H171417   5.737   4.780  11.398 -0.2790  0.7032 -0.1082
16642TIP3    H271418   5.650   4.658  11.373 -1.1276  0.7341  2.4142
16643TIP3   OH271419   0.630   4.377   1.170  0.4760  0.0004 -0.5307
16643TIP3    H171420   0.555   4.324   1.142 -0.3883  0.2290  1.2195
16643TIP3    H271421   0.590   4.456   1.208  1.7044  1.9019 -2.8676
16644TIP3   OH271422   3.615   0.006  11.361  0.4121  0.3206 -0.7038
16644TIP3    H171423   3.563  -0.047  11.301  1.2144 -0.3019 -0.8661
16644TIP3    H271424   3.679   0.050  11.305  1.8614 -1.0944 -0.2149
16645TIP3   OH271425   2.386   3.770   6.213  0.0866 -0.3509 -0.1552
16645TIP3    H171426   2.315   3.789   6.152  0.1448 -0.3017 -0.2076
16645TIP3    H271427   2.345   3.774   6.300  0.5451  2.4076  0.0364
16646TIP3   OH271428   0.857   3.433   0.449  0.2188  0.2100 -0.2566
16646TIP3    H171429   0.922   3.496   0.481  0.9327 -0.3500 -0.5703
16646TIP3    H271430   0.909   3.361   0.412 -0.5807 -0.3319 -0.3619
16647TIP3   OH271431   6.288   4.284  15.628 -0.0990  0.2798  0.0790
16647TIP3    H171432   6.293   4.377  15.652 -1.1327 -0.2453  2.7230
16647TIP3    H271433   6.342   4.240  15.694 -0.3046 -1.0722 -0.6306
16648TIP3   OH271434   5.692   5.855   3.021 -0.1633  0.6493  0.3006
16648TIP3    H171435   5.752   5.925   3.045 -0.9715  1.3919  0.2096
16648TIP3    H271436   5.654   5.884   2.938 -1.1636  0.5325  0.7048
16649TIP3   OH271437   2.307   1.600   0.531  0.0120  0.0626 -0.1475
16649TIP3    H171438   2.366   1.673   0.547 -0.2047  0.5427 -1.4036
16649TIP3    H271439   2.233   1.638   0.484 -0.5298 -0.8066 -0.0259
16650TIP3   OH271440   1.236   1.408  14.018 -0.3325 -0.4180  0.7165
16650TIP3    H171441   1.311   1.435  13.966 -2.2143  0.9463 -1.4584
16650TIP3    H271442   1.235   1.469  14.092  0.4678 -0.2239  0.5809
16651TIP3   OH271443   6.012   3.859  15.280  0.0644  0.1703 -0.1154
16651TIP3    H171444   6.042   3.808  15.355 -0.9299 -0.5877 -0.2155
16651TIP3    H271445   6.061   3.823  15.205  0.0375 -0.0132 -0.0437
16652TIP3   OH271446   6.137   5.411  14.496  0.3527  0.8626  0.2266
16652TIP3    H171447   6.202   5.341  14.503  1.2639  1.8080  2.2971
16652TIP3    H271448   6.176   5.484  14.545 -1.8926  1.7722  0.7648
16653TIP3   OH271449   6.431   3.542   4.007  0.1172  0.0896  0.1206
16653TIP3    H171450   6.436   3.599   3.931  2.0370 -0.3223 -0.1249
16653TIP3    H271451   6.398   3.459   3.973  0.6542  0.0068 -0.2053
16654TIP3   OH271452   3.603   4.527   2.662 -0.2639 -0.8069  0.2586
16654TIP3    H171453   3.625   4.561   2.749  0.5268 -2.2837  0.6646
16654TIP3    H271454   3.657   4.448   2.653 -1.5251 -1.5629 -0.9301
16655TIP3   OH271455   4.745   3.151   0.606  0.5328  0.3580  0.0106
16655TIP3    H171456   4.705   3.152   0.693 -0.2099 -0.5443 -0.2953
16655TIP3    H271457   4.682   3.197   0.550 -0.4057 -1.5669 -0.5877
16656TIP3   OH271458   6.129   4.686  12.834 -0.4109  0.3243  0.1205
16656TIP3    H171459   6.145   4.656  12.924 -0.0152 -1.1208 -0.3946
16656TIP3    H271460   6.049   4.737  12.840 -0.0978  0.7100  1.3859
16657TIP3   OH271461   0.501   3.257   4.511  0.4952 -0.4065  0.1216
16657TIP3    H171462   0.503   3.352   4.521 -0.1705 -0.3950  0.2272
16657TIP3    H271463   0.589   3.233   4.482  1.0914  0.0944  1.4401
16658TIP3   OH271464   4.201   2.278  15.651 -0.1919  0.0301 -0.2379
16658TIP3    H171465   4.132   2.282  15.717 -0.3539  1.5618 -0.4638
16658TIP3    H271466   4.162   2.230  15.578 -0.0819 -1.4884  0.6488
16659TIP3   OH271467   0.188   2.804   2.055  0.8096 -1.0421  0.3377
16659TIP3    H171468   0.264   2.753   2.081  1.7114 -0.4603 -1.0281
16659TIP3    H271469   0.219   2.894   2.048  0.8494 -1.1645 -3.0143
16660TIP3   OH271470   0.763   3.045   0.638  0.3999 -0.3741 -0.4760
16660TIP3    H171471   0.746   2.974   0.576 -1.0064 -0.7825  0.3137
16660TIP3    H271472   0.847   3.081   0.611  0.6775 -1.6962 -1.5114
16661TIP3   OH271473   3.531   4.452  13.442 -0.8655 -0.6140  0.7099
16661TIP3    H171474   3.572   4.501  13.513 -1.5839 -0.1960  0.8536
16661TIP3    H271475   3.530   4.361  13.473 -0.6689 -0.5197  0.9960
16662TIP3   OH271476   6.792   1.327   3.424  0.2483  0.5544  0.2285
16662TIP3    H171477   6.762   1.322   3.334  2.7907 -1.2292 -0.6188
16662TIP3    H271478   6.836   1.412   3.431  0.0137  0.7109 -0.1848
16663TIP3   OH271479   4.227   5.695   3.722 -0.5261 -0.5052  0.1701
16663TIP3    H171480   4.152   5.745   3.755 -1.2833 -1.4962  0.0063
16663TIP3    H271481   4.252   5.741   3.642 -1.5610 -0.6866 -0.2753
16664TIP3   OH271482   3.398   4.504  14.761  0.0245 -0.7418 -0.6277
16664TIP3    H171483   3.381   4.554  14.840 -0.0832 -0.8664 -0.5723
16664TIP3    H271484   3.481   4.459  14.779 -0.4027 -1.3953 -0.2765
16665TIP3   OH271485   6.671   6.229  14.643  0.1303  0.1638 -0.4762
16665TIP3    H171486   6.698   6.307  14.692  1.8005 -0.2009 -0.7695
16665TIP3    H271487   6.639   6.263  14.559  2.5307  0.4676 -1.3276
16666TIP3   OH271488   1.257   5.412  15.698  0.1235 -0.1824 -0.1334
16666TIP3    H171489   1.227   5.439  15.611 -1.7092 -1.3630  0.0768
16666TIP3    H271490   1.287   5.322  15.685  0.1183 -0.2611  0.3997
16667TIP3   OH271491   3.059   5.872   3.817 -0.9971 -0.4793 -0.3206
16667TIP3    H171492   3.119   5.802   3.844  0.3131  0.4471 -0.6979
16667TIP3    H271493   3.003   5.832   3.752  0.5185 -0.9185 -1.4253
16668TIP3   OH271494   3.626   5.384  16.407 -0.5589 -0.0482  0.0767
16668TIP3    H171495   3.578   5.466  16.401  1.3056  1.1083  0.2660
16668TIP3    H271496   3.718   5.408  16.391  0.2117 -1.8787  1.3297
16669TIP3   OH271497   6.290   3.902  15.582 -0.1480 -0.2868  0.3740
16669TIP3    H171498   6.229   3.870  15.648  0.4508 -0.1427  1.0066
16669TIP3    H271499   6.296   3.831  15.518 -1.7735  0.1027 -0.2688
16670TIP3   OH271500   3.603   1.671   1.662 -0.2399  0.0481 -0.1495
16670TIP3    H171501   3.632   1.617   1.589  2.4237 -1.2472  1.6862
16670TIP3    H271502   3.674   1.735   1.674 -1.2090  1.0306  0.5675
16671TIP3   OH271503   6.313   5.587   1.706 -0.0732  0.2890 -0.0916
16671TIP3    H171504   6.358   5.619   1.784  0.7012 -0.3031 -0.2848
16671TIP3    H271505   6.383   5.560   1.647 -0.6357 -2.9782  0.5338
16672TIP3   OH271506   0.767   2.285   1.559 -0.8154 -0.4217 -0.1168
16672TIP3    H171507   0.729   2.198   1.544  0.8568 -1.2308  0.1045
16672TIP3    H271508   0.724   2.316   1.639  0.4848 -2.2539  1.3738
16673TIP3   OH271509   0.074   5.983  10.911  0.2712  0.2744 -0.2166
16673TIP3    H171510   0.085   6.012  10.820  1.4336  1.2518  0.2183
16673TIP3    H271511   0.162   5.963  10.941 -0.0904  0.0723  0.7492
16674TIP3   OH271512   4.617   5.091   1.068  0.9428  0.1038 -0.5686
16674TIP3    H171513   4.627   4.997   1.055 -1.0153 -0.4437  1.2899
16674TIP3    H271514   4.553   5.118   1.002  2.0628  0.3466 -1.6059
16675TIP3   OH271515   0.616   0.929  15.718  0.0447  0.1863  0.1160
16675TIP3    H171516   0.709   0.909  15.724  0.0169 -0.1592 -0.6069
16675TIP3    H271517   0.572   0.846  15.733 -0.1179  0.1286 -0.6432
16676TIP3   OH271518   1.955   4.415  15.351 -0.0170  0.2410  0.2956
16676TIP3    H171519   1.945   4.474  15.426 -1.5600 -0.9694  1.1151
16676TIP3    H271520   1.984   4.471  15.280  0.2108  1.6684  1.4563
16677TIP3   OH271521   3.864   2.225   1.225  0.2193 -0.4714 -0.8607
16677TIP3    H171522   3.881   2.142   1.270  1.0474 -0.4343 -1.1033
16677TIP3    H271523   3.944   2.275   1.235 -0.6735  0.7904  0.2997
16678TIP3   OH271524   4.099   3.210  11.624  0.0812 -0.7677 -0.2304
16678TIP3    H171525   4.051   3.265  11.562  1.6458  0.0841 -0.7381
16678TIP3    H271526   4.052   3.221  11.707 -0.6814 -0.0821 -0.7336
16679TIP3   OH271527   3.195   0.972   2.681  0.0891  0.5036 -0.1169
16679TIP3    H171528   3.167   0.969   2.590  0.0304 -0.7278 -0.0719
16679TIP3    H271529   3.281   0.930   2.682  0.3599  1.0581  0.2976
16680TIP3   OH271530   6.399   2.145   6.499  0.3049 -0.2068 -0.2337
16680TIP3    H171531   6.415   2.101   6.416 -0.6177 -1.3820  0.1809
16680TIP3    H271532   6.322   2.199   6.484 -1.5087 -2.4265  0.4969
16681TIP3   OH271533   2.638   3.763  14.594 -0.6681 -0.0588 -0.1403
16681TIP3    H171534   2.659   3.856  14.600  0.4281 -0.3077  0.1425
16681TIP3    H271535   2.654   3.740  14.503  1.0095 -0.3873  0.2067
16682TIP3   OH271536   0.292   2.131   2.519  0.2151  0.2195 -0.1458
16682TIP3    H171537   0.382   2.100   2.515  0.7801  1.8836 -1.9894
16682TIP3    H271538   0.248   2.087   2.447 -0.3367 -0.2200  0.4505
16683TIP3   OH271539   4.805   6.191   5.518  0.2014  0.3188  0.0323
16683TIP3    H171540   4.796   6.135   5.441  0.6696  1.8571 -1.2076
16683TIP3    H271541   4.872   6.149   5.572 -0.7616 -1.2489  0.0647
16684TIP3   OH271542   3.338   6.731  12.370 -0.1176 -0.1835 -0.1232
16684TIP3    H171543   3.410   6.793  12.356  1.2441 -1.6616  0.0950
16684TIP3    H271544   3.263   6.787  12.388  0.6645  1.4629 -1.5782
16685TIP3   OH271545   3.884   2.650  12.360 -0.5142  0.3967 -0.0433
16685TIP3    H171546   3.803   2.609  12.390 -0.1633 -0.6847 -0.4840
16685TIP3    H271547   3.940   2.653  12.438 -1.2149  1.8102  0.4268
16686TIP3   OH271548   2.362   5.049   3.499  0.4393 -0.1062 -0.4263
16686TIP3    H171549   2.415   5.063   3.421  0.3278  0.7880 -0.3608
16686TIP3    H271550   2.275   5.080   3.474  0.3477 -0.0268 -0.0238
16687TIP3   OH271551   4.082   3.976   4.809  0.6843  0.1431 -0.6659
16687TIP3    H171552   4.021   3.970   4.735  1.8125  0.3011 -1.6319
16687TIP3    H271553   4.108   3.885   4.826  1.4742  0.2225 -1.3815
16688TIP3   OH271554   4.797   4.306  15.260  0.1397  0.1179  0.3257
16688TIP3    H171555   4.892   4.291  15.259  0.0005 -0.7660 -0.6052
16688TIP3    H271556   4.774   4.305  15.353  0.6240 -2.4804  0.4753
16689TIP3   OH271557   2.575   1.657   5.808  0.2420 -1.0296 -0.6510
16689TIP3    H171558   2.607   1.704   5.731  1.9881  0.5099  0.8961
16689TIP3    H271559   2.533   1.724   5.862  2.5056 -1.1218  1.4659
16690TIP3   OH271560   3.694   0.485  16.582  0.9049  0.3231 -0.3963
16690TIP3    H171561   3.766   0.460  16.640  0.7536 -0.3547 -0.4994
16690TIP3    H271562   3.615   0.454  16.627  0.5390  2.1658  0.3288
16691TIP3   OH271563   5.372   6.458   2.444 -0.0798  0.5657 -0.0994
16691TIP3    H171564   5.283   6.426   2.426 -0.4170  2.3163 -1.8808
16691TIP3    H271565   5.426   6.379   2.445 -1.5759 -0.4871  0.5169
16692TIP3   OH271566   3.470   5.109   1.327 -0.1559  0.5726  0.1757
16692TIP3    H171567   3.558   5.100   1.291  0.3191 -0.0757  1.4472
16692TIP3    H271568   3.467   5.046   1.399 -1.4671  0.9982  0.5150
16693TIP3   OH271569   3.662   0.994  11.956 -0.6368 -0.1175  0.0335
16693TIP3    H171570   3.686   0.966  11.867  1.9307 -0.7465  0.8322
16693TIP3    H271571   3.650   1.089  11.948  2.7679  0.3995 -0.5140
16694TIP3   OH271572   3.911   3.252  10.788 -0.6981  0.2568 -0.4213
16694TIP3    H171573   4.005   3.270  10.781 -0.7030  0.6259  0.4161
16694TIP3    H271574   3.877   3.271  10.701 -0.0136  0.2193 -0.7053
16695TIP3   OH271575   1.576   5.543  12.286  0.1432  0.2758  0.0451
16695TIP3    H171576   1.522   5.527  12.209  0.4698 -1.1316  0.0920
16695TIP3    H271577   1.514   5.544  12.359  0.0880 -0.5632  0.0118
16696TIP3   OH271578   4.017   5.364  13.477 -0.1523  0.5202  0.4576
16696TIP3    H171579   3.955   5.434  13.455 -0.2524  0.3135  0.0756
16696TIP3    H271580   3.962   5.287  13.492 -0.0196  0.4480  0.5784
16697TIP3   OH271581   4.591   0.841   5.615  0.2075 -0.1659 -0.0675
16697TIP3    H171582   4.525   0.910   5.623  0.3788  0.0894 -0.8362
16697TIP3    H271583   4.674   0.887   5.603  0.2529 -0.4972 -1.1037
16698TIP3   OH271584   1.857   4.837   2.399  0.1482  0.5503  0.3005
16698TIP3    H171585   1.842   4.743   2.404  0.3277  0.5705  1.5882
16698TIP3    H271586   1.953   4.846   2.402  0.1183  0.8243  2.4672
16699TIP3   OH271587   1.064   1.169  16.940  0.7346  0.2611 -0.2715
16699TIP3    H171588   1.062   1.074  16.930  0.7502  0.4324 -2.3829
16699TIP3    H271589   1.008   1.187  17.015 -0.6488 -1.3250 -0.8602
16700TIP3   OH271590   3.086   2.952   5.036  0.3357  0.4446 -0.2046
16700TIP3    H171591   3.135   3.031   5.058  2.3293 -1.0110  0.8149
16700TIP3    H271592   3.025   2.940   5.110 -1.8743  2.3655 -1.5695
16701TIP3   OH271593   4.406   0.309   5.694 -0.2835 -0.3873  0.5340
16701TIP3    H171594   4.464   0.361   5.638 -1.4342  0.6178  0.2057
16701TIP3    H271595   4.364   0.374   5.751 -0.0144 -1.2588  1.7573
16702TIP3   OH271596   0.627   5.661  12.016  0.3321 -0.4914 -0.1191
16702TIP3    H171597   0.665   5.727  12.073 -0.5994  1.2101 -1.3958
16702TIP3    H271598   0.703   5.621  11.973  0.8506  1.0939 -0.7485
16703TIP3   OH271599   3.818   4.396  16.881  0.5411  0.2287  0.5576
16703TIP3    H171600   3.835   4.451  16.804  0.5086  0.7784  0.9359
16703TIP3    H271601   3.904   4.385  16.922  0.6630 -0.5933  0.1011
16704TIP3   OH271602   5.418   6.536  15.922 -0.0518 -0.3212 -0.0085
16704TIP3    H171603   5.428   6.463  15.861 -0.5785  0.6075 -1.2514
16704TIP3    H271604   5.503   6.542  15.966  1.0125  0.1219 -1.9884
16705TIP3   OH271605   3.099   5.056  15.481 -0.0053 -0.2080  0.1864
16705TIP3    H171606   3.015   5.034  15.441 -0.4681  0.9978  0.4575
16705TIP3    H271607   3.096   5.151  15.492  1.4804 -0.1217  0.0247
16706TIP3   OH271608   6.455   0.614  13.557  0.3102 -0.0762  0.4703
16706TIP3    H171609   6.509   0.650  13.486 -0.6139  0.4177  0.0018
16706TIP3    H271610   6.479   0.667  13.634  0.7411 -0.0962  0.3554
16707TIP3   OH271611   6.741   1.748  12.199  0.4124 -0.1021  0.1227
16707TIP3    H171612   6.719   1.672  12.253 -0.4755 -0.7437 -1.0851
16707TIP3    H271613   6.827   1.728  12.162  1.9756  1.2172  2.7551
16708TIP3   OH271614   0.462   5.490  14.318 -0.5439  0.1485  0.2547
16708TIP3    H171615   0.514   5.409  14.315 -1.1884 -0.5626  3.6055
16708TIP3    H271616   0.528   5.560  14.321  0.1341 -0.4898  0.6806
16709TIP3   OH271617   5.760   0.310   2.526 -0.5430 -0.6164  0.4332
16709TIP3    H171618   5.778   0.246   2.595 -0.3723 -1.8859 -0.7338
16709TIP3    H271619   5.674   0.284   2.491 -1.6533  1.3321  1.5624
16710TIP3   OH271620   4.676   1.131  15.878 -0.1573 -0.4143  0.3855
16710TIP3    H171621   4.720   1.103  15.958 -0.3984 -3.3115 -0.3886
16710TIP3    H271622   4.585   1.145  15.905 -0.2005 -1.2032  0.6834
16711TIP3   OH271623   1.234   3.451  12.098  0.0554  0.0040  0.1723
16711TIP3    H171624   1.203   3.420  12.183  0.1890  0.3732  0.3638
16711TIP3    H271625   1.156   3.455  12.043  0.0175 -0.5223  0.1878
16712TIP3   OH271626   4.629   1.833   6.802  0.2221 -0.1759  0.6391
16712TIP3    H171627   4.638   1.919   6.842 -0.3707  0.2703 -0.1686
16712TIP3    H271628   4.631   1.772   6.876  0.2848  0.5500  1.2440
16713TIP3   OH271629   3.272   0.254   3.151  0.7359 -0.0128 -0.2669
16713TIP3    H171630   3.193   0.252   3.097  0.2104 -0.5566  0.5112
16713TIP3    H271631   3.244   0.289   3.235  1.4552  0.3795 -0.1853
16714TIP3   OH271632   1.954   0.818   2.911 -0.0777 -0.2888  0.5667
16714TIP3    H171633   1.922   0.783   2.994  2.2098  2.2672  2.7076
16714TIP3    H271634   2.003   0.896   2.935  0.0331  1.0518 -3.3253
16715TIP3   OH271635   3.830   3.223   1.221 -0.5123 -0.1606 -0.3630
16715TIP3    H171636   3.848   3.132   1.244 -3.0340 -0.3975  1.0514
16715TIP3    H271637   3.816   3.222   1.127  1.1510 -0.8675 -0.6476
16716TIP3   OH271638   3.865   0.786   6.496  0.0595 -0.6691  0.1326
16716TIP3    H171639   3.794   0.790   6.431  0.5047 -0.2625 -0.3427
16716TIP3    H271640   3.912   0.869   6.484  0.4140 -0.7912  0.6726
16717TIP3   OH271641   2.258   3.788  14.471  0.1274 -0.3971 -0.1774
16717TIP3    H171642   2.331   3.842  14.503 -0.0742 -0.9722  1.2986
16717TIP3    H271643   2.212   3.760  14.550  0.0035 -2.4265 -0.9173
16718TIP3   OH271644   2.962   5.374   5.341 -0.1089  0.2628  0.6595
16718TIP3    H171645   2.983   5.333   5.257  1.0076  1.6612  0.2189
16718TIP3    H271646   2.868   5.393   5.335  0.0305  0.7113 -0.4630
16719TIP3   OH271647   0.484   6.277  15.009  0.1271  0.0481  0.3791
16719TIP3    H171648   0.438   6.202  14.971 -1.7143  0.3118  1.9185
16719TIP3    H271649   0.573   6.270  14.976 -0.6916 -1.2423 -1.7212
16720TIP3   OH271650   1.285   6.858  16.002  0.4398  0.4318 -0.0116
16720TIP3    H171651   1.327   6.920  16.062  0.8728 -0.9547  1.2037
16720TIP3    H271652   1.325   6.876  15.917  1.2208  1.2110  0.4972
16721TIP3   OH271653   2.204   2.692   5.416 -0.3253 -0.1676 -0.5238
16721TIP3    H171654   2.121   2.734   5.435 -0.7169 -0.1426 -2.1466
16721TIP3    H271655   2.185   2.599   5.416  0.0598 -0.2780  0.8300
16722TIP3   OH271656   1.596   1.554   0.726  0.1888  0.9166  0.3114
16722TIP3    H171657   1.584   1.577   0.818  1.4678  1.5848  0.3209
16722TIP3    H271658   1.539   1.615   0.679 -0.4988  0.5473  0.6513
16723TIP3   OH271659   1.239   4.565   1.083  0.3221  0.2057  0.4785
16723TIP3    H171660   1.164   4.546   1.139 -0.5320  1.9471  0.0171
16723TIP3    H271661   1.205   4.627   1.018  0.6734 -3.1724 -3.3527
16724TIP3   OH271662   1.046   0.177  12.186 -0.1839  0.0049 -0.0587
16724TIP3    H171663   1.081   0.155  12.100 -0.3366 -1.2265  0.1816
16724TIP3    H271664   1.072   0.268  12.199  0.3327  0.0381 -1.1574
16725TIP3   OH271665   6.859   1.822   1.138 -0.0256  0.5158  0.0446
16725TIP3    H171666   6.927   1.766   1.101  0.0591  0.1852  0.6810
16725TIP3    H271667   6.859   1.900   1.083 -0.3969 -0.2526 -1.0810
16726TIP3   OH271668   1.957   6.337  13.064  0.0179 -0.3307  0.0037
16726TIP3    H171669   1.892   6.285  13.113 -0.1721  0.4179  0.5652
16726TIP3    H271670   2.040   6.319  13.108  0.0352 -0.5600 -0.1244
16727TIP3   OH271671   0.485   2.735  10.681 -0.0449  0.0708 -0.4649
16727TIP3    H171672   0.442   2.805  10.729 -0.7512 -2.3057  2.7857
16727TIP3    H271673   0.572   2.729  10.721 -0.2537 -1.3048 -0.1619
16728TIP3   OH271674   5.682   4.145   2.640  0.3474  0.2273 -0.4373
16728TIP3    H171675   5.635   4.160   2.558  0.3652 -2.0826 -0.9354
16728TIP3    H271676   5.774   4.163   2.619  0.7777 -2.9365 -1.8071
16729TIP3   OH271677   3.019   2.864  13.947 -0.2789 -0.5064 -0.0946
16729TIP3    H171678   3.105   2.869  13.988 -0.4564  0.8536  0.1508
16729TIP3    H271679   3.037   2.871  13.853 -0.1516  0.3008 -0.0144
16730TIP3   OH271680   4.968   2.026  13.416 -0.2962  0.1529 -0.3296
16730TIP3    H171681   4.898   1.996  13.359  0.5232 -0.8392 -0.8467
16730TIP3    H271682   5.029   1.952  13.421  0.1315  0.5686  1.0585
16731TIP3   OH271683   3.444   3.356   5.290 -0.3447 -0.1705  0.3277
16731TIP3    H171684   3.371   3.340   5.351 -0.5310 -2.1525 -0.3695
16731TIP3    H271685   3.512   3.395   5.345 -1.5225  0.7175  1.2119
16732TIP3   OH271686   4.048   1.947  15.792  0.2725  0.2262 -0.1006
16732TIP3    H171687   4.080   1.966  15.704 -0.8049 -0.2902 -0.6309
16732TIP3    H271688   4.033   2.033  15.831 -0.3166  0.4849 -0.8500
16733TIP3   OH271689   2.874   1.666   4.223 -0.8759  0.0815 -0.1515
16733TIP3    H171690   2.909   1.578   4.235  2.0043  1.0705 -0.4641
16733TIP3    H271691   2.795   1.654   4.170  0.0633 -2.2201 -1.1402
16734TIP3   OH271692   5.201   4.763   4.258 -0.1693 -0.6395  0.4140
16734TIP3    H171693   5.296   4.776   4.264  0.2872 -2.1578 -2.0084
16734TIP3    H271694   5.167   4.846   4.227  0.6022 -0.5197 -0.1504
16735TIP3   OH271695   5.878   6.048   0.724  0.2764  0.3197  0.1218
16735TIP3    H171696   5.872   6.099   0.643 -0.3644  0.2039  0.0887
16735TIP3    H271697   5.970   6.051   0.747  0.2669  1.4585  0.0940
16736TIP3   OH271698   4.783   5.441  13.842 -0.6665  0.0422  0.6108
16736TIP3    H171699   4.787   5.475  13.931 -0.5251  0.5006  0.4323
16736TIP3    H271700   4.802   5.517  13.786 -1.0945 -0.1594  0.1765
16737TIP3   OH271701   1.646   4.424  10.962 -0.3159  0.2518 -0.0367
16737TIP3    H171702   1.637   4.450  11.054 -2.9564 -0.8275  0.0876
16737TIP3    H271703   1.676   4.503  10.918 -0.8609  1.3406  1.4590
16738TIP3   OH271704   0.064   2.528  14.796  0.1331  0.1822  0.4790
16738TIP3    H171705   0.132   2.565  14.852 -0.8263  1.4951  0.8298
16738TIP3    H271706   0.022   2.461  14.849  0.2681  0.3182  0.7583
16739TIP3   OH271707   2.199   1.228   5.393 -0.2803  0.2007 -0.0484
16739TIP3    H171708   2.201   1.283   5.471 -2.5601 -0.9529  0.9055
16739TIP3    H271709   2.277   1.255   5.343  0.0347  2.5176  1.5230
16740TIP3   OH271710   4.374   1.799  11.873 -0.2802  0.2974  0.1121
16740TIP3    H171711   4.453   1.851  11.860 -0.8280  1.2739  0.5677
16740TIP3    H271712   4.404   1.720  11.918  0.2185  1.4423  1.8647
16741TIP3   OH271713   2.055   4.569   5.130 -0.1835  0.5356 -0.2782
16741TIP3    H171714   2.026   4.587   5.041 -1.2465 -0.2711 -0.1110
16741TIP3    H271715   2.061   4.655   5.172 -1.0681  0.8109 -0.7066
16742TIP3   OH271716   4.452   4.528   5.880  0.7077 -0.0071  0.2074
16742TIP3    H171717   4.433   4.473   5.957  0.6946 -0.5359 -0.1701
16742TIP3    H271718   4.366   4.555   5.849  0.2709 -3.8423 -2.5586
16743TIP3   OH271719   4.462   2.189  16.441 -0.0194 -0.1261 -0.4241
16743TIP3    H171720   4.407   2.133  16.386  0.3332  0.6836 -1.6478
16743TIP3    H271721   4.399   2.242  16.491 -0.3542 -0.5478 -0.3923
16744TIP3   OH271722   1.133   4.962  15.762  0.3963 -0.2303 -0.0659
16744TIP3    H171723   1.175   4.880  15.737 -1.3610 -1.3543  0.4979
16744TIP3    H271724   1.184   5.030  15.718  0.9403 -1.7288 -1.8665
16745TIP3   OH271725   6.037   0.576   4.004 -0.2012 -0.1352  0.3406
16745TIP3    H171726   6.075   0.570   4.091 -1.4723  1.5420  1.0724
16745TIP3    H271727   6.093   0.522   3.949  1.1990 -0.4390  1.9944
16746TIP3   OH271728   0.322   5.823  12.198  0.1802  0.5183 -0.7649
16746TIP3    H171729   0.310   5.728  12.202  0.4620  0.5068  0.3798
16746TIP3    H271730   0.377   5.837  12.121 -0.1408 -0.2074 -1.1415
16747TIP3   OH271731   0.059   1.714   5.036 -0.4146  0.1372 -0.3512
16747TIP3    H171732   0.031   1.623   5.032 -1.5811  0.4539  0.3590
16747TIP3    H271733   0.106   1.728   4.954  3.2206 -2.1815  1.0822
16748TIP3   OH271734   0.624   4.568  15.324  0.4497 -0.3283  0.0646
16748TIP3    H171735   0.666   4.586  15.240 -4.3029 -0.2241 -2.6624
16748TIP3    H271736   0.581   4.483  15.312 -1.3951  0.2433  1.9193
16749TIP3   OH271737   3.155   6.137  16.119 -0.2568  0.0351  0.1770
16749TIP3    H171738   3.137   6.217  16.170 -0.6277  0.2600 -0.3016
16749TIP3    H271739   3.178   6.169  16.032 -0.9169 -0.3985 -0.1631
16750TIP3   OH271740   2.577   3.802  13.945  0.3863  0.2525 -0.3363
16750TIP3    H171741   2.625   3.872  13.989  0.0384  0.3261 -0.0686
16750TIP3    H271742   2.497   3.791  13.997  0.0907  0.1654 -0.7999
16751TIP3   OH271743   5.107   0.469   6.634  0.0998  0.0110  0.5885
16751TIP3    H171744   5.201   0.487   6.639  0.1408 -0.3610  1.5019
16751TIP3    H271745   5.066   0.555   6.645  0.3255  0.3858 -1.2345
16752TIP3   OH271746   0.874   2.076   4.944  0.0597  0.0636  0.2315
16752TIP3    H171747   0.891   2.112   5.031  1.8286 -1.7331  0.7070
16752TIP3    H271748   0.947   2.105   4.890  0.0222 -0.4684 -0.1215
16753TIP3   OH271749   4.930   3.338   0.463 -0.9540 -0.2416 -0.0089
16753TIP3    H171750   4.891   3.252   0.452 -1.7155  0.1675 -0.5870
16753TIP3    H271751   4.910   3.384   0.382  0.7716 -0.0215 -0.3425
16754TIP3   OH271752   1.722   4.403  14.151 -0.1110 -0.6099  1.0704
16754TIP3    H171753   1.729   4.495  14.176  1.6192 -0.4176  0.1072
16754TIP3    H271754   1.699   4.357  14.231 -2.1221  0.7584  1.3447
16755TIP3   OH271755   6.398   4.815   1.551  0.1762 -0.0528  0.0172
16755TIP3    H171756   6.356   4.888   1.596 -1.2050 -1.1880  0.6479
16755TIP3    H271757   6.379   4.830   1.458 -0.0688  0.4124  0.1408
16756TIP3   OH271758   0.795   4.219   5.135 -0.5458  0.1777 -0.1648
16756TIP3    H171759   0.786   4.123   5.137  0.0728  0.1297  1.6305
16756TIP3    H271760   0.708   4.252   5.157 -1.4412  0.1381 -3.1980
16757TIP3   OH271761   1.204   0.581   6.106 -0.0019  0.1763 -0.5292
16757TIP3    H171762   1.245   0.666   6.090  1.5691 -0.6420 -1.0908
16757TIP3    H271763   1.264   0.537   6.167 -0.8530 -0.4808 -0.1540
16758TIP3   OH271764   1.964   5.714  12.095  0.1943 -0.4965  0.7621
16758TIP3    H171765   1.934   5.631  12.131 -0.3239 -0.9928 -0.7393
16758TIP3    H271766   1.890   5.773  12.105 -0.0022 -0.6766  0.3624
16759TIP3   OH271767   2.488   1.501  14.015 -0.2126 -0.4627  0.2086
16759TIP3    H171768   2.422   1.554  14.060 -0.0880  0.6125 -0.8147
16759TIP3    H271769   2.559   1.562  13.998 -0.1897 -0.8707 -1.2790
16760TIP3   OH271770   6.380   2.075   4.304  0.0649 -0.0149  0.2625
16760TIP3    H171771   6.437   2.082   4.381 -1.0326 -0.1004  1.1268
16760TIP3    H271772   6.434   2.101   4.231  1.5359 -1.1639  0.8832
16761TIP3   OH271773   6.241   6.423  11.711 -0.0522  0.0569  0.2241
16761TIP3    H171774   6.154   6.430  11.749 -0.7598  2.5044 -1.5655
16761TIP3    H271775   6.234   6.350  11.649 -1.0825  0.7148 -0.4572
16762TIP3   OH271776   6.677   1.655   1.249 -0.2619 -0.1631 -0.5612
16762TIP3    H171777   6.716   1.572   1.223  2.5678  0.6663  0.7182
16762TIP3    H271778   6.700   1.716   1.178 -0.7513 -0.0247 -0.6105
16763TIP3   OH271779   4.453   3.600  11.964  0.6300 -0.3507  0.3334
16763TIP3    H171780   4.518   3.599  12.035 -1.1408  0.9377  2.1016
16763TIP3    H271781   4.443   3.508  11.940  0.5102 -0.9954  2.5906
16764TIP3   OH271782   6.565   4.928  15.966  0.1065  0.1242  0.0297
16764TIP3    H171783   6.614   4.936  15.884 -0.8174  1.3862 -0.4286
16764TIP3    H271784   6.612   4.861  16.015  0.4933 -0.9404 -1.6767
16765TIP3   OH271785   0.046   6.596   2.192  1.0612  0.4402  0.1555
16765TIP3    H171786   0.067   6.608   2.285  0.7726 -1.2298  0.4568
16765TIP3    H271787  -0.025   6.658   2.175 -1.6003 -1.8188  2.0870
16766TIP3   OH271788   0.159   5.901   0.103  0.5394  0.0356  0.3059
16766TIP3    H171789   0.126   5.935   0.021  0.4477 -0.4759  0.1297
16766TIP3    H271790   0.199   5.977   0.146 -2.0208  0.9954  1.1480
16767TIP3   OH271791   6.733   0.918   1.631 -0.1594 -0.4257  0.1394
16767TIP3    H171792   6.684   0.949   1.708 -1.9761 -0.5943 -0.8867
16767TIP3    H271793   6.825   0.923   1.657 -0.6010  1.7618  1.5014
16768TIP3   OH271794   0.217   0.728  15.102 -0.0449 -0.2640  0.7568
16768TIP3    H171795   0.234   0.803  15.044 -0.5257 -0.5482  0.2317
16768TIP3    H271796   0.280   0.737  15.173 -0.2900  0.7961  0.8489
16769TIP3   OH271797   0.366   1.441  16.435  0.2071  0.0115 -0.3182
16769TIP3    H171798   0.326   1.522  16.467 -0.3644 -0.2405 -0.3839
16769TIP3    H271799   0.361   1.448  16.339 -0.4331 -0.3806 -0.3227
16770TIP3   OH271800   3.626   5.134  16.279  0.3040  0.2063  0.6918
16770TIP3    H171801   3.717   5.119  16.305 -0.1350 -1.8940  1.2641
16770TIP3    H271802   3.603   5.218  16.319  2.0849  0.9822  0.1833
16771TIP3   OH271803   0.512   1.932  13.177  0.8684  0.0484 -0.0282
16771TIP3    H171804   0.468   1.985  13.243 -1.3748 -0.3276 -1.1273
16771TIP3    H271805   0.583   1.988  13.146 -0.6449  1.9758 -0.2558
16772TIP3   OH271806   5.875   0.189   4.500 -0.5721 -0.2798  0.3098
16772TIP3    H171807   5.865   0.105   4.544  0.3913 -0.4383  0.2498
16772TIP3    H271808   5.833   0.176   4.415 -0.9416 -0.5136  0.5266
16773TIP3   OH271809   3.196   2.609   3.374 -0.0760 -0.0478 -0.3293
16773TIP3    H171810   3.211   2.519   3.347 -0.0551  0.0703 -0.7226
16773TIP3    H271811   3.221   2.611   3.467  1.0896 -0.1677 -0.6236
16774TIP3   OH271812   1.198   2.858   2.398 -0.2812 -0.1691  0.2082
16774TIP3    H171813   1.235   2.889   2.316  1.4931 -1.5598  0.4145
16774TIP3    H271814   1.131   2.795   2.372 -0.7822  0.5015 -0.1599
16775TIP3   OH271815   4.145   4.245  16.311  0.0388  0.1499 -0.5400
16775TIP3    H171816   4.186   4.233  16.225  0.2427 -1.3791 -0.2410
16775TIP3    H271817   4.219   4.261  16.370  0.0086 -0.2499 -0.3989
16776TIP3   OH271818   2.438   0.654  11.945 -0.4273 -0.0567 -0.2545
16776TIP3    H171819   2.402   0.602  11.873  0.4735  0.7256 -1.3072
16776TIP3    H271820   2.509   0.601  11.980 -1.3052 -0.7455  0.5496
16777TIP3   OH271821   1.410   6.231  11.124 -0.0009  0.3470  0.6345
16777TIP3    H171822   1.442   6.300  11.065  2.5503 -0.1453  1.3448
16777TIP3    H271823   1.477   6.225  11.192 -0.5830 -2.2405  1.0626
16778TIP3   OH271824   3.561   5.223   0.216  0.0347 -0.4986  0.0167
16778TIP3    H171825   3.605   5.190   0.138 -1.1570 -0.3658 -0.7210
16778TIP3    H271826   3.473   5.184   0.213  0.1405 -0.9467  1.5904
16779TIP3   OH271827   0.641   0.821  11.433 -0.1934 -0.0245 -0.2060
16779TIP3    H171828   0.681   0.734  11.424 -1.2860 -0.5349 -0.2182
16779TIP3    H271829   0.685   0.874  11.366 -1.5496 -1.3315 -2.2171
16780TIP3   OH271830   4.247   1.739  16.412 -0.7200 -0.4643  0.2835
16780TIP3    H171831   4.290   1.663  16.372 -0.9642 -0.5338  0.1507
16780TIP3    H271832   4.157   1.734  16.381 -0.2889  0.9695 -1.3358
16781TIP3   OH271833   4.769   6.423   0.269 -0.0412 -0.3676  0.2614
16781TIP3    H171834   4.675   6.437   0.258  0.3115  0.5598 -2.2928
16781TIP3    H271835   4.809   6.472   0.197  2.4526 -0.2340  1.6361
16782TIP3   OH271836   5.196   1.056   3.299 -0.2175 -0.1615  0.3977
16782TIP3    H171837   5.140   1.128   3.272 -0.8708 -1.1137 -0.9058
16782TIP3    H271838   5.217   1.010   3.218  1.6319 -0.4315  0.9764
16783TIP3   OH271839   0.850   6.454  11.673  0.8971  0.1163 -0.3271
16783TIP3    H171840   0.764   6.469  11.713  1.0022  1.8274 -0.6602
16783TIP3    H271841   0.910   6.447  11.748  0.7492  0.9213 -0.1275
16784TIP3   OH271842   4.758   5.015   2.955  0.6131  0.1392 -0.1744
16784TIP3    H171843   4.688   5.074   2.984 -0.4136  0.0452 -2.3096
16784TIP3    H271844   4.714   4.930   2.945  1.7454 -0.6843  1.3915
16785TIP3   OH271845   1.794   5.726  16.597  0.0069 -0.7933  0.3462
16785TIP3    H171846   1.703   5.745  16.620 -0.0039  0.1398 -0.3984
16785TIP3    H271847   1.842   5.739  16.678 -0.5529 -1.6065  0.8274
16786TIP3   OH271848   1.673   4.133  12.645 -0.0380 -0.3005 -0.1971
16786TIP3    H171849   1.665   4.215  12.694 -2.3908 -0.3446 -0.4111
16786TIP3    H271850   1.671   4.065  12.712 -1.7788 -0.3034 -0.2281
16787TIP3   OH271851   1.589   3.218  16.521 -0.2683 -0.5820 -0.0684
16787TIP3    H171852   1.676   3.239  16.488 -0.0962 -0.9419  0.1544
16787TIP3    H271853   1.585   3.123  16.521 -0.7098 -0.5696 -0.1939
16788TIP3   OH271854   0.364   2.080  13.893  0.0389 -0.5744 -0.0789
16788TIP3    H171855   0.279   2.114  13.923 -0.9851 -0.8634 -2.3950
16788TIP3    H271856   0.395   2.146  13.830  0.1370 -1.7963 -1.3545
16789TIP3   OH271857   4.622   0.829  11.267 -0.2967 -0.4993  0.2947
16789TIP3    H171858   4.588   0.832  11.357 -1.2266  1.0840 -0.0642
16789TIP3    H271859   4.546   0.848  11.213 -0.3869 -4.0196 -1.0895
16790TIP3   OH271860   6.292   1.174  12.258  0.9122  0.4481 -0.2009
16790TIP3    H171861   6.265   1.202  12.171 -0.7558  0.4171  0.2745
16790TIP3    H271862   6.292   1.255  12.310  1.0732  0.3352 -0.0245
16791TIP3   OH271863   0.694   1.403   3.796  0.1563 -0.4402  0.7798
16791TIP3    H171864   0.781   1.373   3.824  0.6845 -1.0867 -1.3567
16791TIP3    H271865   0.708   1.437   3.708 -1.1919  2.5053  1.5686
16792TIP3   OH271866   3.926   6.234  15.285 -0.1043  0.0340  0.6433
16792TIP3    H171867   3.974   6.275  15.213  1.2004  0.4690  1.7141
16792TIP3    H271868   3.845   6.285  15.293  0.6027  1.1815  0.6820
16793TIP3   OH271869   1.695   0.687   4.739  0.3442 -0.4779 -0.1663
16793TIP3    H171870   1.774   0.736   4.718 -0.0916 -0.1197 -1.0072
16793TIP3    H271871   1.717   0.639   4.819  0.8016  1.0216  0.6396
16794TIP3   OH271872   2.811   6.487   5.481 -0.3138  0.2228  0.1386
16794TIP3    H171873   2.856   6.548   5.538  0.8000 -1.8036  1.5642
16794TIP3    H271874   2.750   6.441   5.539 -1.2570  0.0741 -0.9253
16795TIP3   OH271875   2.269   3.124   4.529  0.2456 -0.0628 -0.4158
16795TIP3    H171876   2.222   3.166   4.457  0.2304 -1.1835 -1.0932
16795TIP3    H271877   2.221   3.150   4.607  0.4752  1.4764 -0.7496
16796TIP3   OH271878   5.613   4.554   0.899 -0.6240 -0.1648  0.1425
16796TIP3    H171879   5.629   4.475   0.846  0.2601 -0.0060  0.1583
16796TIP3    H271880   5.666   4.541   0.977  0.8416  1.1771 -0.5841
16797TIP3   OH271881   6.736   2.482   5.889 -0.4658 -0.5321  0.3232
16797TIP3    H171882   6.703   2.543   5.823  1.4375  0.8142  0.5235
16797TIP3    H271883   6.810   2.527   5.928  0.3263 -2.5459  1.2969
16798TIP3   OH271884   1.847   2.887   4.181  0.0650  0.1369  0.3061
16798TIP3    H171885   1.813   2.865   4.268 -0.7626 -0.1166 -0.0645
16798TIP3    H271886   1.866   2.981   4.185 -1.9061  0.5988  0.1791
16799TIP3   OH271887   4.082   5.472  15.624 -0.4124  0.3751  0.8202
16799TIP3    H171888   4.023   5.491  15.551  0.1836  0.5389  0.3740
16799TIP3    H271889   4.058   5.383  15.652  0.8631 -0.6393 -1.0779
16800TIP3   OH271890   3.898   1.164  11.470  0.4544  0.2480  0.1694
16800TIP3    H171891   3.984   1.190  11.503 -0.6551  2.2968  1.7152
16800TIP3    H271892   3.880   1.228  11.401  0.6900 -1.0032 -1.0911
16801TIP3   OH271893   3.889   3.736   6.133  0.4396  0.2598  0.0841
16801TIP3    H171894   3.909   3.795   6.206 -1.3264  2.5568 -1.1599
16801TIP3    H271895   3.807   3.693   6.159  0.1182  0.6435 -0.2896
16802TIP3   OH271896   3.426   4.747   3.982 -0.6954 -0.5510 -0.2504
16802TIP3    H171897   3.368   4.823   3.972 -0.4247 -0.4349 -1.0808
16802TIP3    H271898   3.512   4.786   4.000 -0.9760 -0.7369  1.6941
16803TIP3   OH271899   0.039   6.182   5.665 -0.4286 -0.2279  0.2944
16803TIP3    H171900   0.026   6.248   5.598 -0.2921  0.8293  1.2789
16803TIP3    H271901  -0.014   6.108   5.637 -2.5510  1.1848  0.3700
16804TIP3   OH271902   3.398   5.824  12.582 -0.2209  0.3194  0.1597
16804TIP3    H171903   3.337   5.757  12.552 -0.6928 -0.3312  2.3835
16804TIP3    H271904   3.480   5.777  12.595 -0.6918 -0.0412  2.2470
16805TIP3   OH271905   4.804   3.497  13.119 -0.2605 -0.6206  0.1373
16805TIP3    H171906   4.744   3.433  13.080  0.8238 -1.4474 -0.2294
16805TIP3    H271907   4.789   3.577  13.070 -1.1934 -0.7566  0.1809
16806TIP3   OH271908   0.432   4.205   1.081  0.4434  0.0299  0.0120
16806TIP3    H171909   0.469   4.144   1.144 -1.1928  0.0220  1.0205
16806TIP3    H271910   0.339   4.211   1.104 -0.2756 -0.1366 -2.5347
16807TIP3   OH271911   0.666   5.284  16.460 -0.3844 -0.3491  0.1396
16807TIP3    H171912   0.740   5.235  16.494 -1.3381 -0.4521  2.2263
16807TIP3    H271913   0.677   5.282  16.365  1.7050 -1.2117  0.3584
16808TIP3   OH271914   1.096   5.339   1.070 -0.0400  0.5543 -0.2916
16808TIP3    H171915   1.125   5.376   0.987 -0.9778  0.2819 -0.7660
16808TIP3    H271916   1.082   5.246   1.050 -1.7466  0.7644 -0.2792
16809TIP3   OH271917   2.416   3.589  11.343  0.7701  0.0167  0.1621
16809TIP3    H171918   2.411   3.684  11.337 -0.6318  0.0447  1.2466
16809TIP3    H271919   2.372   3.567  11.425  4.3921 -1.3371  1.9928
16810TIP3   OH271920   6.224   0.334   1.509 -0.2383 -0.3593 -0.2680
16810TIP3    H171921   6.290   0.265   1.521 -0.1552 -0.1979  0.2360
16810TIP3    H271922   6.276   0.413   1.493 -0.1371  0.3423  2.7944
16811TIP3   OH271923   6.042   3.483  13.094 -0.4630  0.0451  0.5302
16811TIP3    H171924   6.112   3.438  13.141 -0.3304  0.1003  0.3863
16811TIP3    H271925   6.056   3.459  13.002 -1.8677 -1.6380  0.7156
16812TIP3   OH271926   6.855   6.677   5.038 -0.0015  0.2022  0.2390
16812TIP3    H171927   6.933   6.694   4.984 -1.2425  2.1713 -1.0709
16812TIP3    H271928   6.860   6.742   5.108  0.3145 -0.7224  1.1037
16813TIP3   OH271929   1.733   3.522   2.061  0.0153 -0.4467 -0.4280
16813TIP3    H171930   1.748   3.609   2.025  2.5690 -0.7071 -0.1250
16813TIP3    H271931   1.658   3.534   2.120  1.7559  2.1486  1.4600
16814TIP3   OH271932   4.919   2.117   0.084 -0.3313  0.1424 -0.0803
16814TIP3    H171933   4.940   2.036   0.131 -0.3283  1.0765  1.5838
16814TIP3    H271934   4.990   2.128   0.021  0.0059 -0.7902  0.1216
16815TIP3   OH271935   3.018   0.292  16.407 -0.8916  0.2199  0.3344
16815TIP3    H171936   3.111   0.272  16.390 -1.5347 -4.2420  0.8527
16815TIP3    H271937   2.976   0.284  16.321 -1.0157  1.1243  0.2972
16816TIP3   OH271938   5.124   1.910   2.674  0.0489  0.0984  0.0371
16816TIP3    H171939   5.159   1.921   2.763  0.7377 -1.5180  0.0003
16816TIP3    H271940   5.196   1.934   2.617 -0.9063  2.8096 -0.1895
16817TIP3   OH271941   1.059   4.873  14.174  0.5464 -0.1217 -0.3759
16817TIP3    H171942   1.126   4.931  14.211 -0.2819  0.1166  0.8111
16817TIP3    H271943   1.051   4.901  14.083  1.1196  0.7406 -0.1732
16818TIP3   OH271944   6.391   1.163  15.879  0.1003  0.1703  0.0420
16818TIP3    H171945   6.353   1.080  15.849  0.1043  0.3488 -0.4687
16818TIP3    H271946   6.340   1.186  15.956 -0.2978 -0.0046 -0.1627
16819TIP3   OH271947   4.432   4.793   1.558  0.0436  0.0461 -0.4188
16819TIP3    H171948   4.456   4.706   1.589 -0.6443  0.6577  2.1133
16819TIP3    H271949   4.337   4.795   1.564  0.1150  1.4243  1.1445
16820TIP3   OH271950   1.147   5.204  14.773  0.2747  0.5753  0.5798
16820TIP3    H171951   1.125   5.297  14.770  0.8533  0.7946  2.1608
16820TIP3    H271952   1.100   5.170  14.849  1.3556 -0.0412  1.0037
16821TIP3   OH271953   4.249   4.863  16.915  0.2629 -0.0887  0.3293
16821TIP3    H171954   4.214   4.931  16.972  0.6284  1.1240 -0.8532
16821TIP3    H271955   4.185   4.856  16.844  1.2556  0.5196 -0.6514
16822TIP3   OH271956   1.918   2.258   3.226 -0.2124  0.0836  0.4744
16822TIP3    H171957   1.975   2.208   3.284 -0.5994 -0.6165  0.2604
16822TIP3    H271958   1.892   2.196   3.158  1.2014  1.1795 -1.1842
16823TIP3   OH271959   2.318   3.011  13.543 -0.5623  0.1354  0.3922
16823TIP3    H171960   2.359   2.967  13.469  0.8867  0.9708  0.6657
16823TIP3    H271961   2.330   2.951  13.617 -1.6337 -0.5080  0.0645
16824TIP3   OH271962   0.805   3.527   0.959 -0.4821 -0.5557 -0.4907
16824TIP3    H171963   0.839   3.550   1.045  0.1826  0.2759 -0.9597
16824TIP3    H271964   0.878   3.542   0.899 -1.0330 -0.8036 -1.2455
16825TIP3   OH271965   3.217   4.945  17.071  0.8284  0.1319  0.0851
16825TIP3    H171966   3.183   4.895  17.145  0.6628 -1.0247 -0.7403
16825TIP3    H271967   3.226   5.034  17.104 -1.7677  0.2315  0.7212
16826TIP3   OH271968   0.709   5.863  13.159  0.1274  0.0075  0.4304
16826TIP3    H171969   0.631   5.900  13.201  0.1720 -0.9311  1.3973
16826TIP3    H271970   0.753   5.938  13.119 -1.7645  0.4430 -0.9910
16827TIP3   OH271971   2.465   3.911   3.989 -0.7635  0.2014 -0.3292
16827TIP3    H171972   2.500   3.931   3.903  0.4392 -0.1046  0.0752
16827TIP3    H271973   2.382   3.867   3.971  0.1410 -1.1836 -1.3915
16828TIP3   OH271974   5.050   3.447   1.429  0.2634  0.2901  0.8545
16828TIP3    H171975   5.032   3.522   1.372 -0.1948 -0.8212 -0.5329
16828TIP3    H271976   4.970   3.395   1.425  0.8086 -0.5892  1.2777
16829TIP3   OH271977   3.766   1.023  13.413  0.4140  0.5181 -0.5028
16829TIP3    H171978   3.806   0.981  13.489 -2.4515 -2.0582 -0.2292
16829TIP3    H271979   3.825   1.004  13.341  1.5347  0.1495  0.4831
16830TIP3   OH271980   3.722   2.142   5.700 -0.1164  0.3879 -0.0227
16830TIP3    H171981   3.788   2.207   5.723 -0.2926  0.9028 -0.9227
16830TIP3    H271982   3.770   2.076   5.650 -0.1186  0.3185  0.0669
16831TIP3   OH271983   5.521   1.887   2.427 -0.9286  0.3309  0.7623
16831TIP3    H171984   5.478   1.829   2.365 -0.6471  0.6512  0.2574
16831TIP3    H271985   5.580   1.940   2.373  0.9428 -0.8346  1.5553
16832TIP3   OH271986   0.054   0.555   4.531  0.0690  0.5841 -0.2437
16832TIP3    H171987  -0.025   0.608   4.529  0.3126  0.9630  0.0270
16832TIP3    H271988   0.123   0.616   4.557  0.5503  0.3911 -1.0251
16833TIP3   OH271989   2.887   0.180  14.091 -0.5444 -0.0003  0.1393
16833TIP3    H171990   2.982   0.172  14.083 -0.3004  0.1495  2.2361
16833TIP3    H271991   2.862   0.245  14.026  0.6679 -0.5871 -0.9584
16834TIP3   OH271992   3.945   1.225  17.048 -0.3097 -0.1964 -0.2745
16834TIP3    H171993   3.968   1.156  17.111  0.5688  0.1597 -0.1796
16834TIP3    H271994   3.866   1.194  17.005 -0.7050 -0.6313  0.7315
16835TIP3   OH271995   4.519   0.122   6.198 -0.1107 -0.3255  0.0743
16835TIP3    H171996   4.519   0.175   6.278 -1.7634 -1.1508  0.6631
16835TIP3    H271997   4.448   0.060   6.210 -0.0853 -0.7968 -1.8547
16836TIP3   OH271998   2.446   6.363   0.833 -0.5677 -0.5791 -0.0677
16836TIP3    H171999   2.375   6.346   0.770 -0.5484 -0.3049 -0.1623
16836TIP3    H272000   2.401   6.391   0.912 -0.5006  2.5590 -1.0019
16837TIP3   OH272001   0.581   3.686  16.412 -0.0372 -0.1915 -0.1764
16837TIP3    H172002   0.567   3.713  16.502  1.1661  1.2320 -0.3746
16837TIP3    H272003   0.494   3.687  16.372 -0.3259  1.1272  0.4588
16838TIP3   OH272004   3.290   1.944   2.696 -0.2006 -0.2095 -0.1193
16838TIP3    H172005   3.314   1.999   2.770 -0.0342  0.6541 -0.7952
16838TIP3    H272006   3.375   1.917   2.659 -0.2818 -0.9092  0.1979
16839TIP3   OH272007   2.334   2.138  12.694 -0.1016 -0.2500 -0.2627
16839TIP3    H172008   2.260   2.081  12.672  0.0131 -0.3342 -0.4333
16839TIP3    H272009   2.316   2.219  12.647  0.6281 -0.7549 -1.4949
16840TIP3   OH272010   2.325   6.295  14.372  0.3054 -0.3293  0.0576
16840TIP3    H172011   2.324   6.200  14.362 -0.1609 -0.4448  1.0794
16840TIP3    H272012   2.259   6.313  14.439  1.0527  0.6216  0.5719
16841TIP3   OH272013   0.459   0.612  13.870 -0.1791 -0.4157 -0.7790
16841TIP3    H172014   0.517   0.633  13.796  0.6197 -0.7002 -0.2539
16841TIP3    H272015   0.428   0.523  13.850  0.5602 -0.7582 -0.4669
16842TIP3   OH272016   5.067   4.399  11.476  0.1279  0.3173 -0.3168
16842TIP3    H172017   5.107   4.365  11.396  0.1633 -0.9050  0.2018
16842TIP3    H272018   5.078   4.329  11.540 -0.7699  0.8949  0.4920
16843TIP3   OH272019   2.259   3.106   3.319  0.1886  0.2002 -0.0178
16843TIP3    H172020   2.262   3.023   3.272  0.5454 -0.3055  0.8811
16843TIP3    H272021   2.173   3.142   3.297  0.6784  0.4261 -1.7709
16844TIP3   OH272022   0.699   5.167   2.441 -0.3753 -0.6030 -0.3346
16844TIP3    H172023   0.686   5.177   2.346 -1.0081 -0.1537 -0.2152
16844TIP3    H272024   0.767   5.230   2.463 -1.1287  0.2227 -0.3040
16845TIP3   OH272025   0.258   1.037   1.175  0.7813 -0.0282  0.1424
16845TIP3    H172026   0.352   1.042   1.190  0.5541  0.4784  1.5190
16845TIP3    H272027   0.233   1.126   1.148  1.0201 -0.6849 -2.5035
16846TIP3   OH272028   1.249   1.606   5.631  0.6943 -0.0829  0.3051
16846TIP3    H172029   1.278   1.532   5.578 -0.4632 -0.3776  0.0530
16846TIP3    H272030   1.157   1.619   5.606  0.7151  1.0688  0.7650
16847TIP3   OH272031   4.887   0.439  16.024 -0.1223 -0.6014 -0.1861
16847TIP3    H172032   4.808   0.491  16.007  0.4238  0.2784 -0.0910
16847TIP3    H272033   4.870   0.355  15.980 -2.0094 -1.2645  1.6043
16848TIP3   OH272034   2.097   0.405  11.218  0.0184 -0.4539  0.2248
16848TIP3    H172035   2.118   0.323  11.174  1.1448 -0.6644  1.1124
16848TIP3    H272036   2.170   0.463  11.197  0.3145 -0.3915  1.3794
16849TIP3   OH272037   0.507   1.493   2.583 -0.0063  0.2227 -0.5264
16849TIP3    H172038   0.430   1.505   2.528 -0.7490 -0.3278  0.3807
16849TIP3    H272039   0.546   1.581   2.589 -0.0798  0.3422 -1.6740
16850TIP3   OH272040   3.508   6.039  10.927 -0.2111 -0.1222 -0.0269
16850TIP3    H172041   3.497   6.027  11.021  0.1764 -4.4029 -0.3226
16850TIP3    H272042   3.575   6.107  10.918 -2.3959  2.6676  2.5575
16851TIP3   OH272043   6.024   6.688   2.500 -0.0442 -0.2584 -0.2042
16851TIP3    H172044   6.050   6.721   2.414 -3.1642  1.9979 -0.4417
16851TIP3    H272045   6.002   6.596   2.485 -0.2413  0.0164 -1.7740
16852TIP3   OH272046   3.748   5.804  14.141  0.2671 -0.6682 -0.5256
16852TIP3    H172047   3.738   5.758  14.225  0.7553 -1.0917 -0.6913
16852TIP3    H272048   3.660   5.809  14.105 -0.0694  0.1815  0.3513
16853TIP3   OH272049   4.642   2.486   2.401 -0.5307 -0.5608 -0.3280
16853TIP3    H172050   4.736   2.501   2.385 -0.5952  0.8195  0.4491
16853TIP3    H272051   4.639   2.399   2.441  0.6910  0.2309  1.6511
16854TIP3   OH272052   1.671   0.713   5.741  0.2303 -0.0477 -0.4318
16854TIP3    H172053   1.594   0.669   5.775  0.5992  0.2705  0.8755
16854TIP3    H272054   1.742   0.651   5.755  0.1856 -0.4644 -1.9089
16855TIP3   OH272055   4.921   5.034   3.605 -0.0103  0.1691  0.1109
16855TIP3    H172056   4.981   4.993   3.542 -0.6705 -0.6179 -0.0155
16855TIP3    H272057   4.834   5.016   3.571 -0.5460 -2.5466  2.5292
16856TIP3   OH272058   6.068   5.833  11.873 -0.0446  0.2858 -0.4010
16856TIP3    H172059   6.029   5.909  11.830  0.2001  0.6188 -0.0397
16856TIP3    H272060   6.114   5.787  11.802 -0.2208  0.4551 -0.6279
16857TIP3   OH272061   3.910   2.268  14.610 -0.2514 -0.4539  0.1564
16857TIP3    H172062   3.840   2.203  14.607 -0.6425 -0.0213 -0.2647
16857TIP3    H272063   3.865   2.352  14.605  0.1430 -0.0777  2.0642
16858TIP3   OH272064   6.443   1.411   5.107 -0.5863  0.1097  0.2064
16858TIP3    H172065   6.479   1.491   5.145 -0.8235  0.0838  0.4891
16858TIP3    H272066   6.452   1.423   5.013 -1.7088  1.0005  0.1801
16859TIP3   OH272067   0.039   3.704   0.676 -0.3289 -0.3036  0.3589
16859TIP3    H172068   0.090   3.676   0.751  1.5289 -1.5083 -1.2590
16859TIP3    H272069   0.100   3.756   0.623 -1.5071  0.3343 -0.4291
16860TIP3   OH272070   0.813   6.584  15.461  0.0495  0.2246 -0.2335
16860TIP3    H172071   0.835   6.671  15.496 -3.2275  0.9279  0.5295
16860TIP3    H272072   0.785   6.535  15.539  0.3655 -0.9680 -0.8674
16861TIP3   OH272073   5.428   1.906   1.489  0.4180 -0.4295 -0.0110
16861TIP3    H172074   5.453   1.998   1.483 -0.8554 -0.0166  0.7075
16861TIP3    H272075   5.373   1.891   1.413  0.2146 -0.4578  0.1405
16862TIP3   OH272076   2.659   3.385  12.796 -0.1840  0.0165  0.0737
16862TIP3    H172077   2.639   3.383  12.889  0.2485  0.4752  0.1798
16862TIP3    H272078   2.574   3.382  12.753 -0.6106  2.7059  0.5237
16863TIP3   OH272079   0.508   1.171   5.407 -0.3556  0.0706  0.3654
16863TIP3    H172080   0.493   1.260   5.377 -0.3815 -0.2281 -0.5442
16863TIP3    H272081   0.575   1.179   5.475 -1.1540  0.8933  1.0881
16864TIP3   OH272082   5.329   3.064   2.223 -0.6124  0.2584  0.4231
16864TIP3    H172083   5.252   3.046   2.170 -1.1221 -3.0769  2.0567
16864TIP3    H272084   5.352   2.980   2.262  1.6064  1.8717  2.9805
16865TIP3   OH272085   3.513   5.369   6.130 -0.7708  0.5275  0.3604
16865TIP3    H172086   3.425   5.397   6.156 -0.1032  1.9908  1.2258
16865TIP3    H272087   3.524   5.284   6.171 -1.6918  0.4312  0.4460
16866TIP3   OH272088   0.675   3.056   3.738  0.2681 -0.5342 -0.4013
16866TIP3    H172089   0.746   2.998   3.709 -0.5292 -1.9940  0.4335
16866TIP3    H272090   0.606   3.043   3.673 -0.3217 -1.3848  0.3713
16867TIP3   OH272091   6.052   4.864  16.961  0.2350  0.6448 -0.6350
16867TIP3    H172092   5.978   4.910  16.922 -1.4886 -1.1677  0.3283
16867TIP3    H272093   6.030   4.859  17.054  1.7646  0.3786 -0.2594
16868TIP3   OH272094   4.418   2.063   3.347 -0.0334  0.4251  0.1222
16868TIP3    H172095   4.342   2.082   3.292  0.1377  0.7573 -0.0079
16868TIP3    H272096   4.417   1.968   3.358 -0.4856  0.4325  0.1512
16869TIP3   OH272097   1.497   3.035   4.185 -0.3987 -0.3339  0.3518
16869TIP3    H172098   1.552   3.030   4.106 -0.4114 -3.2394  0.4094
16869TIP3    H272099   1.407   3.038   4.151 -0.3430  0.5124  0.2674
16870TIP3   OH272100   3.607   2.185   1.193  0.2116 -0.2266 -0.6289
16870TIP3    H172101   3.572   2.182   1.282  2.0196  1.8549  0.2282
16870TIP3    H272102   3.694   2.223   1.203  0.5885 -0.2478 -3.2736
16871TIP3   OH272103   6.046   4.704  10.985  0.1432 -0.8235 -0.0430
16871TIP3    H172104   6.107   4.727  10.915 -0.1182  0.1799  0.0464
16871TIP3    H272105   6.095   4.722  11.066 -0.3701  0.2819  0.0281
16872TIP3   OH272106   5.844   0.380  14.315  0.0695  0.1012 -0.5555
16872TIP3    H172107   5.925   0.361  14.363  0.3166 -0.4882 -1.1876
16872TIP3    H272108   5.775   0.373  14.381  0.2618 -1.9419 -0.5024
16873TIP3   OH272109   3.356   1.482  13.221  0.1173  0.4443  0.0960
16873TIP3    H172110   3.438   1.478  13.271  1.8765  0.5704 -2.5549
16873TIP3    H272111   3.317   1.396  13.230  0.7514  0.2531  1.0811
16874TIP3   OH272112   0.261   2.907   0.454 -0.1126  0.2992 -0.4063
16874TIP3    H172113   0.174   2.910   0.492 -0.7186  1.9276 -1.7662
16874TIP3    H272114   0.253   2.850   0.377 -0.5367  1.9186 -1.6362
16875TIP3   OH272115   1.885   3.150   4.569 -0.5779  0.7372  0.0409
16875TIP3    H172116   1.820   3.080   4.573  0.0444  0.0567 -1.1849
16875TIP3    H272117   1.851   3.212   4.505 -0.1290  0.4894 -0.4419
16876TIP3   OH272118   6.263   4.200   5.761 -0.3175  0.3226  0.0208
16876TIP3    H172119   6.278   4.149   5.682  3.1208 -1.9215  1.8351
16876TIP3    H272120   6.219   4.140   5.821 -0.5389  1.0884  0.6474
16877TIP3   OH272121   1.952   1.101  11.888  0.0407 -0.1961 -0.3845
16877TIP3    H172122   1.921   1.145  11.809 -0.5616  1.1811  0.5751
16877TIP3    H272123   1.903   1.019  11.890 -1.1391  0.4755 -0.6179
16878TIP3   OH272124   0.765   0.803   0.509  0.5048  0.0962 -0.3013
16878TIP3    H172125   0.728   0.774   0.593 -0.1457 -1.0121 -0.9539
16878TIP3    H272126   0.747   0.731   0.448  2.0853  0.3275 -1.1066
16879TIP3   OH272127   0.768   4.000  15.289  0.0363  0.4354  0.4066
16879TIP3    H172128   0.856   4.033  15.306 -0.0047  0.7608  0.0050
16879TIP3    H272129   0.774   3.906  15.304  0.7574  0.2726 -0.7603
16880TIP3   OH272130   1.164   3.950   4.902 -0.7022 -0.1959 -0.2867
16880TIP3    H172131   1.088   4.008   4.899 -1.1633 -0.7402  0.3129
16880TIP3    H272132   1.127   3.865   4.927  0.1415 -0.4004  0.3164
16881TIP3   OH272133   5.759   3.164  12.258 -0.2140  0.0701  0.0729
16881TIP3    H172134   5.759   3.138  12.350  2.6131 -0.7864 -0.0796
16881TIP3    H272135   5.716   3.091  12.213  0.4400 -0.5881  0.4946
16882TIP3   OH272136   3.868   5.921   2.258 -1.0517  0.0091  0.4789
16882TIP3    H172137   3.788   5.903   2.309 -1.4233  0.5167  0.0767
16882TIP3    H272138   3.936   5.933   2.324 -1.2448 -0.6953  0.8208
16883TIP3   OH272139   3.559   5.249   4.227 -0.0268  1.3225  0.0801
16883TIP3    H172140   3.489   5.283   4.282  0.6873 -0.6360  2.3725
16883TIP3    H272141   3.516   5.223   4.146 -1.2951  3.4135  0.0223
16884TIP3   OH272142   5.047   4.238   0.092 -0.3176  0.1447 -0.5095
16884TIP3    H172143   5.021   4.145   0.095 -3.0686  0.7656 -1.6833
16884TIP3    H272144   4.970   4.284   0.126  1.1998  2.0145  0.5427
16885TIP3   OH272145   0.123   4.539  12.509  0.5184  0.8514  0.6344
16885TIP3    H172146   0.206   4.492  12.511  1.1924  1.9592 -0.2744
16885TIP3    H272147   0.105   4.559  12.601 -0.2329 -1.8544  1.1629
16886TIP3   OH272148   3.853   2.855  12.637 -1.0529 -0.3485  0.2533
16886TIP3    H172149   3.767   2.823  12.610 -0.5054 -2.0276  0.3868
16886TIP3    H272150   3.872   2.808  12.718 -0.4505  0.8068  0.8091
16887TIP3   OH272151   4.280   5.603  15.170 -0.2860 -0.4553  0.1806
16887TIP3    H172152   4.283   5.597  15.075  2.0645  0.9309  0.0856
16887TIP3    H272153   4.297   5.695  15.189 -0.9062 -0.6683  1.9480
16888TIP3   OH272154   0.862   4.056  14.397 -0.1603 -0.0719  0.2013
16888TIP3    H172155   0.919   3.987  14.431 -0.7255 -0.7460 -0.2002
16888TIP3    H272156   0.880   4.058  14.303  2.8207  3.0912  0.6418
16889TIP3   OH272157   4.911   5.984  15.351 -0.1923  0.5572  0.0682
16889TIP3    H172158   4.924   6.076  15.374  1.8597  0.1402  0.8057
16889TIP3    H272159   4.888   5.942  15.434 -1.5294  0.4408 -0.3411
16890TIP3   OH272160   1.334   4.252  15.741  0.2858 -0.3354  0.0962
16890TIP3    H172161   1.241   4.248  15.717 -0.4095  0.1004  2.4467
16890TIP3    H272162   1.347   4.175  15.797  1.4836 -0.6352 -0.5720
16891TIP3   OH272163   6.395   5.101   1.156 -0.1107 -0.1369 -0.3129
16891TIP3    H172164   6.425   5.191   1.149 -1.3918  0.3291  0.1003
16891TIP3    H272165   6.451   5.053   1.094  0.2707  1.0058 -0.8766
16892TIP3   OH272166   0.699   1.990   3.959 -0.2393 -0.0652  0.1466
16892TIP3    H172167   0.693   1.900   3.991 -0.5740  0.3433  1.2803
16892TIP3    H272168   0.754   1.984   3.881  0.6471 -1.0993  0.8125
16893TIP3   OH272169   5.734   0.909   0.425 -0.5965 -0.2639 -0.3959
16893TIP3    H172170   5.745   0.888   0.518 -0.1491  0.3375 -0.3033
16893TIP3    H272171   5.708   0.827   0.384 -2.7602 -0.1374  0.5669
16894TIP3   OH272172   3.141   2.267   3.770  0.3453 -0.3146 -0.5802
16894TIP3    H172173   3.077   2.328   3.733  1.9854 -0.5743 -4.2802
16894TIP3    H272174   3.216   2.322   3.794  0.7507 -0.5255 -1.3142
16895TIP3   OH272175   2.503   0.995   4.826 -0.3963  0.0999 -0.9203
16895TIP3    H172176   2.505   1.004   4.731  0.8117 -1.1708 -1.0564
16895TIP3    H272177   2.488   0.901   4.841 -0.2988  0.2344  0.1371
16896TIP3   OH272178   0.114   1.019   4.676  0.0689 -0.2315 -0.4285
16896TIP3    H172179   0.022   1.019   4.651 -0.3351  3.0525  0.5160
16896TIP3    H272180   0.146   1.106   4.649  2.6458 -0.9235  0.1101
16897TIP3   OH272181   0.189   1.315   5.239 -0.2203  0.1081 -0.3541
16897TIP3    H172182   0.121   1.356   5.185 -0.2680  0.0039 -0.3732
16897TIP3    H272183   0.263   1.304   5.180  0.2455  1.3227 -0.0383
16898TIP3   OH272184   1.802   2.011   2.324  0.2950  0.5264  0.2899
16898TIP3    H172185   1.852   1.958   2.386 -1.3395 -1.2290  0.2123
16898TIP3    H272186   1.831   1.981   2.238  0.7994  1.2112  0.2147
16899TIP3   OH272187   1.243   0.595   3.492 -0.4351  0.4760 -0.3213
16899TIP3    H172188   1.247   0.688   3.513  1.6953  0.5650 -0.8938
16899TIP3    H272189   1.273   0.589   3.401  2.7797 -0.9819  0.6669
16900TIP3   OH272190   4.368   3.630  15.465 -0.5653 -0.1642 -0.0836
16900TIP3    H172191   4.331   3.644  15.552 -2.5064 -1.5191 -0.6225
16900TIP3    H272192   4.430   3.558  15.477  0.1648  0.5111  0.3713
16901TIP3   OH272193   2.610   3.361  13.068 -0.2573  0.2592  0.1338
16901TIP3    H172194   2.526   3.354  13.113 -0.3931  1.2054  0.0354
16901TIP3    H272195   2.665   3.294  13.110 -0.6932  0.4384  1.0133
16902TIP3   OH272196   6.675   4.874  14.883 -0.3827 -0.3279 -0.2178
16902TIP3    H172197   6.768   4.863  14.863 -0.0713  0.7770  0.5593
16902TIP3    H272198   6.665   4.840  14.972 -0.5878  0.1534 -0.0524
16903TIP3   OH272199   2.152   4.445  10.981 -0.3181  0.0707  0.2221
16903TIP3    H172200   2.162   4.540  10.970 -0.0542 -0.2566 -3.2233
16903TIP3    H272201   2.080   4.436  11.043 -0.7786  2.5321  0.1445
16904TIP3   OH272202   0.966   0.229  11.745 -0.1436  0.5733  0.5604
16904TIP3    H172203   0.888   0.283  11.730 -0.0904  0.6187  0.4518
16904TIP3    H272204   0.931   0.143  11.768 -0.2244  0.1173 -1.1402
16905TIP3   OH272205   4.329   1.452  12.940 -0.0513  0.1167  0.5277
16905TIP3    H172206   4.394   1.431  13.007 -1.7056 -2.5470  1.4658
16905TIP3    H272207   4.277   1.522  12.978 -0.1042 -0.4045  1.4304
16906TIP3   OH272208   2.837   5.271  15.016 -0.1149  0.0868  0.1339
16906TIP3    H172209   2.929   5.267  15.042  0.1838 -1.9000 -1.0073
16906TIP3    H272210   2.837   5.240  14.925 -1.8900  0.2519  0.0499
16907TIP3   OH272211   1.531   0.931   2.193  0.2139 -0.3687 -0.0562
16907TIP3    H172212   1.445   0.932   2.153  0.7703 -0.6394 -1.3269
16907TIP3    H272213   1.529   1.000   2.259 -1.6206 -1.7334  1.4001
16908TIP3   OH272214   3.213   3.427  15.327  0.6252  0.7587 -0.6521
16908TIP3    H172215   3.147   3.480  15.281 -0.0168 -0.0282 -0.6599
16908TIP3    H272216   3.252   3.488  15.390 -1.2618  0.8624  0.4960
16909TIP3   OH272217   0.562   4.804   1.699 -0.2351  0.1381  0.2760
16909TIP3    H172218   0.471   4.833   1.694 -0.1921  0.3516  0.6723
16909TIP3    H272219   0.558   4.709   1.689 -0.5237  0.1250  0.5108
16910TIP3   OH272220   4.987   2.595   2.589 -0.3214  0.2347  0.2923
16910TIP3    H172221   5.052   2.620   2.524 -0.3124 -0.6438 -0.0457
16910TIP3    H272222   4.977   2.500   2.579 -1.6731  0.3545  0.3171
16911TIP3   OH272223   2.630   0.081  17.095 -0.3840  0.2052 -0.5109
16911TIP3    H172224   2.545   0.042  17.076 -1.0551  1.9192 -1.2984
16911TIP3    H272225   2.676   0.080  17.011 -0.9456  2.2061 -0.9162
16912TIP3   OH272226   6.251   4.172  14.910 -0.1583  0.2946  0.4265
16912TIP3    H172227   6.257   4.228  14.833 -0.5595  2.0002  1.5669
16912TIP3    H272228   6.163   4.134  14.905  0.4640 -1.0954 -0.8644
16913TIP3   OH272229   1.205   3.115  11.846 -0.3530 -0.2303  0.3512
16913TIP3    H172230   1.289   3.075  11.867 -0.4635 -0.5724  0.1421
16913TIP3    H272231   1.227   3.205  11.821 -0.1237 -0.1052  0.9857
16914TIP3   OH272232   6.745   6.461  14.755  0.1524 -0.4595 -0.1049
16914TIP3    H172233   6.801   6.525  14.711 -1.0645 -0.1633 -1.2568
16914TIP3    H272234   6.807   6.405  14.804  1.2662  1.2883  0.5804
16915TIP3   OH272235   4.646   2.735   4.505  0.1538  1.0211  0.2887
16915TIP3    H172236   4.671   2.660   4.560  1.8039  1.9215  0.8170
16915TIP3    H272237   4.640   2.699   4.417 -1.3367 -0.1919  0.8311
16916TIP3   OH272238   6.513   5.391   1.131 -0.2659  0.0104 -0.0645
16916TIP3    H172239   6.435   5.433   1.096  0.2504  0.4739 -0.6785
16916TIP3    H272240   6.582   5.457   1.123  0.8897 -1.3345 -2.2830
16917TIP3   OH272241   2.755   6.604  13.037  0.2220 -0.1742 -0.1917
16917TIP3    H172242   2.756   6.518  12.995  0.3779 -0.7228  0.8942
16917TIP3    H272243   2.837   6.607  13.087 -0.8038 -0.3523  1.6019
16918TIP3   OH272244   2.273   0.121  13.988  0.0085 -0.5522  0.1414
16918TIP3    H172245   2.358   0.116  13.944  0.2359 -1.7018  0.6684
16918TIP3    H272246   2.291   0.166  14.070  0.0777 -0.6338  0.1716
16919TIP3   OH272247   3.299   6.774  11.986 -0.1160  0.0439  0.1956
16919TIP3    H172248   3.263   6.715  11.921 -1.3926  0.7808  0.2075
16919TIP3    H272249   3.306   6.858  11.941 -1.1299  0.5905  1.0124
16920TIP3   OH272250   2.231   4.279  13.551 -0.0886 -0.9208 -0.7282
16920TIP3    H172251   2.139   4.257  13.563 -1.5339  4.6217  1.1904
16920TIP3    H272252   2.261   4.304  13.639  2.7239 -0.7198 -1.6561
16921TIP3   OH272253   4.722   2.507   1.036  0.2378 -0.3363  0.3809
16921TIP3    H172254   4.805   2.460   1.027 -0.3940 -1.6544  1.1090
16921TIP3    H272255   4.742   2.579   1.095  1.1310  0.0689 -0.3955
16922TIP3   OH272256   6.451   4.592   2.181  0.2864 -0.3149  0.2467
16922TIP3    H172257   6.543   4.571   2.197 -0.3644 -2.5376  1.5274
16922TIP3    H272258   6.404   4.511   2.203 -2.0484  1.0110  0.4299
16923TIP3   OH272259   2.561   1.688  10.447 -0.0334  0.2377 -0.1177
16923TIP3    H172260   2.652   1.715  10.433  0.3258 -0.7658  0.1483
16923TIP3    H272261   2.568   1.613  10.507 -0.9431 -0.6113 -1.0401
16924TIP3   OH272262   4.940   4.273   0.706  0.1584  0.9144  0.2926
16924TIP3    H172263   4.986   4.189   0.717  0.7697  1.4472  2.2770
16924TIP3    H272264   4.960   4.299   0.616  1.7364 -0.0653  0.3061
16925TIP3   OH272265   3.500   3.378  15.408  0.5725 -0.4330 -0.0428
16925TIP3    H172266   3.579   3.350  15.363  0.1292  1.0393 -1.8333
16925TIP3    H272267   3.436   3.394  15.338 -0.4233  1.1216  1.1543
16926TIP3   OH272268   4.680   1.973  16.838  0.1081 -0.0249  0.1907
16926TIP3    H172269   4.766   1.940  16.812 -0.0776 -1.0486  0.8476
16926TIP3    H272270   4.651   1.915  16.908 -0.7970  0.7668  0.5027
16927TIP3   OH272271   4.580   5.457  13.584  0.1305  0.1018  0.9433
16927TIP3    H172272   4.584   5.448  13.489  0.4358 -0.8254  1.0310
16927TIP3    H272273   4.672   5.454  13.612  0.2361  2.6500  1.1056
16928TIP3   OH272274   3.865   5.974   4.623 -0.2968  0.3283  0.0734
16928TIP3    H172275   3.903   6.050   4.669  0.1396  1.4927 -2.0633
16928TIP3    H272276   3.938   5.936   4.575 -1.1086  0.4687 -1.3371
16929TIP3   OH272277   4.775   0.873   6.352 -0.0218 -0.3616  0.3257
16929TIP3    H172278   4.800   0.781   6.361  2.5955  0.4147  1.9414
16929TIP3    H272279   4.724   0.892   6.432 -0.0451 -0.2640  0.2881
16930TIP3   OH272280   0.994   2.058  12.553 -0.0052 -0.4603 -0.2404
16930TIP3    H172281   1.043   2.025  12.477  2.9705  1.3287  0.7161
16930TIP3    H272282   1.058   2.111  12.601 -2.8003  1.5671  1.5341
16931TIP3   OH272283   3.006   5.599  13.480 -0.2733 -0.4684  0.0183
16931TIP3    H172284   2.970   5.687  13.492  1.6474  0.4298 -0.3681
16931TIP3    H272285   2.943   5.541  13.523 -0.8906  1.2195  1.5253
16932TIP3   OH272286   5.711   2.165  11.921  0.1878  0.0773 -0.0012
16932TIP3    H172287   5.773   2.220  11.970 -1.4008  2.7946 -0.7883
16932TIP3    H272288   5.645   2.140  11.986  0.1942  0.3096  0.0965
16933TIP3   OH272289   1.946   3.667   3.347  0.8493 -0.1064  0.6092
16933TIP3    H172290   2.007   3.650   3.419  0.6226 -1.6169  0.4836
16933TIP3    H272291   1.861   3.678   3.390  0.7770 -0.6393  0.6133
16934TIP3   OH272292   6.225   3.861   0.532  0.3007  0.1636  0.3559
16934TIP3    H172293   6.260   3.948   0.554  1.2799  0.1380 -0.9754
16934TIP3    H272294   6.299   3.815   0.493 -0.1016 -1.4346  1.4105
16935TIP3   OH272295   2.369   0.519   4.345  0.2394  0.0609  0.0483
16935TIP3    H172296   2.396   0.431   4.370  1.9817  0.8323  1.0235
16935TIP3    H272297   2.450   0.564   4.321 -0.5688  1.5188 -0.1270
16936TIP3   OH272298   1.712   4.434   1.675  0.5376  0.3078 -0.4739
16936TIP3    H172299   1.694   4.524   1.647  2.4473  0.6646 -0.6936
16936TIP3    H272300   1.807   4.431   1.688  0.2465 -1.0165  1.9433
16937TIP3   OH272301   5.056   0.386  16.451 -0.2542  0.4304 -0.2673
16937TIP3    H172302   5.052   0.377  16.356 -0.5116 -0.9925 -0.1576
16937TIP3    H272303   4.964   0.397  16.478 -0.1663  0.9950 -0.1992
16938TIP3   OH272304   0.733   0.326   1.878  0.3249 -0.8955 -0.6496
16938TIP3    H172305   0.696   0.278   1.803 -0.0534 -2.1311  0.2940
16938TIP3    H272306   0.793   0.264   1.918  2.2429  0.5276 -1.1938
16939TIP3   OH272307   5.646   6.743   4.513  0.7108  0.1945 -0.8286
16939TIP3    H172308   5.615   6.822   4.469  0.4127  0.9468  0.6892
16939TIP3    H272309   5.580   6.676   4.493 -0.6726  1.1472  0.3738
16940TIP3   OH272310   0.384   2.755   5.521 -0.0763 -0.1116 -0.9756
16940TIP3    H172311   0.309   2.815   5.516 -0.2425 -0.4073 -2.2108
16940TIP3    H272312   0.461   2.812   5.519 -0.2453  0.1338 -0.6580
16941TIP3   OH272313   1.744   2.722   1.838 -0.0777 -0.5457 -0.3807
16941TIP3    H172314   1.650   2.735   1.853 -0.0074 -0.4028 -0.0471
16941TIP3    H272315   1.748   2.653   1.772 -0.4165 -0.8809 -0.0633
16942TIP3   OH272316   1.221   4.486   5.676  0.0245 -0.0866  0.4167
16942TIP3    H172317   1.223   4.508   5.769 -1.7812  1.0681  0.2177
16942TIP3    H272318   1.172   4.404   5.671 -0.1208 -0.0022  0.4567
16943TIP3   OH272319   0.556   0.032  12.590  0.2283 -0.5408  0.7116
16943TIP3    H172320   0.627   0.030  12.526  0.8466 -0.8618  1.3867
16943TIP3    H272321   0.557  -0.057  12.628 -1.0627 -0.8047  0.1597
16944TIP3   OH272322   4.264   2.582   2.088  0.0739 -0.2344 -0.6996
16944TIP3    H172323   4.241   2.639   2.161  1.1825  1.6357 -1.7160
16944TIP3    H272324   4.194   2.517   2.085 -0.4105  0.1145  1.5059
16945TIP3   OH272325   1.082   5.791   0.379 -0.0101  0.2994 -0.4536
16945TIP3    H172326   1.091   5.771   0.286  0.0614 -0.0144 -0.3799
16945TIP3    H272327   1.019   5.727   0.412 -0.9146  1.1233 -0.5191
16946TIP3   OH272328   6.712   3.893   0.246 -0.1263 -0.1036 -0.2051
16946TIP3    H172329   6.710   3.989   0.255 -0.4438 -0.1036 -0.2575
16946TIP3    H272330   6.768   3.863   0.318  2.9331  0.3489 -2.1998
16947TIP3   OH272331   4.402   2.048   4.431 -0.4111  0.2484  0.2071
16947TIP3    H172332   4.349   1.987   4.379  0.5984 -0.7807  0.3432
16947TIP3    H272333   4.346   2.074   4.503 -0.3626 -1.7674  1.0255
16948TIP3   OH272334   6.628   2.016   2.733 -0.2278 -0.1495 -0.0218
16948TIP3    H172335   6.563   2.087   2.730  1.9490  1.9660 -0.9746
16948TIP3    H272336   6.622   1.975   2.647 -0.7608 -0.4306  0.1442
16949TIP3   OH272337   4.879   2.685   0.524 -0.3626 -0.3852 -0.1115
16949TIP3    H172338   4.954   2.649   0.477  0.0989 -1.7554  1.5929
16949TIP3    H272339   4.805   2.673   0.464  0.7801  1.4629 -2.0291
16950TIP3   OH272340   5.353   1.747  16.147 -0.5412 -0.5123 -0.2284
16950TIP3    H172341   5.324   1.830  16.186 -0.4916 -0.6627  0.1303
16950TIP3    H272342   5.414   1.773  16.079 -0.3227 -0.2598  0.0588
16951TIP3   OH272343   0.771   0.853   0.002 -0.1971  0.3006  0.2092
16951TIP3    H172344   0.798   0.766  -0.027 -0.7032  0.0403  0.4999
16951TIP3    H272345   0.798   0.858   0.094 -0.6409  0.2400  0.3489
16952TIP3   OH272346   1.397   3.650   6.144  0.4645 -0.5524  0.0730
16952TIP3    H172347   1.352   3.567   6.156  0.9313 -0.7771  0.2863
16952TIP3    H272348   1.489   3.631   6.164  0.5962 -0.0179 -0.0045
16953TIP3   OH272349   3.911   1.852  11.581  0.7262  0.1374  0.1819
16953TIP3    H172350   3.971   1.917  11.618 -2.3455  2.4993  1.4713
16953TIP3    H272351   3.872   1.810  11.657 -1.1625  0.5965 -0.4842
16954TIP3   OH272352   4.154   2.950  15.044  0.0899  0.3303  0.4000
16954TIP3    H172353   4.179   2.953  15.136  1.0842 -0.7613  0.1892
16954TIP3    H272354   4.183   2.864  15.014 -3.6361 -0.9659  0.0046
16955TIP3   OH272355   3.469   2.051   4.097  0.6448 -0.2703 -0.1544
16955TIP3    H172356   3.405   2.096   4.152  1.3611  1.9035 -0.9762
16955TIP3    H272357   3.424   2.041   4.013  1.0862  0.5963 -0.5113
16956TIP3   OH272358   3.644   0.735  14.764  0.0691 -0.5902 -1.0214
16956TIP3    H172359   3.609   0.824  14.767 -0.7477 -0.8891 -1.4701
16956TIP3    H272360   3.639   0.705  14.855 -0.8150 -0.6165 -1.0721
16957TIP3   OH272361   5.017   5.915   1.095  0.4027 -1.0327 -0.6734
16957TIP3    H172362   4.929   5.880   1.110 -0.1584  0.1294 -1.1538
16957TIP3    H272363   5.007   5.972   1.018  1.3507 -0.0971 -0.1242
16958TIP3   OH272364   6.554   5.578  11.597  0.3954 -0.1811 -0.0510
16958TIP3    H172365   6.612   5.529  11.656 -0.8189  2.1576  3.3899
16958TIP3    H272366   6.479   5.602  11.652 -1.4681  1.1563 -2.9546
16959TIP3   OH272367   4.020   3.914   1.170 -0.3083 -0.9547 -0.7095
16959TIP3    H172368   3.981   4.001   1.161 -0.5845 -0.9408  0.4422
16959TIP3    H272369   3.945   3.855   1.169 -0.3446 -0.9816  0.8334
16960TIP3   OH272370   4.322   2.840  15.602  0.5993 -0.0222 -0.0823
16960TIP3    H172371   4.325   2.816  15.695 -0.2013 -0.3687 -0.1377
16960TIP3    H272372   4.395   2.792  15.563  0.6852 -0.2125  0.2995
16961TIP3   OH272373   1.234   0.332  15.502  0.6009 -0.0973  0.6605
16961TIP3    H172374   1.164   0.311  15.563  1.1146  0.7128  1.5590
16961TIP3    H272375   1.228   0.265  15.434 -0.7618 -0.2868  0.9455
16962TIP3   OH272376   3.316   4.688   0.674  0.9037 -0.6073 -0.2875
16962TIP3    H172377   3.221   4.685   0.662  0.9515 -0.5696 -0.6661
16962TIP3    H272378   3.329   4.759   0.737  0.6825 -0.6092 -0.2369
16963TIP3   OH272379   5.629   5.606  13.777 -0.0837 -0.7383 -0.1791
16963TIP3    H172380   5.604   5.599  13.869  0.4073 -0.4160 -0.0191
16963TIP3    H272381   5.670   5.522  13.757  1.1923 -0.2484  0.3264
16964TIP3   OH272382   0.952   5.477  10.571  0.2876  0.4933  0.1178
16964TIP3    H172383   0.870   5.431  10.560  0.6180 -0.2273  0.6124
16964TIP3    H272384   0.929   5.557  10.619 -0.3244  0.9944 -0.9840
16965TIP3   OH272385   0.215   4.766   5.755 -0.4479  0.3729 -0.0606
16965TIP3    H172386   0.156   4.691   5.763 -0.5622  0.3524 -0.9299
16965TIP3    H272387   0.162   4.840   5.784 -1.1641  0.4528 -1.4724
16966TIP3   OH272388   4.902   5.547  13.197 -0.3509  0.0719  0.1238
16966TIP3    H172389   4.974   5.609  13.196 -1.1204  1.0640 -3.1753
16966TIP3    H272390   4.944   5.461  13.191  0.5922  0.5878 -0.8287
16967TIP3   OH272391   3.122   3.692  12.122  0.2746 -0.1018 -0.3541
16967TIP3    H172392   3.037   3.735  12.110  0.6173  0.8044  0.3935
16967TIP3    H272393   3.115   3.612  12.069 -1.3628 -0.4750  0.3434
16968TIP3   OH272394   5.921   5.011   3.727 -0.3876  0.4053 -0.5806
16968TIP3    H172395   5.893   4.946   3.791  1.3422 -0.5068 -0.6785
16968TIP3    H272396   5.930   5.092   3.777 -1.2356  0.2400 -0.1536
16969TIP3   OH272397   5.359   3.388  14.292  0.0908 -0.3759 -0.1325
16969TIP3    H172398   5.374   3.468  14.242 -0.5118 -1.1693 -1.6458
16969TIP3    H272399   5.276   3.402  14.336  0.6316  0.3342  0.6865
16970TIP3   OH272400   2.125   5.350  15.786 -0.0178  0.7375 -0.2916
16970TIP3    H172401   2.047   5.404  15.796 -1.1270 -0.3606 -2.3866
16970TIP3    H272402   2.132   5.334  15.692  2.4026  0.2740 -0.1065
16971TIP3   OH272403   2.437   0.993   1.361 -0.1882  0.4908 -0.5702
16971TIP3    H172404   2.364   1.041   1.322  0.5030 -0.0063 -2.5945
16971TIP3    H272405   2.441   1.025   1.451 -2.3604  1.1292 -0.6330
16972TIP3   OH272406   3.181   2.205   0.789  0.2537 -0.1182 -0.1430
16972TIP3    H172407   3.130   2.237   0.715 -0.1185  0.2430  0.2595
16972TIP3    H272408   3.157   2.264   0.861  2.2031  0.8645 -0.2430
16973TIP3   OH272409   2.419   0.425  12.665  0.0077  0.0298  0.4880
16973TIP3    H172410   2.433   0.365  12.738 -2.1496 -2.1998 -0.8124
16973TIP3    H272411   2.325   0.444  12.666  0.2041  1.2604 -0.7705
16974TIP3   OH272412   6.357   6.823  13.618 -0.0645 -0.0924 -0.1068
16974TIP3    H172413   6.281   6.764  13.613 -0.3296  0.3233 -1.2865
16974TIP3    H272414   6.323   6.908  13.591  0.9052  0.0217 -1.0104
16975TIP3   OH272415   1.798   4.236  11.882  0.0988 -0.3999  0.2811
16975TIP3    H172416   1.827   4.306  11.941  0.4501  0.2812 -0.6575
16975TIP3    H272417   1.808   4.156  11.932  2.0743 -0.0211  0.5653
16976TIP3   OH272418   3.102   6.189   1.045  0.3246 -1.1249  0.2306
16976TIP3    H172419   3.118   6.250   1.117  0.2347 -1.2436  0.3505
16976TIP3    H272420   3.186   6.144   1.033  1.3166  1.0212 -1.7548
16977TIP3   OH272421   4.440   5.789   1.747  0.0050  0.6034  0.3084
16977TIP3    H172422   4.408   5.818   1.662 -0.0461  0.1803  0.1778
16977TIP3    H272423   4.361   5.781   1.801 -0.2685 -1.3659 -0.2942
16978TIP3   OH272424   3.054   5.489  12.489 -0.2175  0.1417  0.0089
16978TIP3    H172425   3.027   5.562  12.544  0.6866 -0.1555  0.8707
16978TIP3    H272426   2.973   5.461  12.446 -0.5177  1.8265 -0.5921
16979TIP3   OH272427   1.023   6.348  16.529 -0.0201  0.2199 -1.0720
16979TIP3    H172428   1.002   6.260  16.497  0.4598 -0.8784  1.4103
16979TIP3    H272429   1.102   6.373  16.481  0.8915 -1.5138 -0.5442
16980TIP3   OH272430   1.630   1.527  11.512 -0.5646  0.0203 -0.3582
16980TIP3    H172431   1.556   1.568  11.556 -0.5430  0.4781 -0.7299
16980TIP3    H272432   1.591   1.463  11.452 -0.6758  0.3839 -0.6804
16981TIP3   OH272433   6.525   2.549   6.470 -0.2825  0.2439  0.5907
16981TIP3    H172434   6.599   2.515   6.521  0.4207  1.0471  0.1402
16981TIP3    H272435   6.514   2.639   6.501 -0.0972  0.6135 -0.3804
16982TIP3   OH272436   6.550   3.883  13.414  0.3245 -0.3426 -0.1103
16982TIP3    H172437   6.592   3.956  13.367 -1.3993  0.7266 -0.1023
16982TIP3    H272438   6.466   3.872  13.370  0.7388 -2.7304 -0.4392
16983TIP3   OH272439   0.632   5.966  15.985 -0.1927 -0.0475 -0.4791
16983TIP3    H172440   0.564   6.032  15.995  0.0720  0.5344 -2.1983
16983TIP3    H272441   0.641   5.954  15.890  1.8753 -0.3347 -0.3038
16984TIP3   OH272442   4.293   4.891  14.070 -0.4963  0.4971  0.3568
16984TIP3    H172443   4.249   4.904  14.154 -0.6131 -0.0232  0.3777
16984TIP3    H272444   4.379   4.931  14.082 -0.4401  0.2552  0.7933
16985TIP3   OH272445   3.660   0.081  14.795  0.2609 -0.1634  0.6053
16985TIP3    H172446   3.744   0.035  14.799 -0.8624 -2.5350 -0.7839
16985TIP3    H272447   3.650   0.106  14.703 -0.8112 -0.4585  0.6218
16986TIP3   OH272448   5.005   5.260  16.935 -0.0099 -0.0781  0.3594
16986TIP3    H172449   4.968   5.246  17.023 -0.4087  0.3325  0.2649
16986TIP3    H272450   5.098   5.272  16.950 -0.0634 -0.0937  0.7227
16987TIP3   OH272451   5.402   3.338  13.349 -0.5196 -0.3217  0.7171
16987TIP3    H172452   5.485   3.314  13.308  0.9353  0.9677  2.6810
16987TIP3    H272453   5.337   3.286  13.304  1.6648 -3.4643  0.8380
16988TIP3   OH272454   6.656   3.328  15.915  0.2146  0.2870  0.0260
16988TIP3    H172455   6.665   3.388  15.841 -2.9159  0.3191 -0.4259
16988TIP3    H272456   6.714   3.255  15.894  1.8252  1.7378 -0.8352
16989TIP3   OH272457   0.529   4.088  15.992 -0.3234 -0.1651  0.3398
16989TIP3    H172458   0.535   3.993  15.990 -0.7966 -0.1920 -1.3867
16989TIP3    H272459   0.616   4.118  15.965  0.2937 -0.0459  2.3156
16990TIP3   OH272460   0.070   2.179   5.354 -0.1560 -0.3295 -0.6084
16990TIP3    H172461   0.010   2.244   5.390 -0.7247 -0.0542 -1.9751
16990TIP3    H272462   0.154   2.196   5.396 -0.5707  0.5623 -0.1251
16991TIP3   OH272463   3.066   4.043  16.852  0.1920  0.2534  0.9311
16991TIP3    H172464   3.110   3.958  16.848  2.6286  1.3108  2.9431
16991TIP3    H272465   3.127   4.104  16.811 -1.0376  1.2360  0.4955
16992TIP3   OH272466   6.646   1.942  16.104 -0.1009  0.1452  0.0037
16992TIP3    H172467   6.607   1.873  16.158  1.8255 -0.5344  0.6027
16992TIP3    H272468   6.717   1.977  16.158  0.8508  0.5641 -1.4693
16993TIP3   OH272469   4.621   6.226  12.826  0.7594  0.3930 -0.0371
16993TIP3    H172470   4.574   6.307  12.848  0.3071  0.2835 -0.5732
16993TIP3    H272471   4.569   6.187  12.755 -0.0038 -1.2653  1.3747
16994TIP3   OH272472   0.208   5.077  10.710  0.8010 -0.6418 -0.3823
16994TIP3    H172473   0.199   5.088  10.616  0.3139 -0.6919 -0.3447
16994TIP3    H272474   0.275   5.009  10.720 -2.1319 -3.9188 -0.8537
16995TIP3   OH272475   2.899   1.082  10.849 -0.2315 -0.0903  0.2722
16995TIP3    H172476   2.860   1.011  10.798 -1.0376  0.2175  0.4489
16995TIP3    H272477   2.980   1.104  10.802 -0.0391 -1.0410  0.1557
16996TIP3   OH272478   3.642   0.576  13.165 -0.0654  0.5627  0.8004
16996TIP3    H172479   3.708   0.613  13.224 -1.0933  1.7894  1.2101
16996TIP3    H272480   3.586   0.524  13.221 -0.2548  0.6366  0.6803
16997TIP3   OH272481   4.848   6.808  11.184  0.1595  0.4832 -0.0535
16997TIP3    H172482   4.901   6.791  11.106 -0.7753  0.0411 -0.6164
16997TIP3    H272483   4.780   6.868  11.154  0.9993  1.9820  0.9441
16998TIP3   OH272484   1.878   4.831   0.035 -0.3182 -0.2233  0.1289
16998TIP3    H172485   1.905   4.916   0.000  0.9324 -1.3703 -1.9499
16998TIP3    H272486   1.895   4.837   0.129  1.4494  1.2544 -0.2237
16999TIP3   OH272487   1.817   5.914  14.843  0.0964 -0.0243  0.2568
16999TIP3    H172488   1.890   5.966  14.876 -0.3195  0.1269  0.9489
16999TIP3    H272489   1.757   5.978  14.804  0.9116 -0.2611 -1.4712
17000TIP3   OH272490   4.560   3.368   4.161  0.4148 -0.2096 -0.1350
17000TIP3    H172491   4.489   3.319   4.120 -0.5489 -1.0333  2.3422
17000TIP3    H272492   4.537   3.460   4.147 -0.1890 -0.4671 -0.8877
17001TIP3   OH272493   6.680   5.446   2.031  0.2921  0.1033 -0.3847
17001TIP3    H172494   6.591   5.442   2.068 -0.5272  0.9437 -2.1291
17001TIP3    H272495   6.702   5.356   2.010 -0.9746  0.0687 -1.7022
17002TIP3   OH272496   6.317   2.533   2.310  0.4476  0.3365  0.0866
17002TIP3    H172497   6.259   2.476   2.258 -0.4272  3.2774 -2.4856
17002TIP3    H272498   6.372   2.576   2.245  0.8278  2.6244  1.8143
17003TIP3   OH272499   0.379   0.413   5.044 -0.1138  0.2907  0.2451
17003TIP3    H172500   0.404   0.503   5.024 -1.8102  1.0482  1.2632
17003TIP3    H272501   0.430   0.391   5.122 -0.2426  0.6438  0.4300
17004TIP3   OH272502   5.319   6.283   2.084  0.4222 -0.1427 -0.7060
17004TIP3    H172503   5.273   6.203   2.108  0.2554 -0.5423 -2.2436
17004TIP3    H272504   5.410   6.268   2.110 -0.0020  0.0913  1.0524
17005TIP3   OH272505   2.578   5.532   2.539 -0.5608  0.0882  0.3867
17005TIP3    H172506   2.558   5.564   2.627  1.3498  1.6752  0.3150
17005TIP3    H272507   2.592   5.612   2.488 -0.4902 -0.8321 -1.0704
17006TIP3   OH272508   5.173   5.461  10.758 -0.2163  0.4618  0.5168
17006TIP3    H172509   5.121   5.415  10.823  0.6318 -0.3675  0.6381
17006TIP3    H272510   5.113   5.525  10.719 -1.4073 -0.6646  0.4285
17007TIP3   OH272511   0.076   5.109  13.243 -0.4515  0.3393  1.0539
17007TIP3    H172512   0.081   5.121  13.148 -1.8368  1.6743  1.1138
17007TIP3    H272513   0.057   5.197  13.277  0.8575  0.0494  2.6549
17008TIP3   OH272514   1.037   0.875  14.117 -0.3587  0.1808  0.5113
17008TIP3    H172515   1.104   0.939  14.092 -0.5943 -0.0436 -0.7843
17008TIP3    H272516   1.065   0.793  14.076 -1.8608  0.2902 -0.8456
17009TIP3   OH272517   6.178   2.255   5.596 -0.1045  0.1801  0.1080
17009TIP3    H172518   6.207   2.341   5.565 -0.1771 -0.0597 -0.6371
17009TIP3    H272519   6.225   2.242   5.679 -0.1022  0.9384  0.2360
17010TIP3   OH272520   5.930   2.460  16.432 -0.3881  0.0854  0.0151
17010TIP3    H172521   5.869   2.533  16.416 -1.1919 -0.6874 -0.5696
17010TIP3    H272522   5.914   2.435  16.523 -1.4132 -0.4956 -0.2995
17011TIP3   OH272523   5.701   6.553   1.509  0.0635 -0.2464  0.1507
17011TIP3    H172524   5.688   6.462   1.536 -1.0467 -0.0820  0.1823
17011TIP3    H272525   5.627   6.573   1.453  0.3518  0.6180  0.0599
17012TIP3   OH272526   2.176   4.742   2.712  0.0450 -0.4241 -0.5025
17012TIP3    H172527   2.087   4.775   2.720 -0.9704 -2.9080 -0.4958
17012TIP3    H272528   2.211   4.784   2.633 -1.0869  0.6718 -0.4400
17013TIP3   OH272529   1.668   3.030   2.195  1.1358  0.2383  0.2964
17013TIP3    H172530   1.604   3.078   2.248 -0.3635 -0.9108 -0.3925
17013TIP3    H272531   1.700   3.095   2.132  0.8556  0.9109  0.8371
17014TIP3   OH272532   3.471   4.867   1.487  0.5030  0.4862 -0.0761
17014TIP3    H172533   3.469   4.849   1.581  0.1109  0.8295 -0.0145
17014TIP3    H272534   3.410   4.803   1.449  2.8566 -1.6998 -0.4871
17015TIP3   OH272535   0.898   6.040  14.729 -0.2303  0.7368 -0.9207
17015TIP3    H172536   0.990   6.051  14.706  0.9268  3.0847  3.5291
17015TIP3    H272537   0.855   6.120  14.699 -0.1795  0.8592 -0.6733
17016TIP3   OH272538   5.086   5.893   3.789  0.2098  1.0705  0.0054
17016TIP3    H172539   4.990   5.899   3.780  0.1554  0.1072 -0.1217
17016TIP3    H272540   5.119   5.915   3.702 -0.0364 -1.3225 -0.7796
17017TIP3   OH272541   3.536   6.618  16.061 -0.0987 -0.2560  0.5143
17017TIP3    H172542   3.587   6.557  16.007 -0.4916 -0.9821  0.9471
17017TIP3    H272543   3.457   6.569  16.083 -0.5561  0.5276  0.6242
17018TIP3   OH272544   1.639   4.724   4.770  0.0447  0.1086  0.5635
17018TIP3    H172545   1.692   4.753   4.695 -0.1869 -2.1000 -0.5296
17018TIP3    H272546   1.702   4.710   4.840  0.4452  0.7939  0.3556
17019TIP3   OH272547   2.828   3.090   1.836  0.2148 -0.0299 -0.1461
17019TIP3    H172548   2.868   3.036   1.768  1.2231 -1.5469  1.5450
17019TIP3    H272549   2.796   3.027   1.901 -0.7154  1.3439  0.7859
17020TIP3   OH272550   6.738   0.697   2.472 -0.2841 -0.0425 -0.4645
17020TIP3    H172551   6.689   0.664   2.397 -0.7145  0.7099 -0.5152
17020TIP3    H272552   6.829   0.695   2.444 -0.4788  0.6539 -1.1748
17021TIP3   OH272553   1.195   2.945   2.977 -0.2089 -0.2885  0.3286
17021TIP3    H172554   1.176   2.855   2.953 -0.1910 -0.5119  1.1338
17021TIP3    H272555   1.125   2.996   2.936 -0.9720 -0.8071  0.9549
17022TIP3   OH272556   1.380   3.524   0.815 -0.1970  0.6443 -0.4321
17022TIP3    H172557   1.335   3.591   0.865  0.5417  0.1656  0.9037
17022TIP3    H272558   1.441   3.572   0.759 -0.3616  1.1364 -0.1908
17023TIP3   OH272559   0.580   5.458   0.479 -0.7109 -0.5662  0.6417
17023TIP3    H172560   0.508   5.508   0.439 -0.5974 -0.3700  0.6807
17023TIP3    H272561   0.617   5.408   0.407  0.9129  1.4333 -0.0114
17024TIP3   OH272562   1.992   3.459  11.538  0.3506 -0.8331  0.2032
17024TIP3    H172563   1.913   3.485  11.585 -1.5262  0.2867 -3.2684
17024TIP3    H272564   1.964   3.388  11.481  2.1214 -1.1166 -0.3889
17025TIP3   OH272565   3.768   5.270   5.297 -0.0711 -0.4298  0.0011
17025TIP3    H172566   3.861   5.290   5.308 -0.2279 -0.3228  1.2944
17025TIP3    H272567   3.753   5.275   5.203  0.9266  0.9446 -0.1161
17026TIP3   OH272568   4.014   0.738  12.393 -0.5945  0.0405 -0.0156
17026TIP3    H172569   4.051   0.685  12.464 -1.1451  0.7081  0.8013
17026TIP3    H272570   3.947   0.682  12.353  1.9202 -1.6130 -2.2417
17027TIP3   OH272571   6.130   5.036  16.695 -0.7154 -0.2127  0.4411
17027TIP3    H172572   6.086   4.960  16.657 -0.6068 -0.1694  0.2304
17027TIP3    H272573   6.137   5.098  16.623 -0.0494 -0.3324  0.3953
17028TIP3   OH272574   5.402   3.072  13.146 -0.7871  0.5135 -0.2566
17028TIP3    H172575   5.468   3.096  13.211 -1.4681  0.1302  0.5846
17028TIP3    H272576   5.327   3.042  13.197 -0.2215 -2.9048 -1.1694
17029TIP3   OH272577   5.337   2.098   0.671 -0.1221 -0.9320  0.2526
17029TIP3    H172578   5.404   2.030   0.681  0.8937 -0.6308 -3.0192
17029TIP3    H272579   5.258   2.061   0.710  0.8925 -3.1892  0.2969
17030TIP3   OH272580   1.206   4.417   2.654 -0.1954 -0.4325 -0.2754
17030TIP3    H172581   1.256   4.417   2.572  1.5076  1.4934  0.6833
17030TIP3    H272582   1.256   4.361   2.713  0.8644  1.3523  0.6269
17031TIP3   OH272583   0.639   3.271   3.161  0.1799  0.2910  0.0634
17031TIP3    H172584   0.563   3.214   3.148 -0.6622  1.2812  0.5146
17031TIP3    H272585   0.685   3.233   3.235 -0.6789  0.4825  0.7146
17032TIP3   OH272586   4.306   0.770   3.834  0.2279 -0.3445 -0.8846
17032TIP3    H172587   4.350   0.689   3.807 -3.0896 -2.7312  0.1623
17032TIP3    H272588   4.336   0.785   3.923  1.3560  0.0060 -1.3067
17033TIP3   OH272589   2.927   2.330   0.121 -0.2367  0.4485 -0.4797
17033TIP3    H172590   2.989   2.396   0.090  0.8074 -0.1789  0.2134
17033TIP3    H272591   2.935   2.258   0.059 -0.3226  0.3897 -0.4227
17034TIP3   OH272592   6.524   1.637   5.280  0.3861  0.0933  0.0166
17034TIP3    H172593   6.470   1.627   5.358  0.3421  1.4423  0.1852
17034TIP3    H272594   6.587   1.566   5.284 -2.1007 -2.3253 -0.8375
17035TIP3   OH272595   6.056   0.245  15.276  0.3344 -0.2653 -1.0588
17035TIP3    H172596   6.027   0.314  15.217  0.9384 -0.9910 -2.2288
17035TIP3    H272597   5.976   0.213  15.317  0.0255  0.9482 -0.6791
17036TIP3   OH272598   0.282   4.783   3.439  0.8353 -0.0610 -0.2425
17036TIP3    H172599   0.272   4.717   3.507 -3.9024  2.2400  1.7318
17036TIP3    H272600   0.345   4.846   3.477 -1.3036  0.8981  2.0180
17037TIP3   OH272601   3.425   2.651  12.881 -0.1313  0.3551 -0.1717
17037TIP3    H172602   3.469   2.642  12.797 -3.5234 -1.6926 -1.9477
17037TIP3    H272603   3.488   2.619  12.945  1.7342 -0.2590 -2.2043
17038TIP3   OH272604   2.850   6.042   5.810  0.4601 -0.0066 -0.1772
17038TIP3    H172605   2.929   6.021   5.860  0.6664  0.1210 -0.4511
17038TIP3    H272606   2.868   6.127   5.770  1.5067 -1.4138 -2.9547
17039TIP3   OH272607   4.800   3.857  14.066  0.0066  0.1602  0.3419
17039TIP3    H172608   4.794   3.817  14.153  0.5839 -0.8207 -0.0418
17039TIP3    H272609   4.735   3.927  14.066  0.2236  0.3831  1.6717
17040TIP3   OH272610   0.151   1.343  14.606 -0.0161  0.5693  0.0604
17040TIP3    H172611   0.083   1.409  14.602  0.8044  1.4386  0.0277
17040TIP3    H272612   0.105   1.261  14.624 -1.1709  0.9173 -1.2268
17041TIP3   OH272613   3.147   1.703  13.258 -0.3052 -0.0245  0.6041
17041TIP3    H172614   3.100   1.660  13.186 -0.4082  0.9088  0.1049
17041TIP3    H272615   3.207   1.636  13.291 -0.3029 -0.4790 -0.3061
17042TIP3   OH272616   0.390   6.777  12.888  0.0977 -0.1697 -0.3857
17042TIP3    H172617   0.401   6.866  12.853 -2.3697  1.4306  2.4336
17042TIP3    H272618   0.443   6.777  12.968 -1.2335 -0.6031  0.5235
17043TIP3   OH272619   4.933   3.213  12.208 -0.0038 -0.0363  0.6433
17043TIP3    H172620   4.974   3.270  12.143  1.4127 -1.1693  0.4984
17043TIP3    H272621   4.881   3.272  12.262  0.4306  1.2149 -0.2625
17044TIP3   OH272622   6.220   0.217  11.066  0.2462  0.4495 -0.0871
17044TIP3    H172623   6.189   0.222  11.157 -1.1151  3.8206 -0.6028
17044TIP3    H272624   6.298   0.272  11.065 -0.0559  0.8656 -1.0575
17045TIP3   OH272625   6.616   5.707  14.096 -0.3410  0.6697  0.7624
17045TIP3    H172626   6.703   5.719  14.058  0.7273  2.4703  3.4331
17045TIP3    H272627   6.616   5.615  14.126 -0.1416  0.0828 -0.9414
17046TIP3   OH272628   5.604   4.023   3.116  0.1779  0.9097 -0.3888
17046TIP3    H172629   5.546   4.024   3.193 -0.0525  0.4649 -0.5519
17046TIP3    H272630   5.567   4.087   3.056  0.0636  0.8868 -0.3418
17047TIP3   OH272631   0.849   0.328   0.311  0.3099  0.2225 -0.8046
17047TIP3    H172632   0.889   0.404   0.354 -1.0463  0.0334  0.9256
17047TIP3    H272633   0.901   0.254   0.341  0.0717  0.2177 -0.3866
17048TIP3   OH272634   2.885   3.241   0.331  0.4910 -0.1610  0.1466
17048TIP3    H172635   2.802   3.213   0.292  0.7171 -1.9166  0.8608
17048TIP3    H272636   2.859   3.303   0.400 -0.1369  0.1002 -0.3045
17049TIP3   OH272637   6.079   2.832   0.676 -0.0495  0.8663  0.4882
17049TIP3    H172638   6.117   2.868   0.756  2.8204 -0.0238 -0.3432
17049TIP3    H272639   6.138   2.862   0.606 -0.8962 -0.6008 -0.9141
17050TIP3   OH272640   3.473   4.899  11.709  0.2881 -0.3427  0.3349
17050TIP3    H172641   3.466   4.914  11.614 -0.0607  0.1057  0.4255
17050TIP3    H272642   3.561   4.928  11.731 -1.3618  5.4177  1.1024
17051TIP3   OH272643   3.947   5.138   2.110  0.3565  0.3611 -0.1302
17051TIP3    H172644   3.936   5.206   2.177  0.8157 -0.3698  0.7227
17051TIP3    H272645   3.950   5.186   2.027 -4.5646  1.0253 -0.1969
17052TIP3   OH272646   3.845   4.388   1.000  0.1730  0.5255  0.2923
17052TIP3    H172647   3.762   4.412   0.959 -0.8351  0.8249  2.3684
17052TIP3    H272648   3.841   4.292   1.009  0.1986  0.5050  0.0716
17053TIP3   OH272649   6.396   5.135  15.167  0.1478  0.2175  0.0038
17053TIP3    H172650   6.430   5.070  15.228 -0.6103 -0.7336 -0.5603
17053TIP3    H272651   6.304   5.146  15.192 -0.1892 -0.2318 -0.9704
17054TIP3   OH272652   1.227   3.368  14.235  0.7661  0.0680 -0.2148
17054TIP3    H172653   1.266   3.316  14.305  0.5751 -0.0872 -0.2225
17054TIP3    H272654   1.280   3.448  14.232 -0.0389  0.6830  1.0122
17055TIP3   OH272655   0.572   3.413  17.080 -0.1373 -0.0495 -0.1090
17055TIP3    H172656   0.606   3.494  17.118  1.0941 -0.5866 -0.0201
17055TIP3    H272657   0.561   3.433  16.987 -0.9646  0.5630  0.1038
17056TIP3   OH272658   5.208   2.102  16.410 -0.5483  0.1346  0.2625
17056TIP3    H172659   5.157   2.124  16.332 -1.1748 -3.1773 -0.4193
17056TIP3    H272660   5.157   2.137  16.483 -1.0405  1.4371 -0.6521
17057TIP3   OH272661   3.993   1.849  14.230 -0.0403  0.1078 -0.1412
17057TIP3    H172662   3.993   1.756  14.207 -0.5908  0.3787 -1.3017
17057TIP3    H272663   3.905   1.879  14.208  0.1316  0.9111  0.2223
17058TIP3   OH272664   1.490   4.693  10.564 -0.2855 -0.2733 -0.0549
17058TIP3    H172665   1.455   4.781  10.552 -0.4471 -0.4091 -0.6166
17058TIP3    H272666   1.539   4.675  10.483 -0.5559 -0.8334 -0.0975
17059TIP3   OH272667   2.873   4.037   2.370  0.2444 -0.1233  0.2503
17059TIP3    H172668   2.841   3.976   2.437 -0.2963 -1.9201 -1.5579
17059TIP3    H272669   2.808   4.031   2.300  2.7076 -1.3081 -2.1182
17060TIP3   OH272670   0.048   1.795   1.640 -0.1907 -0.5032  0.0545
17060TIP3    H172671  -0.024   1.857   1.644 -0.1151 -0.3205 -1.0132
17060TIP3    H272672   0.052   1.769   1.548  0.7200 -0.9618  0.2091
17061TIP3   OH272673   3.402   1.160   3.097  0.0060  0.0365  0.2744
17061TIP3    H172674   3.409   1.225   3.167  0.6145  0.7551 -0.4404
17061TIP3    H272675   3.417   1.076   3.141  0.4610  0.4851  0.9939
17062TIP3   OH272676   1.374   3.249   0.993  0.4657  0.2427 -0.0480
17062TIP3    H172677   1.465   3.248   1.023  0.7425 -1.8781 -0.8304
17062TIP3    H272678   1.325   3.283   1.068  1.6967 -0.3076  1.0531
17063TIP3   OH272679   2.223   5.761  13.330  0.2752 -0.1759 -0.1219
17063TIP3    H172680   2.166   5.793  13.260 -1.5373 -0.8519  0.9795
17063TIP3    H272681   2.195   5.809  13.408  2.6303  0.9612  0.0785
17064TIP3   OH272682   0.035   4.586   0.093  0.3515 -0.0940  0.3074
17064TIP3    H172683  -0.036   4.631   0.138  0.0625 -1.2949  1.0716
17064TIP3    H272684   0.048   4.637   0.013 -0.5675  0.8167  0.7134
17065TIP3   OH272685   1.243   5.247   6.102  0.3540  0.2978 -0.2244
17065TIP3    H172686   1.163   5.230   6.053  1.6986 -0.6967 -2.2097
17065TIP3    H272687   1.250   5.343   6.104 -0.2661  0.3726 -1.1061
17066TIP3   OH272688   0.339   3.352   0.173 -0.0687 -0.0064  0.6094
17066TIP3    H172689   0.322   3.446   0.173  1.6414  0.3369  0.6608
17066TIP3    H272690   0.435   3.345   0.176  0.3007 -1.6253 -4.5720
17067TIP3   OH272691   0.705   0.302  11.710  0.6866 -0.2212  0.2641
17067TIP3    H172692   0.646   0.263  11.646  1.5055 -0.0452 -0.6073
17067TIP3    H272693   0.684   0.257  11.792  0.9221 -1.8006 -0.5086
17068TIP3   OH272694   2.937   4.171   3.441  0.3546 -0.2626 -0.2198
17068TIP3    H172695   2.944   4.081   3.474 -1.3016 -0.5322 -0.5028
17068TIP3    H272696   3.012   4.216   3.478  0.9660 -1.6549  0.3037
17069TIP3   OH272697   2.393   4.185   3.448  0.5097 -0.4706  0.1463
17069TIP3    H172698   2.474   4.193   3.397 -0.4804 -0.5351 -1.4795
17069TIP3    H272699   2.383   4.090   3.461 -0.0297 -0.5692 -0.8921
17070TIP3   OH272700   5.991   3.763  15.966 -0.1169  0.0465 -0.0246
17070TIP3    H172701   6.022   3.838  16.016 -2.4474 -0.3359  2.1693
17070TIP3    H272702   6.020   3.781  15.876  2.5326  1.7240  1.0271
17071TIP3   OH272703   3.255   2.336  14.246 -0.1725 -0.3238 -0.1409
17071TIP3    H172704   3.270   2.420  14.289  0.1185 -0.4943  0.0921
17071TIP3    H272705   3.236   2.358  14.155 -0.1022 -0.0069 -0.0789
17072TIP3   OH272706   0.045   0.870   5.300 -0.0346  0.3221  0.0893
17072TIP3    H172707   0.041   0.775   5.288  0.1422  0.3558 -0.2678
17072TIP3    H272708   0.138   0.891   5.299 -0.0985  0.6189 -0.9171
17073TIP3   OH272709   0.971   5.620   1.474 -0.0055 -0.1945 -0.3914
17073TIP3    H172710   1.035   5.565   1.518  0.7496 -0.7405 -2.0706
17073TIP3    H272711   1.003   5.709   1.487  0.1238 -0.3318  0.2586
17074TIP3   OH272712   1.433   4.120  16.811  0.1616  0.0678  1.3285
17074TIP3    H172713   1.481   4.145  16.733 -0.8526  0.2184  0.7309
17074TIP3    H272714   1.494   4.134  16.883  1.7356 -1.7466  0.4359
17075TIP3   OH272715   2.699   5.641  13.098 -0.2764  0.1229 -0.0148
17075TIP3    H172716   2.678   5.685  13.180 -0.6555 -2.0604  1.1293
17075TIP3    H272717   2.765   5.576  13.122 -1.0331 -1.1585 -1.2497
17076TIP3   OH272718   4.885   1.949  10.905  0.1036  0.1867 -0.0612
17076TIP3    H172719   4.802   1.946  10.952 -0.6947  2.6109 -1.1130
17076TIP3    H272720   4.949   1.980  10.970 -0.1487 -0.2183  0.3790
17077TIP3   OH272721   0.569   0.624   1.752 -0.7053 -0.0526  0.4545
17077TIP3    H172722   0.580   0.715   1.781  0.7352 -0.4204  1.1510
17077TIP3    H272723   0.593   0.625   1.660 -0.5518  0.2514  0.4956
17078TIP3   OH272724   1.128   0.062  13.263 -0.5715  0.3524  0.1005
17078TIP3    H172725   1.047   0.011  13.269 -0.8985  0.7574 -0.6702
17078TIP3    H272726   1.194   0.010  13.309 -0.6838 -1.2194 -1.4377
17079TIP3   OH272727   6.510   3.726  12.825  0.0009  0.0633  0.1896
17079TIP3    H172728   6.426   3.769  12.811  0.0098  0.2152  0.5920
17079TIP3    H272729   6.559   3.742  12.744 -0.2274  0.2728  0.0926
17080TIP3   OH272730   0.272   2.616   5.734  0.1948  1.0832 -0.0101
17080TIP3    H172731   0.350   2.639   5.684  1.8519 -2.0839  0.8393
17080TIP3    H272732   0.227   2.550   5.681  0.0311  0.3337  1.0078
17081TIP3   OH272733   2.105   5.006   3.106 -0.1753  0.1314  1.0093
17081TIP3    H172734   2.020   5.037   3.134 -0.4077 -0.2119  0.6961
17081TIP3    H272735   2.159   5.085   3.100 -0.9755  0.5961 -0.5450
17082TIP3   OH272736   6.514   6.371  11.749  0.1456  0.0116  0.0604
17082TIP3    H172737   6.503   6.310  11.821  1.9378  0.4721  0.7627
17082TIP3    H272738   6.428   6.412  11.739 -0.1692 -0.1687  1.8220
17083TIP3   OH272739   1.063   6.699   2.073 -0.7287  0.2434  0.0573
17083TIP3    H172740   1.092   6.614   2.107  0.0222  0.1083 -0.8907
17083TIP3    H272741   0.976   6.682   2.036 -1.5358  0.3800  1.8012
17084TIP3   OH272742   4.591   2.460   0.496 -0.5502  0.4817  0.6549
17084TIP3    H172743   4.671   2.497   0.460  0.2372 -0.4539  1.3848
17084TIP3    H272744   4.615   2.431   0.584 -1.5398 -0.3229  0.6833
17085TIP3   OH272745   3.534   5.933  14.400  0.6630 -0.1703  0.0340
17085TIP3    H172746   3.561   5.853  14.444 -0.5124 -0.7402 -0.2545
17085TIP3    H272747   3.439   5.929  14.397  0.5144  1.6756  0.8137
17086TIP3   OH272748   5.685   0.557   1.356  0.6418 -0.8983  0.7739
17086TIP3    H172749   5.611   0.501   1.381  0.2487 -1.5012 -1.4812
17086TIP3    H272750   5.729   0.509   1.287  1.6872  0.5662  0.3711
17087TIP3   OH272751   0.702   1.752   4.998  0.6567 -0.6445 -0.0799
17087TIP3    H172752   0.701   1.738   4.903  1.1377  1.2074 -0.4093
17087TIP3    H272753   0.682   1.667   5.035  2.3765 -1.8869 -1.7972
17088TIP3   OH272754   4.853   3.568   1.313 -0.2240  0.0573  0.0144
17088TIP3    H172755   4.801   3.607   1.242 -1.5404 -1.9203 -0.2050
17088TIP3    H272756   4.815   3.481   1.324  1.5997 -0.6020  1.4718
17089TIP3   OH272757   5.057   2.118  13.645 -0.3294 -0.5593 -0.0781
17089TIP3    H172758   5.020   2.092  13.560 -1.0290 -0.1133  0.0859
17089TIP3    H272759   5.092   2.206  13.629  3.2940 -2.0124 -1.0182
17090TIP3   OH272760   4.747   6.122   2.607 -0.2624  0.3263  0.4828
17090TIP3    H172761   4.731   6.201   2.556 -1.2647 -0.7052 -0.8749
17090TIP3    H272762   4.677   6.062   2.581  0.1042 -0.7981  1.9421
17091TIP3   OH272763   6.447   0.782   0.514  0.3073  0.3355 -0.0590
17091TIP3    H172764   6.398   0.818   0.440  0.5143 -3.5405 -2.3519
17091TIP3    H272765   6.532   0.758   0.476  2.0016  1.8627  2.5104
17092TIP3   OH272766   1.267   0.704  14.033 -0.8339  0.1973 -0.0351
17092TIP3    H172767   1.287   0.708  14.127 -0.2819 -3.5799  0.1587
17092TIP3    H272768   1.328   0.767  13.993  0.8216 -0.0615  1.9138
17093TIP3   OH272769   4.904   0.911  12.666  0.0975  0.7188  0.2965
17093TIP3    H172770   4.834   0.845  12.663  0.7680  0.0090  0.0899
17093TIP3    H272771   4.937   0.916  12.577 -0.7707  2.2742  0.0101
17094TIP3   OH272772   0.249   2.604   4.241 -0.8388 -0.2575  0.2728
17094TIP3    H172773   0.241   2.669   4.171 -0.7940 -0.6323 -0.0843
17094TIP3    H272774   0.331   2.559   4.223 -0.6729 -0.1530  0.7453
17095TIP3   OH272775   3.261   6.446   4.102 -0.1094  0.2558 -0.0528
17095TIP3    H172776   3.337   6.445   4.160  1.2074 -0.6648 -1.6854
17095TIP3    H272777   3.299   6.447   4.014 -2.0327  1.7480 -0.9207
17096TIP3   OH272778   2.458   6.525  13.315  0.1925  0.2089  0.0310
17096TIP3    H172779   2.499   6.448  13.275 -0.0908  0.2342 -0.3092
17096TIP3    H272780   2.524   6.594  13.306 -0.0972  0.3697 -0.9290
17097TIP3   OH272781   0.256   1.488  11.425 -0.4196 -0.3876 -0.2553
17097TIP3    H172782   0.347   1.489  11.395 -0.8923  0.2524 -1.7834
17097TIP3    H272783   0.213   1.423  11.369 -1.0791 -0.0754 -0.1226
17098TIP3   OH272784   1.650   5.803  12.124  0.4435  0.0401  0.6657
17098TIP3    H172785   1.635   5.896  12.105 -1.2918 -0.1948  0.6890
17098TIP3    H272786   1.664   5.800  12.218 -1.1333  0.1373  0.9313
17099TIP3   OH272787   2.676   3.507  11.391 -0.3519 -0.2800 -0.2450
17099TIP3    H172788   2.586   3.529  11.413 -0.6570 -0.9962 -0.7346
17099TIP3    H272789   2.669   3.432  11.333  0.5619 -0.3097 -0.3376
17100TIP3   OH272790   3.876   0.991   1.108  0.2696 -0.0838 -0.3678
17100TIP3    H172791   3.950   0.993   1.047  0.5808  0.5261  0.0177
17100TIP3    H272792   3.915   1.007   1.194  0.1793 -3.1423  0.3899
17101TIP3   OH272793   3.918   2.540  13.972 -0.4988 -0.0243  0.0730
17101TIP3    H172794   3.844   2.599  13.990 -0.8169 -0.6725  1.0163
17101TIP3    H272795   3.927   2.488  14.053  2.3231  1.4131  0.7946
17102TIP3   OH272796   6.532   0.032  15.321  0.0133 -0.0621  0.0164
17102TIP3    H172797   6.451  -0.018  15.312  0.3120 -1.0497  2.2046
17102TIP3    H272798   6.503   0.124  15.315 -1.2965 -0.3881  0.8658
17103TIP3   OH272799   1.685   0.618   5.009 -0.3596 -0.0596 -0.2880
17103TIP3    H172800   1.591   0.624   4.992 -0.4104  0.7025  0.1861
17103TIP3    H272801   1.691   0.584   5.099 -0.1916  0.2733 -0.1728
17104TIP3   OH272802   1.833   4.869   5.658 -0.4371 -0.9574  0.5585
17104TIP3    H172803   1.750   4.907   5.689 -0.8542 -2.1204  0.8882
17104TIP3    H272804   1.859   4.809   5.727  0.5402 -0.8226  0.3148
17105TIP3   OH272805   4.856   4.575  11.413  0.1269  0.1670 -0.0028
17105TIP3    H172806   4.895   4.488  11.425 -2.4815 -1.5600 -2.6346
17105TIP3    H272807   4.927   4.628  11.376  1.8724 -0.6623  1.9563
17106TIP3   OH272808   2.886   4.444  15.928  0.1162 -0.4160 -0.8850
17106TIP3    H172809   2.847   4.498  15.997 -0.2869  0.1698 -1.5470
17106TIP3    H272810   2.915   4.507  15.862  0.5482 -0.9611 -1.2258
17107TIP3   OH272811   4.877   0.233  12.752  0.1553  0.0214 -0.3890
17107TIP3    H172812   4.853   0.143  12.776  2.2752 -0.1631  1.3810
17107TIP3    H272813   4.971   0.239  12.773 -0.6604  3.8051  3.6593
17108TIP3   OH272814   3.363   5.801  15.882  0.6505 -0.8535 -0.4646
17108TIP3    H172815   3.451   5.763  15.872  1.4542  0.9061 -0.4282
17108TIP3    H272816   3.348   5.800  15.977  1.5484  0.7275 -0.2718
17109TIP3   OH272817   2.304   2.363   2.352 -0.5156 -0.2348 -0.0331
17109TIP3    H172818   2.223   2.314   2.367 -1.4067  1.0574 -0.4744
17109TIP3    H272819   2.316   2.415   2.431  0.1759 -0.8177  0.2481
17110TIP3   OH272820   2.919   4.435   1.422 -0.3131  0.1843 -0.2138
17110TIP3    H172821   2.980   4.394   1.360 -0.7173  2.1914 -2.0252
17110TIP3    H272822   2.955   4.522   1.437 -1.4006  0.5020  0.6899
17111TIP3   OH272823   0.248   5.052   3.618 -0.1964  0.1915 -0.2958
17111TIP3    H172824   0.204   5.055   3.533 -0.2612  0.2820 -0.2602
17111TIP3    H272825   0.269   5.143   3.637 -0.0402  0.1535 -0.2869
17112TIP3   OH272826   2.667   1.609   3.401 -0.4528  0.1754  0.1001
17112TIP3    H172827   2.613   1.537   3.368 -0.5976 -0.0460  0.8003
17112TIP3    H272828   2.738   1.565   3.449 -1.5022  0.4995  2.0369
17113TIP3   OH272829   1.487   0.918  13.109 -0.2305 -0.6664 -0.4539
17113TIP3    H172830   1.554   0.932  13.042  0.7540 -0.8564  0.4580
17113TIP3    H272831   1.496   0.994  13.167  0.2647 -1.4467  0.5300
17114TIP3   OH272832   4.215   6.085   4.880 -0.1612  0.0578 -0.3452
17114TIP3    H172833   4.205   6.146   4.807 -2.3432 -1.7642 -1.7430
17114TIP3    H272834   4.301   6.045   4.867  0.0067  0.6735 -1.1876
17115TIP3   OH272835   5.580   3.827   1.196  0.2542  0.1212 -0.4087
17115TIP3    H172836   5.508   3.768   1.219  0.4265 -0.9128 -2.3506
17115TIP3    H272837   5.651   3.769   1.170  0.9628  1.1760 -0.8855
17116TIP3   OH272838   4.449   5.941   6.268  0.2155  0.5206  0.6841
17116TIP3    H172839   4.412   5.995   6.198 -1.5213 -2.8562 -1.2997
17116TIP3    H272840   4.542   5.938   6.250 -0.3734 -2.1831 -3.3294
17117TIP3   OH272841   2.710   0.504  14.631  0.5505  0.0300  0.2836
17117TIP3    H172842   2.701   0.442  14.703 -0.1040 -0.6201 -0.3406
17117TIP3    H272843   2.778   0.564  14.660 -1.8642  1.7864  2.8985
17118TIP3   OH272844   0.914   3.531  14.720  0.5454 -0.3705 -0.3201
17118TIP3    H172845   0.854   3.471  14.675  0.3438 -0.0127 -0.5333
17118TIP3    H272846   0.857   3.601  14.754  0.4532 -1.4182  1.8811
17119TIP3   OH272847   6.582   0.174  11.481  0.0890  0.6889 -0.2630
17119TIP3    H172848   6.557   0.094  11.435  0.2712  1.2228 -1.3299
17119TIP3    H272849   6.523   0.241  11.446 -2.7431  0.3989  3.3296
17120TIP3   OH272850   4.361   5.686   3.959 -1.1835  0.4202  0.3871
17120TIP3    H172851   4.326   5.602   3.988  0.8389 -0.7006 -0.2301
17120TIP3    H272852   4.335   5.693   3.867 -0.2559 -0.2037  0.0562
17121TIP3   OH272853   3.550   1.527   3.086 -0.2634 -0.2691 -0.4608
17121TIP3    H172854   3.469   1.475   3.091 -0.0861 -0.5013 -0.0311
17121TIP3    H272855   3.606   1.492   3.155 -0.5001  1.1129  0.4561
17122TIP3   OH272856   4.359   6.747  16.959 -0.2757 -0.2575  0.1264
17122TIP3    H172857   4.303   6.819  16.932  0.3129  0.1536 -0.0302
17122TIP3    H272858   4.436   6.789  16.998  0.0289 -0.7991  0.1308
17123TIP3   OH272859   1.568   5.056   0.395 -0.1068  0.0375 -0.2662
17123TIP3    H172860   1.566   4.964   0.371 -2.0523  0.5944 -2.6922
17123TIP3    H272861   1.626   5.097   0.330  0.7154  0.5782  0.7620
17124TIP3   OH272862   6.468   1.386  14.374 -0.7011 -0.2635 -0.3169
17124TIP3    H172863   6.401   1.374  14.307 -0.3701 -0.0414 -0.6881
17124TIP3    H272864   6.538   1.325  14.349  0.2082  1.0870 -1.2000
17125TIP3   OH272865   3.695   0.166  16.474 -0.8700  0.2707  0.2104
17125TIP3    H172866   3.775   0.114  16.484 -1.3458 -0.8616 -1.3928
17125TIP3    H272867   3.664   0.181  16.563 -0.3799 -1.6992  0.7649
17126TIP3   OH272868   4.161   3.400  16.371  0.3588  0.2018 -0.1268
17126TIP3    H172869   4.175   3.396  16.466 -1.7384  1.5893  0.3069
17126TIP3    H272870   4.184   3.312  16.340 -2.2528 -1.4685  2.1939
17127TIP3   OH272871   5.924   1.224  11.409  0.1254 -0.4680 -0.5261
17127TIP3    H172872   5.927   1.191  11.319  2.6540 -0.7263 -0.4162
17127TIP3    H272873   5.996   1.179  11.453 -0.1634  0.7230  1.2466
17128TIP3   OH272874   1.554   4.084  14.241 -0.0444 -1.1198 -0.1171
17128TIP3    H172875   1.611   4.136  14.297  0.9597 -1.9951 -0.2820
17128TIP3    H272876   1.481   4.142  14.220  0.0453 -0.4545  1.2914
17129TIP3   OH272877   0.548   6.292  13.332 -0.1215 -0.1705  0.0912
17129TIP3    H172878   0.603   6.347  13.276 -1.6792  1.8470  0.4774
17129TIP3    H272879   0.569   6.319  13.421 -0.4151 -0.6986  0.3254
17130TIP3   OH272880   5.677   5.921  14.651  0.3969  0.1844  0.3827
17130TIP3    H172881   5.750   5.929  14.711  0.7764 -1.4151  0.1677
17130TIP3    H272882   5.616   5.990  14.678  1.5254  0.8958  1.1824
17131TIP3   OH272883   2.477   3.278   1.298 -0.2628 -0.2789  0.2749
17131TIP3    H172884   2.491   3.247   1.388  0.9011 -1.8092 -0.4059
17131TIP3    H272885   2.548   3.341   1.283  1.1497 -1.9576 -0.4059
17132TIP3   OH272886   5.628   1.451   4.461  0.2604  0.6890 -0.1840
17132TIP3    H172887   5.704   1.475   4.515  1.8099 -0.7028 -1.5944
17132TIP3    H272888   5.647   1.362   4.432 -2.5275 -0.1672  0.3278
17133TIP3   OH272889   1.194   3.653  10.812  0.3564 -0.1154 -0.5073
17133TIP3    H172890   1.255   3.579  10.810 -0.8808 -1.1625 -1.1936
17133TIP3    H272891   1.168   3.661  10.904  1.4796  0.3157 -0.2189
17134TIP3   OH272892   3.719   1.279   4.551  0.0916  0.0402 -0.2717
17134TIP3    H172893   3.743   1.188   4.534 -1.8940 -0.6731  0.3404
17134TIP3    H272894   3.658   1.301   4.481 -3.7015 -1.0372  2.3492
17135TIP3   OH272895   6.492   3.973  16.797 -0.4062 -0.0030 -0.4704
17135TIP3    H172896   6.431   4.039  16.831 -2.0677 -2.1447  0.9571
17135TIP3    H272897   6.564   3.973  16.860 -1.8151 -1.5250  1.2294
17136TIP3   OH272898   1.279   5.452  11.867 -0.0972 -0.5673  0.1186
17136TIP3    H172899   1.332   5.504  11.928  2.4519  0.7699 -2.8876
17136TIP3    H272900   1.317   5.364  11.871 -0.4819 -0.7044  0.9785
17137TIP3   OH272901   4.048   1.090  14.588  0.6303  0.0372 -0.4235
17137TIP3    H172902   4.061   1.184  14.582 -0.0907  0.1706  0.0857
17137TIP3    H272903   4.060   1.058  14.499 -1.0515  0.8514 -0.9632
17138TIP3   OH272904   6.621   4.222   1.812  0.5767  0.6420 -0.1013
17138TIP3    H172905   6.626   4.311   1.778  1.9233 -0.0712 -1.9338
17138TIP3    H272906   6.650   4.230   1.903 -1.6361  2.3776  0.5590
17139TIP3   OH272907   4.417   4.782  13.104 -0.6781 -0.6266  0.9452
17139TIP3    H172908   4.386   4.866  13.139  0.0477 -0.7631  1.9760
17139TIP3    H272909   4.476   4.806  13.033  0.1946 -0.2011  1.7788
17140TIP3   OH272910   2.347   6.091  15.536  0.0881 -0.2582 -0.1579
17140TIP3    H172911   2.379   6.118  15.450 -0.3296 -0.7858 -0.4873
17140TIP3    H272912   2.425   6.062  15.583  0.3931  0.5274 -0.1608
17141TIP3   OH272913   3.209   5.998  13.737 -0.0195  0.4870  0.7626
17141TIP3    H172914   3.206   6.062  13.666  0.9787 -1.3763 -1.0604
17141TIP3    H272915   3.122   6.001  13.776 -0.2998  2.2338  0.1186
17142TIP3   OH272916   3.191   4.375   0.962 -0.1312  0.0152  0.1023
17142TIP3    H172917   3.176   4.425   1.043  0.3727  0.8787 -0.3308
17142TIP3    H272918   3.175   4.284   0.988  0.8993  0.1710  1.4042
17143TIP3   OH272919   2.516   3.513  13.877 -0.0964 -0.2905 -0.2455
17143TIP3    H172920   2.459   3.563  13.935  1.1582 -0.1740  0.9353
17143TIP3    H272921   2.490   3.541  13.789  0.3289  2.2392  0.3464
17144TIP3   OH272922   3.158   6.204   3.732  0.3423 -0.3034  1.1373
17144TIP3    H172923   3.249   6.210   3.703 -0.4336 -0.1655 -1.5557
17144TIP3    H272924   3.156   6.129   3.791  2.3576  0.3173  2.0787
17145TIP3   OH272925   5.925   6.507  10.685  0.4775 -0.0436 -0.2526
17145TIP3    H172926   5.963   6.523  10.599  0.4190  0.5215 -0.1781
17145TIP3    H272927   6.000   6.495  10.743  0.5080 -1.0189 -0.4911
17146TIP3   OH272928   4.219   1.404   1.120  0.0359 -0.0484  0.0864
17146TIP3    H172929   4.130   1.432   1.142 -0.4689 -0.9923 -0.6765
17146TIP3    H272930   4.245   1.348   1.194  0.0798  0.3803  0.4008
17147TIP3   OH272931   5.793   0.684  13.565 -0.3103  0.2851 -0.4809
17147TIP3    H172932   5.871   0.689  13.620 -0.3023  0.6301 -0.5192
17147TIP3    H272933   5.769   0.776  13.549 -1.6288  0.1869  0.8018
17148TIP3   OH272934   1.444   2.813  12.111  0.4329 -0.5041  0.4318
17148TIP3    H172935   1.396   2.761  12.047  2.1896 -0.5027 -0.9659
17148TIP3    H272936   1.438   2.903  12.078  2.1317 -0.6261 -0.3151
17149TIP3   OH272937   3.946   3.314   5.619 -0.5910  0.5702 -0.8203
17149TIP3    H172938   4.032   3.350   5.640  0.4206 -0.6809 -2.5288
17149TIP3    H272939   3.888   3.390   5.612  0.1306  1.3688  1.2653
17150TIP3   OH272940   3.852   3.168   5.022 -0.0290  0.6029  0.0265
17150TIP3    H172941   3.944   3.190   5.037  0.0342  1.2493 -1.2303
17150TIP3    H272942   3.811   3.184   5.107  0.9309  0.7332  0.4879
17151TIP3   OH272943   0.197   5.934   3.232  0.0215 -0.2780  0.1124
17151TIP3    H172944   0.176   6.027   3.239  0.9293 -0.1284  1.1960
17151TIP3    H272945   0.288   5.932   3.201 -0.2785 -0.8354 -0.7931
17152TIP3   OH272946   2.336   5.709  12.925 -0.1922  0.0789  0.1833
17152TIP3    H172947   2.286   5.665  12.856 -1.7650  0.7721  0.8355
17152TIP3    H272948   2.298   5.797  12.930  0.3014  0.2387  1.5124
17153TIP3   OH272949   6.275   2.251   0.615 -0.4562  0.1446 -0.2486
17153TIP3    H172950   6.289   2.201   0.696  0.8896  0.7854 -0.0509
17153TIP3    H272951   6.261   2.341   0.645 -1.0528  0.2003 -0.6836
17154TIP3   OH272952   5.224   1.663  15.792  0.3663 -0.6079  0.4573
17154TIP3    H172953   5.184   1.594  15.845 -1.7071 -0.3587 -0.6771
17154TIP3    H272954   5.301   1.622  15.753 -0.7553 -2.2687 -0.0954
17155TIP3   OH272955   5.080   4.853  11.548  0.5529 -1.0566  0.0298
17155TIP3    H172956   5.091   4.791  11.476  2.5055  0.9816 -1.5822
17155TIP3    H272957   5.169   4.866  11.581  0.4751  1.8843 -0.6627
17156TIP3   OH272958   5.393   4.650   5.598 -0.4300  0.0308  0.2818
17156TIP3    H172959   5.314   4.685   5.640  0.7193  1.8821  1.0033
17156TIP3    H272960   5.389   4.684   5.509 -1.2227 -1.2140 -0.1855
17157TIP3   OH272961   3.256   0.340   5.293  0.1661 -0.3717  0.0916
17157TIP3    H172962   3.301   0.407   5.242  0.6131 -1.4582 -0.9784
17157TIP3    H272963   3.191   0.303   5.233  1.0527 -2.0277  0.1183
17158TIP3   OH272964   0.704   0.794   3.969 -0.1833  0.0795  0.3321
17158TIP3    H172965   0.641   0.748   4.025  0.1586 -1.5085 -0.5124
17158TIP3    H272966   0.740   0.863   4.024  0.0667 -1.3543  2.0553
17159TIP3   OH272967   5.960   4.009  14.359  0.0661  0.7628  0.4444
17159TIP3    H172968   6.019   4.059  14.303 -2.4976  0.8734 -2.4575
17159TIP3    H272969   5.914   4.074  14.411  1.9233  0.7176  2.2601
17160TIP3   OH272970   0.262   1.980   3.016 -0.2680 -0.0381  0.5857
17160TIP3    H172971   0.285   1.895   3.054  2.4248 -0.0287 -0.7998
17160TIP3    H272972   0.177   1.965   2.973  0.6068 -2.3476 -0.4867
17161TIP3   OH272973   5.006   3.797  14.527 -0.2686  0.2774  0.2278
17161TIP3    H172974   5.048   3.883  14.520 -0.0386  0.0694 -1.2661
17161TIP3    H272975   5.075   3.735  14.504 -0.8924 -0.1912 -0.4046
17162TIP3   OH272976   5.548   0.810   0.039 -0.0041 -0.3488  0.1293
17162TIP3    H172977   5.524   0.830  -0.051 -0.7362  0.4352  0.4832
17162TIP3    H272978   5.638   0.842   0.048  0.0106 -0.2798 -0.2783
17163TIP3   OH272979   5.874   0.469  12.812 -0.0908 -0.6910 -0.3701
17163TIP3    H172980   5.922   0.518  12.746  0.2007  0.0390  0.3666
17163TIP3    H272981   5.848   0.534  12.876 -1.8399 -1.1168 -0.6042
17164TIP3   OH272982   3.303   0.837   2.198 -0.2034  0.1660  0.9202
17164TIP3    H172983   3.227   0.874   2.153 -0.7022 -0.0346  1.5722
17164TIP3    H272984   3.266   0.770   2.256  0.8423 -3.0333 -1.8117
17165TIP3   OH272985   5.020   3.342   5.114 -0.4444  0.3226  0.1593
17165TIP3    H172986   5.102   3.384   5.090  0.0796  0.1198  1.4846
17165TIP3    H272987   5.004   3.371   5.204  0.1911 -2.5959  1.3422
17166TIP3   OH272988   1.265   6.029  11.714  0.1421 -0.2011 -0.0191
17166TIP3    H172989   1.202   6.050  11.645 -0.0024 -0.2525  0.0950
17166TIP3    H272990   1.330   6.099  11.711 -0.3014  0.2278  0.3175
17167TIP3   OH272991   1.218   2.744   5.186 -0.6773 -0.1636  0.5543
17167TIP3    H172992   1.195   2.828   5.147  2.7043  0.5479 -0.2094
17167TIP3    H272993   1.164   2.680   5.138 -1.6526  1.3241 -0.4236
17168TIP3   OH272994   2.628   0.855  11.729  0.6128  0.7589 -0.4853
17168TIP3    H172995   2.567   0.898  11.789  0.6565 -0.0638  0.1645
17168TIP3    H272996   2.674   0.927  11.687  0.1975  1.3639  0.0634
17169TIP3   OH272997   5.991   2.492   3.832 -0.2185 -0.0965 -0.0823
17169TIP3    H172998   5.899   2.517   3.837 -0.8286 -2.1455 -0.3012
17169TIP3    H272999   6.024   2.501   3.921 -1.2394 -1.4146  0.4571
17170TIP3   OH273000   1.789   5.482   5.017  0.1964  0.2164 -0.2497
17170TIP3    H173001   1.765   5.494   5.108  0.4088 -0.0052 -0.1631
17170TIP3    H273002   1.724   5.532   4.968 -0.8187 -0.8809 -0.0529
17171TIP3   OH273003   6.125   2.838   4.056 -0.3367 -0.7588 -0.1178
17171TIP3    H173004   6.057   2.772   4.067 -1.6588  0.8225  2.0853
17171TIP3    H273005   6.077   2.916   4.026  0.6928  0.0028  0.1532
17172TIP3   OH273006   4.351   0.172   0.099  0.4178  0.0450  0.2558
17172TIP3    H173007   4.437   0.134   0.082  1.0378  1.0401  1.0249
17172TIP3    H273008   4.336   0.232   0.027 -0.1423 -0.9100 -0.4554
17173TIP3   OH273009   0.266   4.356  11.453 -0.1580 -0.0826  0.3633
17173TIP3    H173010   0.200   4.287  11.458  0.2653 -0.5599 -0.4848
17173TIP3    H273011   0.342   4.321  11.500  0.1018 -0.2424 -0.1786
17174TIP3   OH273012   5.682   3.722  11.485 -0.0597  0.2042  0.4305
17174TIP3    H173013   5.731   3.640  11.496 -0.1787  0.1304  0.4084
17174TIP3    H273014   5.746   3.784  11.449  0.5677  0.6892  2.2739
17175TIP3   OH273015   4.899   0.770   0.522 -0.0174  0.3252 -0.2272
17175TIP3    H173016   4.912   0.768   0.427 -0.6267 -0.8993 -0.3083
17175TIP3    H273017   4.805   0.757   0.533  0.0565  0.4121  0.5537
17176TIP3   OH273018   1.883   6.709   6.019 -0.6360  0.1634  0.2110
17176TIP3    H173019   1.945   6.781   6.009  0.7250 -1.3056 -4.0715
17176TIP3    H273020   1.917   6.658   6.093  0.9012  1.5673  0.5346
17177TIP3   OH273021   2.673   6.475   0.757 -0.4341 -0.1503 -0.5524
17177TIP3    H173022   2.748   6.432   0.798 -0.2348 -0.8619 -1.6173
17177TIP3    H273023   2.597   6.433   0.796 -0.3862  1.6471  1.7054
17178TIP3   OH273024   3.472   4.678   1.090 -0.2199  0.0780 -0.3176
17178TIP3    H173025   3.545   4.736   1.073 -0.5418  0.3653 -0.7329
17178TIP3    H273026   3.494   4.597   1.044  0.7580 -0.5451  1.1883
17179TIP3   OH273027   4.958   3.111  13.640  0.1193 -0.2540 -0.2348
17179TIP3    H173028   4.868   3.096  13.611 -0.3694  1.6891  0.1457
17179TIP3    H273029   4.963   3.067  13.725  0.1373 -2.0031 -1.1163
17180TIP3   OH273030   0.711   0.927   4.221  0.0714 -0.5557 -0.3684
17180TIP3    H173031   0.731   1.007   4.270  0.6982 -1.3107  0.6359
17180TIP3    H273032   0.618   0.936   4.198 -0.5521 -0.6269  1.8686
17181TIP3   OH273033   6.516   0.537  11.502  0.1954 -0.0660  0.2604
17181TIP3    H173034   6.458   0.481  11.450 -0.8364 -0.3522  1.6602
17181TIP3    H273035   6.545   0.482  11.574  0.4892  0.7149  0.7522
17182TIP3   OH273036   4.817   6.836  12.807  0.7143  0.2163  0.0943
17182TIP3    H173037   4.770   6.843  12.890 -1.1643 -0.3012 -0.8748
17182TIP3    H273038   4.778   6.760  12.764  1.5401  0.5641 -1.3348
17183TIP3   OH273039   6.233   3.288   1.914  0.5579  0.1050  0.0446
17183TIP3    H173040   6.269   3.299   2.002  0.7300 -1.3400  0.1750
17183TIP3    H273041   6.145   3.325   1.920  0.7629  0.5092  0.6721
17184TIP3   OH273042   3.018   1.785  16.916 -0.0104 -0.3843 -0.2783
17184TIP3    H173043   3.093   1.840  16.889 -1.2152  1.0375 -0.8670
17184TIP3    H273044   3.058   1.713  16.964  1.6661  0.9469  0.4410
17185TIP3   OH273045   1.554   0.297   1.872 -0.1295 -0.2969  0.2626
17185TIP3    H173046   1.517   0.210   1.883  2.2562 -1.3176  0.8973
17185TIP3    H273047   1.494   0.342   1.813 -1.7213 -2.1673  0.3742
17186TIP3   OH273048   4.435   3.258   2.379 -0.0006  0.9565  0.5029
17186TIP3    H173049   4.349   3.289   2.408 -0.5734  2.2577 -2.2402
17186TIP3    H273050   4.494   3.332   2.392 -0.3225  1.6517 -1.6694
17187TIP3   OH273051   4.253   5.159  11.496 -0.6603 -0.5047 -0.4915
17187TIP3    H173052   4.235   5.159  11.590 -0.9285 -1.6591 -0.5304
17187TIP3    H273053   4.167   5.162  11.455 -0.5488 -0.1811 -0.7101
17188TIP3   OH273054   5.180   2.893  11.805  0.4353  0.8499  0.9248
17188TIP3    H173055   5.087   2.911  11.819 -0.9277 -0.3995 -4.3066
17188TIP3    H273056   5.224   2.976  11.826 -2.0827  2.0533  1.8282
17189TIP3   OH273057   5.015   0.522  15.720 -0.0984  0.4994  0.6103
17189TIP3    H173058   4.957   0.578  15.770  0.1399  1.9911 -0.6867
17189TIP3    H273059   4.960   0.484  15.652  0.1413  0.7695  0.2596
17190TIP3   OH273060   5.899   1.702  11.523  0.6530  0.5576 -0.2438
17190TIP3    H173061   5.928   1.705  11.432  0.5404  0.3203 -0.2883
17190TIP3    H273062   5.816   1.655  11.520 -0.7372  2.8842 -0.3507
17191TIP3   OH273063   2.539   4.940   2.950  0.4283 -0.3635 -0.4071
17191TIP3    H173064   2.555   4.920   3.042  0.8332 -0.6654 -0.5362
17191TIP3    H273065   2.444   4.944   2.942  0.2675 -2.9859 -0.5126
17192TIP3   OH273066   5.352   5.495  15.494 -0.4462  0.2924 -0.2480
17192TIP3    H173067   5.334   5.471  15.403  0.0339  2.5386 -1.0047
17192TIP3    H273068   5.401   5.577  15.487 -3.4668  2.5262  2.0694
17193TIP3   OH273069   3.771   0.431  14.555 -0.1756 -0.1703  0.5538
17193TIP3    H173070   3.740   0.478  14.632 -3.4609 -0.4413 -0.4365
17193TIP3    H273071   3.691   0.411  14.505  1.5670 -2.1032 -1.7299
17194TIP3   OH273072   1.899   2.949   1.812  0.0873 -0.0567 -0.3284
17194TIP3    H173073   1.984   2.930   1.853 -0.6041 -0.9416  0.7465
17194TIP3    H273074   1.847   2.871   1.829 -1.1036  0.6676 -0.5857
17195TIP3   OH273075   1.568   2.398   1.528  0.2567 -0.0525  0.5834
17195TIP3    H173076   1.638   2.335   1.510 -1.1312 -1.0170 -1.8881
17195TIP3    H273077   1.537   2.374   1.615  1.0100 -1.5759  0.4767
17196TIP3   OH273078   6.767   2.419  17.111  0.0082  0.1876 -0.1008
17196TIP3    H173079   6.848   2.423  17.060  0.4421  2.6671  0.6668
17196TIP3    H273080   6.741   2.326  17.107  2.3925 -0.5170 -1.0593
17197TIP3   OH273081   6.470   3.135  16.233 -0.1127  0.0799 -0.3635
17197TIP3    H173082   6.525   3.096  16.301  0.1886 -0.0737 -0.6915
17197TIP3    H273083   6.505   3.100  16.151 -0.5835  0.1275 -0.5877
17198TIP3   OH273084   0.190   6.517   0.149 -0.1682 -0.0584  0.0232
17198TIP3    H173085   0.265   6.480   0.196  0.2155  0.0406 -0.4952
17198TIP3    H273086   0.117   6.461   0.173  0.5131 -1.5542 -1.1901
17199TIP3   OH273087   3.509   2.282   2.448  0.1539 -0.3338  0.3111
17199TIP3    H173088   3.415   2.280   2.463 -0.8390  1.5830 -4.1225
17199TIP3    H273089   3.532   2.375   2.449  1.7736 -0.6967  0.1414
17200TIP3   OH273090   1.323   3.409   6.666  0.4642  0.1919 -0.2789
17200TIP3    H173091   1.228   3.402   6.677  0.5417 -0.5875 -0.0404
17200TIP3    H273092   1.341   3.503   6.669 -0.5176  0.4872 -2.2278
17201TIP3   OH273093   0.209   0.318   6.675 -0.5789  0.6463  0.8280
17201TIP3    H173094   0.243   0.328   6.764  0.1932  0.0955  0.6072
17201TIP3    H273095   0.286   0.328   6.619 -1.1502  1.6095  0.1792
17202TIP3   OH273096   2.276   0.589  11.063  0.2731  0.0114  0.2422
17202TIP3    H173097   2.211   0.654  11.092 -1.2663 -1.3098 -0.1011
17202TIP3    H273098   2.248   0.564  10.975  0.2961 -1.7295  0.6880
17203TIP3   OH273099   3.882   4.565  14.926 -0.3723 -0.0466 -0.1134
17203TIP3    H173100   3.911   4.479  14.957 -0.6732 -0.0855  0.0742
17203TIP3    H273101   3.819   4.593  14.992 -2.1905 -0.8070 -1.4255
17204TIP3   OH273102   1.366   1.676   2.325  0.0324  0.1001 -0.4312
17204TIP3    H173103   1.424   1.745   2.357 -1.2002  0.5699  0.8723
17204TIP3    H273104   1.376   1.605   2.388  0.3232 -0.4155 -1.0505
17205TIP3   OH273105   1.540   1.077  12.575 -0.6243 -0.9519  0.1111
17205TIP3    H173106   1.522   1.091  12.482  1.2412  0.8681 -0.0612
17205TIP3    H273107   1.475   1.013  12.603 -1.8722 -0.8033 -2.2004
17206TIP3   OH273108   4.660   4.484   4.254 -0.0334 -0.3453  0.3215
17206TIP3    H173109   4.643   4.542   4.328 -0.0943 -0.4710  0.4080
17206TIP3    H273110   4.721   4.419   4.288 -0.2396 -0.5380  0.3297
17207TIP3   OH273111   3.420   0.712  12.817  0.5818  0.5359  0.7480
17207TIP3    H173112   3.489   0.693  12.754  1.3778  1.3453  1.3549
17207TIP3    H273113   3.405   0.629  12.863  1.5236  0.4823  0.9690
17208TIP3   OH273114   2.414   6.486  11.881 -0.4472  0.0633 -0.3319
17208TIP3    H173115   2.369   6.561  11.841  1.3631  0.4579 -1.7367
17208TIP3    H273116   2.343   6.435  11.920 -2.0731  0.9433 -1.9489
17209TIP3   OH273117   2.410   0.476   5.025 -0.1710 -0.2077  0.2257
17209TIP3    H173118   2.414   0.412   5.096 -0.9826  0.8948  1.3061
17209TIP3    H273119   2.460   0.551   5.057  1.5967 -0.6025 -1.4125
17210TIP3   OH273120   6.732   0.901  12.590  0.9509  0.0404 -0.1000
17210TIP3    H173121   6.729   0.984  12.638  0.0240 -1.0947  1.9748
17210TIP3    H273122   6.644   0.892  12.553  1.8047  1.1548 -2.6438
17211TIP3   OH273123   2.129   5.200   3.478 -0.2439 -0.6036 -0.0248
17211TIP3    H173124   2.060   5.245   3.429  0.3057 -0.9026 -1.0826
17211TIP3    H273125   2.159   5.266   3.542  0.1299  0.3509 -1.1526
17212TIP3   OH273126   4.925   2.533   2.889  0.3678 -0.3929 -0.0314
17212TIP3    H173127   4.927   2.546   2.794  1.3070 -1.3675 -0.1642
17212TIP3    H273128   4.958   2.444   2.902  2.8592  0.6321  1.3565
17213TIP3   OH273129   1.585   3.491   4.884 -0.2116  0.8297  0.2830
17213TIP3    H173130   1.508   3.457   4.930 -0.4055  0.2633 -0.4188
17213TIP3    H273131   1.600   3.427   4.814  1.3372  0.5414  0.8381
17214TIP3   OH273132   4.489   5.946  13.412  0.3543 -0.0910  0.3113
17214TIP3    H173133   4.497   5.880  13.343  0.3440  0.2272  0.0007
17214TIP3    H273134   4.451   5.899  13.486 -0.2656 -0.2924 -0.1256
17215TIP3   OH273135   2.487   1.503  13.709 -0.1573 -0.6566 -0.0405
17215TIP3    H173136   2.391   1.506  13.712 -0.1600 -1.1384  0.4064
17215TIP3    H273137   2.512   1.459  13.790  0.4629 -0.1919  0.0235
17216TIP3   OH273138   3.866   0.355   1.289  0.2739 -0.1779 -0.0004
17216TIP3    H173139   3.896   0.273   1.251  1.1822 -0.2374  0.8096
17216TIP3    H273140   3.939   0.416   1.275  0.4671 -0.0987  1.2831
17217TIP3   OH273141   2.347   6.252  12.478 -0.0121  0.3038  0.5345
17217TIP3    H173142   2.394   6.169  12.467 -0.1584  0.2182  0.5377
17217TIP3    H273143   2.255   6.228  12.462 -0.0788  0.4239  0.7455
17218TIP3   OH273144   2.157   4.194  13.176  0.1867  0.6719  0.8419
17218TIP3    H173145   2.165   4.106  13.215  0.5778  0.3406  0.0305
17218TIP3    H273146   2.073   4.226  13.209 -0.3562 -0.3387  0.5061
17219TIP3   OH273147   3.440   6.049  16.274 -0.2083 -0.4269 -0.1260
17219TIP3    H173148   3.415   6.128  16.324 -0.1536 -0.8265  0.5492
17219TIP3    H273149   3.382   6.049  16.198  0.4657  0.8072 -0.6689
17220TIP3   OH273150   0.777   2.099  15.521  0.0875  0.0293  0.1847
17220TIP3    H173151   0.796   2.158  15.594  1.6265  1.6691 -1.4498
17220TIP3    H273152   0.699   2.137  15.479 -2.2459 -2.1817  2.1587
17221TIP3   OH273153   1.612   3.813   5.959 -0.2915  0.1465 -0.9694
17221TIP3    H173154   1.535   3.784   6.008  0.2700  0.3788  0.0856
17221TIP3    H273155   1.637   3.736   5.908 -0.5243 -0.3138 -0.4079
17222TIP3   OH273156   6.019   2.159   1.411  0.6544 -0.1309 -0.3499
17222TIP3    H173157   6.060   2.076   1.437  1.2050  0.8790  2.3205
17222TIP3    H273158   5.997   2.202   1.494  0.8425  2.6399 -1.6303
17223TIP3   OH273159   3.730   5.048  15.947  0.0356  0.7079  0.0371
17223TIP3    H173160   3.808   4.993  15.956  1.4135  2.7044  1.0020
17223TIP3    H273161   3.703   5.037  15.855  0.9598 -0.6080 -0.1060
17224TIP3   OH273162   4.013   1.601   5.013  0.2079  0.6846  0.1054
17224TIP3    H173163   4.103   1.571   5.002 -0.0000 -1.0106  2.2563
17224TIP3    H273164   4.021   1.694   5.033  1.3606  0.8236 -0.8843
17225TIP3   OH273165   5.652   5.723   4.986  0.4307  0.0615 -0.0190
17225TIP3    H173166   5.669   5.729   4.892 -0.8874  1.5909 -0.1911
17225TIP3    H273167   5.586   5.791   5.003  0.1221 -0.6711  1.8864
17226TIP3   OH273168   4.831   2.199  14.981 -0.1744  0.1735 -0.8034
17226TIP3    H173169   4.888   2.167  15.050 -0.3321  0.5755 -0.4838
17226TIP3    H273170   4.879   2.272  14.942 -0.9205  1.2244  0.1844
17227TIP3   OH273171   1.189   1.125  14.473 -0.8163 -0.2253  0.0960
17227TIP3    H173172   1.147   1.196  14.521  1.4949  1.5717 -0.3900
17227TIP3    H273173   1.253   1.090  14.535  0.2501  0.2587 -0.7140
17228TIP3   OH273174   4.361   0.794   3.023 -0.2809 -0.2005  0.7704
17228TIP3    H173175   4.405   0.817   2.941  1.9238  1.2499  2.2668
17228TIP3    H273176   4.356   0.698   3.021  1.1443 -0.2843 -0.4031
17229TIP3   OH273177   1.857   3.616  13.499  0.5497  0.2131  0.1362
17229TIP3    H173178   1.787   3.645  13.558 -0.2503 -1.2712 -0.0359
17229TIP3    H273179   1.936   3.619  13.554  0.2693  1.3322  0.5083
17230TIP3   OH273180   0.552   1.036   3.081 -0.1114 -0.6033 -0.3815
17230TIP3    H173181   0.591   1.091   3.148  0.1439 -0.3110 -0.7655
17230TIP3    H273182   0.587   0.949   3.098  1.7781 -0.1231 -1.4933
17231TIP3   OH273183   4.424   4.082  12.703  0.0307  0.2178  0.6514
17231TIP3    H173184   4.353   4.058  12.643 -0.5964  2.3226  0.4503
17231TIP3    H273185   4.381   4.092  12.788  0.4711 -0.4078  0.9532
17232TIP3   OH273186   4.162   1.038   2.040 -0.2858  0.3940  0.1642
17232TIP3    H173187   4.218   1.114   2.056 -0.4267  0.5939 -0.2783
17232TIP3    H273188   4.078   1.062   2.078 -0.5175  0.7248 -0.5494
17233TIP3   OH273189   0.350   5.982   4.847 -0.0309  0.1730 -0.2302
17233TIP3    H173190   0.288   6.018   4.910  0.9280  1.5101 -0.0145
17233TIP3    H273191   0.298   5.961   4.770 -0.8959  0.3497  0.2990
17234TIP3   OH273192   2.148   3.207  12.574 -0.0490 -0.5984 -0.3585
17234TIP3    H173193   2.167   3.113  12.570  1.4394 -0.2719 -2.2222
17234TIP3    H273194   2.170   3.240  12.487  1.6011  1.8549  0.8543
17235TIP3   OH273195   1.352   0.222  14.084  0.4190  0.3478 -0.7303
17235TIP3    H173196   1.290   0.277  14.037 -3.2568 -2.7025  0.0879
17235TIP3    H273197   1.335   0.241  14.176 -0.7164 -1.7378 -0.4427
17236TIP3   OH273198   2.143   3.839   0.895  0.6697 -0.3252 -0.0642
17236TIP3    H173199   2.073   3.844   0.960  0.2305  2.5769 -0.6141
17236TIP3    H273200   2.133   3.752   0.856 -0.5946 -1.1920  2.0320
17237TIP3   OH273201   0.892   5.592   2.536  0.1328 -0.0206  0.0659
17237TIP3    H173202   0.807   5.632   2.554  0.6147  0.7476  0.7034
17237TIP3    H273203   0.940   5.601   2.618  0.0768 -2.4391  0.4367
17238TIP3   OH273204   5.819   4.791  13.523 -0.2424 -0.7317 -0.4690
17238TIP3    H173205   5.875   4.719  13.550  0.8126 -0.0075 -0.6662
17238TIP3    H273206   5.847   4.866  13.576 -2.1797 -0.7318  0.6723
17239TIP3   OH273207   2.408   4.681  16.389 -0.1559 -0.1510  0.2149
17239TIP3    H173208   2.468   4.752  16.364  0.6285 -1.2987 -1.3073
17239TIP3    H273209   2.360   4.661  16.309 -0.4195 -1.2910  0.6445
17240TIP3   OH273210   2.122   2.545  12.419 -0.0829 -0.4979 -0.7566
17240TIP3    H173211   2.035   2.536  12.378 -0.5891  1.5699 -0.2592
17240TIP3    H273212   2.127   2.637  12.443  1.2691 -1.0789  1.4679
17241TIP3   OH273213   2.040   6.312   2.755  0.0951 -0.0023 -0.3849
17241TIP3    H173214   1.988   6.258   2.814 -1.6147  0.1877 -1.6305
17241TIP3    H273215   2.043   6.398   2.798 -0.7337  0.0122 -0.3376
17242TIP3   OH273216   6.484   3.039   4.589  0.2219 -0.0103  0.1926
17242TIP3    H173217   6.389   3.041   4.596  0.2062 -0.6581  0.2054
17242TIP3    H273218   6.514   3.012   4.676  0.5878  3.1841  1.1913
17243TIP3   OH273219   3.146   4.073  11.421  0.8351  0.3538 -0.5061
17243TIP3    H173220   3.165   4.026  11.502 -1.3629 -0.0252 -0.1576
17243TIP3    H273221   3.130   4.004  11.356 -2.4328  0.4824  0.0104
17244TIP3   OH273222   5.223   6.091   3.933 -0.0381  0.1618  0.2021
17244TIP3    H173223   5.187   6.110   4.019  0.9063  0.5030  0.5313
17244TIP3    H273224   5.164   6.025   3.896 -0.2468 -0.2448  1.2461
17245TIP3   OH273225   2.639   5.418  13.944  0.2718 -0.7468 -0.0863
17245TIP3    H173226   2.728   5.453  13.943  0.4076 -0.9713  1.5703
17245TIP3    H273227   2.631   5.375  14.029 -1.5102 -0.5143 -0.0951
17246TIP3   OH273228   3.455   3.755  17.076  0.3524 -0.2181 -0.7721
17246TIP3    H173229   3.467   3.755  17.171 -1.3422  0.7850 -0.5287
17246TIP3    H273230   3.525   3.811  17.043  0.9035 -0.5040 -0.1116
17247TIP3   OH273231   3.381   4.173  12.801  0.5079 -0.2291  0.0118
17247TIP3    H173232   3.320   4.115  12.756  1.0899  0.3831 -1.6275
17247TIP3    H273233   3.449   4.115  12.834 -0.7876 -0.8922  1.6798
17248TIP3   OH273234   2.855   1.197  12.959  0.1550  0.2345  0.2510
17248TIP3    H173235   2.936   1.152  12.983  0.0408  0.1592  0.4909
17248TIP3    H273236   2.880   1.253  12.886  0.4262  0.2146  0.3283
17249TIP3   OH273237   0.827   0.489   3.878  0.4491  0.3570 -0.1393
17249TIP3    H173238   0.881   0.508   3.955  2.1606 -0.4112 -1.0988
17249TIP3    H273239   0.740   0.471   3.913  1.1901  0.0293  1.6176
17250TIP3   OH273240   5.587   5.198   5.075  1.0454 -0.1932  0.0667
17250TIP3    H173241   5.653   5.227   5.138  0.0621 -2.4641  2.3023
17250TIP3    H273242   5.598   5.257   5.001  2.6039  2.3538  2.1272
17251TIP3   OH273243   1.808   3.939   3.761 -0.1960 -0.3563 -0.3643
17251TIP3    H173244   1.797   3.879   3.834  0.3598 -0.0401 -0.0154
17251TIP3    H273245   1.721   3.943   3.720 -0.5410 -0.4364  0.3447
17252TIP3   OH273246   3.443   2.618   6.260 -0.1825 -0.2220 -0.1151
17252TIP3    H173247   3.408   2.613   6.349 -2.0295  0.5997 -0.7399
17252TIP3    H273248   3.369   2.596   6.203  0.4919  0.9181 -1.5100
17253TIP3   OH273249   0.154   3.378  12.438  0.6023  0.0354  0.5589
17253TIP3    H173250   0.069   3.358  12.398  2.2060 -0.6743 -2.8159
17253TIP3    H273251   0.171   3.305  12.497  0.6037 -2.0415 -1.8445
17254TIP3   OH273252   5.471   4.717  16.537  0.4231 -0.1155 -0.4334
17254TIP3    H173253   5.526   4.697  16.461  0.8407  0.0392 -0.1719
17254TIP3    H273254   5.501   4.657  16.605  0.3348  0.0382 -0.2574
17255TIP3   OH273255   3.924   5.111  12.797  0.4441 -0.2917 -0.0391
17255TIP3    H173256   3.972   5.116  12.715  0.4396  1.5231  0.0284
17255TIP3    H273257   3.845   5.163  12.782 -1.0920 -2.4564  0.1487
17256TIP3   OH273258   3.637   3.394   4.974  0.1213 -0.2334 -0.0343
17256TIP3    H173259   3.618   3.368   5.064 -2.1615  0.4386 -0.2633
17256TIP3    H273260   3.573   3.347   4.921  1.0250 -0.1322 -1.2721
17257TIP3   OH273261   6.431   6.674   2.325  0.2548  0.2522  0.2294
17257TIP3    H173262   6.391   6.586   2.329 -1.4244  0.7966 -2.2404
17257TIP3    H273263   6.388   6.723   2.394  1.1173 -0.7888  1.5545
17258TIP3   OH273264   2.696   3.766   4.028 -0.3201  0.4825 -0.1150
17258TIP3    H173265   2.770   3.827   4.029 -0.4384  0.6475  1.4705
17258TIP3    H273266   2.618   3.821   4.032 -0.4750  0.2582 -0.0259
17259TIP3   OH273267   4.913   1.272   0.910 -0.2235  0.2872 -0.3205
17259TIP3    H173268   4.972   1.221   0.966 -0.1107  0.6245 -0.1324
17259TIP3    H273269   4.872   1.206   0.853  1.2969  0.1933 -1.3521
17260TIP3   OH273270   0.674   1.059  16.334 -0.1819 -0.0022 -0.2242
17260TIP3    H173271   0.745   1.009  16.374 -0.3600 -1.5034 -1.6553
17260TIP3    H273272   0.710   1.146  16.320  0.4431  0.0601  1.5561
17261TIP3   OH273273   5.270   6.483  14.485  0.1994  0.0976 -0.1159
17261TIP3    H173274   5.282   6.513  14.575  0.7298  0.3120 -0.2567
17261TIP3    H273275   5.248   6.562  14.436 -1.2360 -0.1868  0.0205
17262TIP3   OH273276   0.016   6.546  13.319 -0.0494 -0.0151 -0.5640
17262TIP3    H173277   0.100   6.548  13.364 -0.5421 -2.0746  0.6032
17262TIP3    H273278   0.021   6.468  13.263 -1.1688 -0.2026 -0.4374
17263TIP3   OH273279   2.097   4.533  13.124  0.0947 -0.5471  0.0778
17263TIP3    H173280   2.070   4.615  13.166 -0.6352 -0.6117 -0.2583
17263TIP3    H273281   2.078   4.466  13.189  0.5270 -0.4774  0.2831
17264TIP3   OH273282   3.064   4.833  12.850 -0.1197  0.2372 -0.4135
17264TIP3    H173283   3.149   4.811  12.812  0.0698  0.1600  0.0390
17264TIP3    H273284   3.009   4.857  12.776  0.7283  1.7577 -0.5806
17265TIP3   OH273285   5.694   4.040   3.877 -0.2398  0.2821 -0.1301
17265TIP3    H173286   5.760   4.054   3.809 -1.2133 -0.5662 -1.2700
17265TIP3    H273287   5.718   3.956   3.917  1.0584  1.3475  1.4723
17266TIP3   OH273288   3.631   1.661  10.483  0.7033  0.0442  0.4360
17266TIP3    H173289   3.568   1.730  10.503  0.3751  0.3335 -1.3915
17266TIP3    H273290   3.709   1.707  10.453  1.8103 -0.3184  2.5507
17267TIP3   OH273291   1.088   5.442   1.944 -0.2227  0.3820 -0.4752
17267TIP3    H173292   1.045   5.523   1.971 -0.7602  0.1159 -0.5333
17267TIP3    H273293   1.054   5.375   2.004 -1.6296 -0.2690 -1.9253
17268TIP3   OH273294   5.431   0.448  13.880  0.0047 -0.0748  0.0864
17268TIP3    H173295   5.491   0.507  13.834  0.3617  0.5476  1.3015
17268TIP3    H273296   5.457   0.360  13.851  1.8151  0.1480  0.8866
17269TIP3   OH273297   4.029   3.084  15.666  0.9682 -0.0890  0.0144
17269TIP3    H173298   3.937   3.101  15.685  0.8649 -0.9192  0.2907
17269TIP3    H273299   4.031   2.993  15.638  1.8269 -0.3352  0.8423
17270TIP3   OH273300   1.896   1.539  15.495  0.1627 -0.4658  0.2327
17270TIP3    H173301   1.892   1.444  15.489  1.1359 -0.5143  0.1948
17270TIP3    H273302   1.841   1.570  15.423  1.4834 -1.0175 -1.0572
17271TIP3   OH273303   6.777   1.092  16.140  0.1506  0.2691  0.5254
17271TIP3    H173304   6.837   1.140  16.083 -0.8328 -1.5603 -2.2425
17271TIP3    H273305   6.835   1.034  16.191  1.0006  1.3232  0.7884
17272TIP3   OH273306   6.499   1.572   0.335 -0.1015 -0.6765  0.1503
17272TIP3    H173307   6.480   1.478   0.345 -0.8413 -0.8251 -2.1128
17272TIP3    H273308   6.468   1.593   0.247  1.0794  1.4581  0.1922
17273TIP3   OH273309   0.714   1.006   4.920  0.2243 -0.4046 -0.2150
17273TIP3    H173310   0.809   1.013   4.918  0.2351 -0.5783 -1.5706
17273TIP3    H273311   0.697   0.913   4.908 -0.1228 -0.4546  0.5994
17274TIP3   OH273312   6.259   4.298   3.316  0.1642 -0.0863  0.3111
17274TIP3    H173313   6.274   4.386   3.282 -0.8100  0.3966  1.0747
17274TIP3    H273314   6.317   4.291   3.392  0.0506 -0.0093  0.4045
17275TIP3   OH273315   1.294   5.769   0.619  0.7551 -0.0735  0.5504
17275TIP3    H173316   1.214   5.737   0.662  0.0444 -2.1882 -2.1164
17275TIP3    H273317   1.264   5.809   0.538  2.3850 -1.8624 -1.0412
17276TIP3   OH273318   4.750   0.046  12.227  0.3588 -0.3332  0.9567
17276TIP3    H173319   4.672  -0.009  12.223  0.3581 -0.3103 -2.8823
17276TIP3    H273320   4.823  -0.015  12.238  0.2502 -1.1188 -1.9967
17277TIP3   OH273321   6.020   0.232  12.880 -0.2218 -0.8388  0.4038
17277TIP3    H173322   6.031   0.195  12.968  0.6700 -2.5060 -0.3710
17277TIP3    H273323   5.929   0.260  12.878 -0.8941 -2.7553  1.1734
17278TIP3   OH273324   2.450   5.646  11.221  0.2613 -0.2662 -0.0247
17278TIP3    H173325   2.491   5.703  11.286 -0.7324 -0.7017  1.0135
17278TIP3    H273326   2.356   5.657  11.235  0.0492 -1.8819 -0.0517
17279TIP3   OH273327   3.830   2.908   1.226 -0.3923 -0.1854  0.5287
17279TIP3    H173328   3.877   2.853   1.164  0.5396  1.3592 -0.1990
17279TIP3    H273329   3.837   2.862   1.310 -0.5931 -1.6865 -0.2511
17280TIP3   OH273330   3.236   1.010  14.484  0.1552 -0.0893  0.1288
17280TIP3    H173331   3.194   0.934  14.444  0.0522  1.4314 -2.9130
17280TIP3    H273332   3.286   0.974  14.557 -0.4091 -2.9678 -0.7914
17281TIP3   OH273333   0.852   4.856  12.235  0.2648  0.0503 -0.2260
17281TIP3    H173334   0.907   4.782  12.209 -0.8856 -0.6647 -0.6804
17281TIP3    H273335   0.772   4.847  12.182 -1.3415 -0.3207  2.1236
17282TIP3   OH273336   6.274   4.972  13.544 -0.1964  0.6727 -0.1519
17282TIP3    H173337   6.290   4.879  13.559 -0.9493  0.1960 -1.9564
17282TIP3    H273338   6.337   5.017  13.599  0.8495 -0.9271  0.0255
17283TIP3   OH273339   4.299   3.033  13.925  0.3832  0.2796  0.0092
17283TIP3    H173340   4.395   3.029  13.923  0.4367  1.2990  0.2456
17283TIP3    H273341   4.278   3.069  14.011 -0.2267 -0.2206  0.0765
17284TIP3   OH273342   3.767   6.731   0.237 -0.2295 -0.0467 -0.2184
17284TIP3    H173343   3.716   6.807   0.265 -0.6908 -0.1885 -0.6587
17284TIP3    H273344   3.719   6.656   0.271  0.8079 -0.1155  1.1532
17285TIP3   OH273345   5.674   1.689  14.767 -0.5410 -0.5041  0.4883
17285TIP3    H173346   5.603   1.721  14.712 -2.1259 -0.8930  2.1917
17285TIP3    H273347   5.752   1.691  14.711 -1.9547 -0.4316 -1.5614
17286TIP3   OH273348   5.334   6.546  13.219  0.7998 -0.5873  0.6321
17286TIP3    H173349   5.260   6.604  13.200  0.3321 -1.6482 -0.9599
17286TIP3    H273350   5.398   6.602  13.263 -0.3374  0.7131  0.6771
17287TIP3   OH273351   0.984   6.316  12.312 -0.3984 -0.2766 -0.1842
17287TIP3    H173352   0.903   6.337  12.359  0.4557  1.3768  0.6832
17287TIP3    H273353   0.956   6.290  12.225 -1.8987 -0.4306  0.3205
17288TIP3   OH273354   1.262   1.347  15.350  0.0212 -0.4662  0.1534
17288TIP3    H173355   1.312   1.425  15.372 -0.7307  0.1787 -0.3464
17288TIP3    H273356   1.318   1.274  15.374  1.4233  0.2294 -0.8771
17289TIP3   OH273357   6.075   2.110  11.541 -0.1142  0.4082  0.2415
17289TIP3    H173358   6.079   2.061  11.623  0.3134  0.9362  0.5394
17289TIP3    H273359   5.982   2.112  11.519 -0.1923 -0.0747  0.5010
17290TIP3   OH273360   5.367   4.224  15.783  0.0438 -0.2469  0.4094
17290TIP3    H173361   5.352   4.178  15.700 -0.8078  1.2832 -0.3282
17290TIP3    H273362   5.452   4.193  15.812 -0.2517 -1.8620 -0.3174
17291TIP3   OH273363   6.633   5.114  16.151 -0.1244  0.2347 -0.6485
17291TIP3    H173364   6.650   5.032  16.104  1.3980  1.2203 -1.9282
17291TIP3    H273365   6.538   5.123  16.148 -0.3460 -1.5590 -0.3175
17292TIP3   OH273366   1.123   4.561  16.425  0.0200 -0.0626  0.4436
17292TIP3    H173367   1.067   4.537  16.351  0.3643 -3.8834  1.1865
17292TIP3    H273368   1.063   4.590  16.493 -1.0542 -2.7287  0.7450
17293TIP3   OH273369   0.222   0.850  13.361 -0.3265  0.2204  0.2319
17293TIP3    H173370   0.231   0.773  13.306  0.2820 -0.1108  0.7683
17293TIP3    H273371   0.177   0.819  13.440 -2.5292  0.9973 -0.6594
17294TIP3   OH273372   2.616   6.322  16.575  0.2368 -0.0605 -0.0272
17294TIP3    H173373   2.609   6.272  16.493  1.6280 -1.1154  0.4576
17294TIP3    H273374   2.622   6.256  16.643 -0.0954  0.8077  0.8701
17295TIP3   OH273375   4.048   3.036  16.596 -0.8519 -0.8829  0.4233
17295TIP3    H173376   4.128   3.062  16.642 -0.2520  0.5151 -1.3133
17295TIP3    H273377   3.995   2.993  16.663  0.5370 -0.1238  2.0831
17296TIP3   OH273378   3.274   1.233  16.323 -0.2247  0.3232  0.6881
17296TIP3    H173379   3.233   1.175  16.387 -0.7329  0.2920  0.3429
17296TIP3    H273380   3.244   1.321  16.346 -1.0968  0.2232 -0.0022
17297TIP3   OH273381   5.852   3.005   6.564  0.1273 -0.0329  0.0697
17297TIP3    H173382   5.901   2.927   6.588  1.9665  0.6025 -1.2695
17297TIP3    H273383   5.783   2.974   6.505  1.4216 -0.6109 -1.2130
17298TIP3   OH273384   6.165   4.043  13.098  0.0865  0.0349  0.5659
17298TIP3    H173385   6.136   4.030  13.188  2.0481  0.4351  1.3089
17298TIP3    H273386   6.087   4.026  13.045 -1.2163  0.1800  2.3414
17299TIP3   OH273387   0.342   4.326   3.515 -0.1265  0.3710 -0.3187
17299TIP3    H173388   0.300   4.312   3.600 -3.2099 -1.9610 -2.0194
17299TIP3    H273389   0.416   4.266   3.514  0.3598  0.9082  0.8900
17300TIP3   OH273390   4.058   5.321   2.856  0.3736 -0.5695 -0.0486
17300TIP3    H173391   3.978   5.364   2.825 -0.3648 -1.6016  0.3325
17300TIP3    H273392   4.102   5.291   2.776 -0.0986 -0.7919 -0.2310
17301TIP3   OH273393   6.027   5.608  15.151 -0.4219  0.0511 -0.2340
17301TIP3    H173394   6.048   5.515  15.148  1.1870  0.3992 -2.3581
17301TIP3    H273395   5.955   5.619  15.089 -2.4720 -0.1190  2.0152
17302TIP3   OH273396   4.006   3.516   0.845 -0.4330  0.1047 -0.4491
17302TIP3    H173397   4.046   3.588   0.797  0.6120  0.5622  1.0203
17302TIP3    H273398   3.917   3.512   0.812  0.1944  0.4599 -2.3087
17303TIP3   OH273399   1.393   0.572  10.981 -0.4204  0.5379 -0.0001
17303TIP3    H173400   1.433   0.494  10.943  1.7222  1.4263  0.2377
17303TIP3    H273401   1.309   0.581  10.937 -1.0340 -2.2549  0.4687
17304TIP3   OH273402   3.814   1.077   2.887  0.3193  0.2464  0.0070
17304TIP3    H173403   3.803   1.160   2.934 -3.4549 -0.5508  0.8036
17304TIP3    H273404   3.849   1.017   2.952 -0.4184  0.3051  0.4563
17305TIP3   OH273405   4.985   5.917  14.255 -0.2723  0.6701 -0.3414
17305TIP3    H173406   5.024   5.957  14.177  0.9356 -1.0916 -0.6947
17305TIP3    H273407   4.891   5.931  14.244 -0.1587  0.1952 -2.2959
17306TIP3   OH273408   2.406   0.288   5.240 -0.3334  0.5252 -0.8540
17306TIP3    H173409   2.437   0.223   5.303  0.4785 -0.4764 -2.2379
17306TIP3    H273410   2.417   0.372   5.285 -0.7047 -0.2162  0.6893
17307TIP3   OH273411   4.721   4.340  10.965 -0.4601  0.3811  0.0533
17307TIP3    H173412   4.688   4.270  11.021  1.5611  0.3444  1.2980
17307TIP3    H273413   4.667   4.335  10.886 -1.5319 -1.4036  0.8339
17308TIP3   OH273414   4.380   0.010   4.305 -0.2129  0.3389  0.1236
17308TIP3    H173415   4.360  -0.028   4.219 -0.3491 -0.6934  0.5981
17308TIP3    H273416   4.474   0.029   4.302 -0.5627  2.1297 -0.9331
17309TIP3   OH273417   0.838   1.949   2.647  0.7985  0.1725  0.0680
17309TIP3    H173418   0.917   1.896   2.635  0.9050  0.3606 -0.0731
17309TIP3    H273419   0.850   2.024   2.588  0.2222 -0.1266 -0.4355
17310TIP3   OH273420   6.583   5.186   4.857  0.0748  0.4498 -0.4187
17310TIP3    H173421   6.630   5.204   4.775 -0.7784  1.0558 -0.7902
17310TIP3    H273422   6.638   5.122   4.902  0.6541  0.2399 -1.3829
17311TIP3   OH273423   2.455   1.120   2.838  0.7091 -0.0374 -0.0049
17311TIP3    H173424   2.515   1.048   2.855  0.9370  0.3135  0.7402
17311TIP3    H273425   2.509   1.188   2.797  1.2622  0.9540  2.2224
17312TIP3   OH273426   0.493   1.169  16.098  0.4062 -0.2273  0.4003
17312TIP3    H173427   0.522   1.166  16.189  0.8419  0.8014  0.3091
17312TIP3    H273428   0.432   1.243  16.095  0.6323 -0.0624 -0.2021
17313TIP3   OH273429   2.598   1.634   3.008  0.0074  0.4910  1.1489
17313TIP3    H173430   2.681   1.671   3.038 -0.2763  0.7866  1.5814
17313TIP3    H273431   2.533   1.669   3.069 -0.3896 -0.0057  1.0133
17314TIP3   OH273432   0.508   1.025  11.056 -0.0273 -0.3234 -0.5796
17314TIP3    H173433   0.554   1.029  10.972  0.4553  1.0633 -0.2731
17314TIP3    H273434   0.577   1.007  11.120 -0.1546  0.0898 -0.3199
17315TIP3   OH273435   5.075   5.881  16.969 -0.0600 -0.5865 -0.4131
17315TIP3    H173436   5.092   5.905  16.878  0.6165 -1.5604 -0.5484
17315TIP3    H273437   5.065   5.965  17.014 -0.4944 -0.0978 -1.3914
17316TIP3   OH273438   0.728   6.433  13.141  0.0498  0.0870 -0.2185
17316TIP3    H173439   0.771   6.473  13.217 -0.9920  3.5430 -1.2476
17316TIP3    H273440   0.791   6.369  13.108  2.5001  1.7508  0.9317
17317TIP3   OH273441   3.968   2.167   3.362  0.5273  0.4814  0.2004
17317TIP3    H173442   3.952   2.092   3.420  1.2178  0.9804  1.0534
17317TIP3    H273443   3.999   2.236   3.420 -0.6130  1.6136 -0.5163
17318TIP3   OH273444   3.135   6.288  16.357  0.0786 -0.4206  0.0227
17318TIP3    H173445   3.122   6.234  16.435 -0.7589  0.6801  0.6872
17318TIP3    H273446   3.051   6.333  16.345  0.5246  0.2035 -0.9116
17319TIP3   OH273447   0.264   3.094   3.965 -0.3587  0.0917 -0.2167
17319TIP3    H173448   0.214   3.103   4.046 -0.8016 -2.9384 -0.0419
17319TIP3    H273449   0.199   3.067   3.899  0.4985 -0.7533 -0.7525
17320TIP3   OH273450   0.011   3.146  13.701  0.5281 -0.0224  0.0609
17320TIP3    H173451   0.007   3.239  13.678  2.7886  0.1479  0.1962
17320TIP3    H273452  -0.010   3.144  13.795 -0.8716  0.1557 -0.2207
17321TIP3   OH273453   3.726   0.855   5.960 -0.2240 -0.1004  0.0176
17321TIP3    H173454   3.764   0.896   6.038 -0.7902 -0.4431  0.4779
17321TIP3    H273455   3.802   0.832   5.906  0.1096  1.8508 -0.4324
17322TIP3   OH273456   1.012   4.046   2.800  0.1136  0.2830  0.5139
17322TIP3    H173457   0.926   4.013   2.827  0.9929 -0.7508  2.2285
17322TIP3    H273458   1.058   4.063   2.882  2.2519 -1.0969 -0.3179
17323TIP3   OH273459   6.163   0.226   2.866 -0.4765 -0.3860  0.4060
17323TIP3    H173460   6.167   0.166   2.791  1.7959 -0.8620  0.8390
17323TIP3    H273461   6.222   0.297   2.843  0.2969 -0.5637  1.7452
17324TIP3   OH273462   0.767   4.228   0.588  0.6679  0.1920 -0.1193
17324TIP3    H173463   0.785   4.320   0.609 -0.8387  0.0508  2.1567
17324TIP3    H273464   0.817   4.179   0.653  0.3292 -0.5457 -0.4071
17325TIP3   OH273465   1.246   4.137   1.476  0.2021  0.1109 -0.2419
17325TIP3    H173466   1.242   4.044   1.454 -1.5514 -0.1237  0.8774
17325TIP3    H273467   1.248   4.182   1.392  1.7705 -0.9409 -0.7978
17326TIP3   OH273468   5.784   2.963   0.494  0.4424  0.2106 -0.3282
17326TIP3    H173469   5.842   3.027   0.536  0.6765  0.3425 -0.8420
17326TIP3    H273470   5.698   3.005   0.495  0.5296  0.3930 -0.3580
17327TIP3   OH273471   3.413   2.057  15.489  0.4444  0.0523  0.1248
17327TIP3    H173472   3.321   2.059  15.465  0.6324  0.3219 -0.6208
17327TIP3    H273473   3.451   1.987  15.435  0.7417  0.1998  0.1385
17328TIP3   OH273474   4.404   2.518  14.439 -0.4169  0.1813  0.5569
17328TIP3    H173475   4.494   2.490  14.423 -0.0388 -0.2437  3.0512
17328TIP3    H273476   4.351   2.459  14.385  0.7608  0.3646 -0.8638
17329TIP3   OH273477   1.094   1.172  12.206  0.2664  0.0476  0.0946
17329TIP3    H173478   1.131   1.225  12.277 -1.9824  0.3363  1.1482
17329TIP3    H273479   1.075   1.088  12.248  0.7863 -0.4987 -0.7311
17330TIP3   OH273480   0.031   2.518   3.431 -0.2602 -0.1426 -0.6359
17330TIP3    H173481   0.024   2.434   3.387 -1.9703 -0.3769 -0.0158
17330TIP3    H273482   0.041   2.582   3.360  1.5630 -0.8748 -1.0783
17331TIP3   OH273483   1.577   5.229   4.677 -0.3909 -0.5633 -0.5456
17331TIP3    H173484   1.508   5.274   4.727  1.7281 -0.9196  3.1121
17331TIP3    H273485   1.553   5.136   4.681  1.0453 -0.9198  2.4077
17332TIP3   OH273486   1.070   4.272  13.263 -0.7981  0.4209 -0.4298
17332TIP3    H173487   1.083   4.366  13.271 -2.2440  0.5328  1.1146
17332TIP3    H273488   0.990   4.263  13.211 -0.7243  0.0471 -0.4821
17333TIP3   OH273489   3.480   6.394  16.897 -0.0484  0.7012 -0.0149
17333TIP3    H173490   3.533   6.362  16.824 -0.6454  1.4214 -0.7900
17333TIP3    H273491   3.394   6.413  16.858 -0.3518  1.1784  0.8507
17334TIP3   OH273492   4.569   6.524  13.319  0.3014  0.3450 -0.2469
17334TIP3    H173493   4.537   6.433  13.316 -1.3927  0.9320 -1.6278
17334TIP3    H273494   4.602   6.534  13.409 -2.8471 -0.5687  1.1685
17335TIP3   OH273495   2.410   2.753  16.771 -0.4875 -0.2530 -0.0080
17335TIP3    H173496   2.490   2.771  16.821 -1.3522 -0.8374  1.6559
17335TIP3    H273497   2.340   2.756  16.836 -1.9491  1.0071 -1.5550
17336TIP3   OH273498   5.015   2.603   5.024  0.2694  0.2289  0.6821
17336TIP3    H173499   5.091   2.644   5.066  0.5423  0.0199  0.3974
17336TIP3    H273500   4.945   2.667   5.033  1.3072  1.8962 -1.9312
17337TIP3   OH273501   3.831   1.849   1.738  0.1697  0.2164  0.0182
17337TIP3    H173502   3.837   1.945   1.744  2.3806  0.1200  0.2976
17337TIP3    H273503   3.855   1.818   1.825  1.6587 -0.5958 -0.6364
17338TIP3   OH273504   0.921   3.238  11.777  0.4666 -0.3852  0.2143
17338TIP3    H173505   0.840   3.223  11.825 -0.1285  0.1295 -0.6006
17338TIP3    H273506   0.976   3.290  11.836  0.1328 -0.5719  0.6916
17339TIP3   OH273507   5.746   1.816   3.239  0.5684 -0.5702 -0.3803
17339TIP3    H173508   5.724   1.838   3.329 -0.3609  0.1304 -0.7649
17339TIP3    H273509   5.799   1.890   3.208 -0.4616 -0.0221 -0.8926
17340TIP3   OH273510   2.489   5.271   1.524 -0.5713 -0.3489 -0.0323
17340TIP3    H173511   2.485   5.363   1.497 -1.2377  0.3755  2.2519
17340TIP3    H273512   2.449   5.223   1.452  1.0855  0.9604 -1.9238
17341TIP3   OH273513   2.188   6.735  12.059 -0.1059  0.1680  0.2366
17341TIP3    H173514   2.146   6.687  11.989 -0.2546  1.7271 -0.7842
17341TIP3    H273515   2.120   6.791  12.095  0.3087  0.3761  0.7192
17342TIP3   OH273516   2.166   4.633  14.150 -0.3307  0.4713 -0.0835
17342TIP3    H173517   2.114   4.595  14.079 -0.2462  1.5361 -0.7531
17342TIP3    H273518   2.244   4.579  14.154 -2.0440 -2.0577  1.9123
17343TIP3   OH273519   4.094   3.418  12.917 -0.2903  0.7760 -0.1652
17343TIP3    H173520   4.022   3.472  12.886 -1.0018 -0.9670 -1.7032
17343TIP3    H273521   4.063   3.381  13.000 -0.6719  1.0096 -0.2036
17344TIP3   OH273522   2.444   0.527  14.610  0.3500  0.2455  0.1533
17344TIP3    H173523   2.537   0.547  14.614  0.8900 -2.1478  1.8857
17344TIP3    H273524   2.406   0.577  14.683  0.2021  1.4061 -0.6987
17345TIP3   OH273525   4.254   4.910   5.052 -0.9044 -0.0505  0.1290
17345TIP3    H173526   4.332   4.930   5.104 -0.4315 -0.3798 -0.4365
17345TIP3    H273527   4.230   4.821   5.078  1.8151 -1.9864 -3.0940
17346TIP3   OH273528   2.449   0.297  15.179 -0.5984 -0.0032  0.3509
17346TIP3    H173529   2.377   0.241  15.207  0.0276 -0.8870  0.2308
17346TIP3    H273530   2.470   0.350  15.257 -1.1369  0.0096  0.4883
17347TIP3   OH273531   2.820   0.323  15.826 -0.5127  0.0072  0.0123
17347TIP3    H173532   2.890   0.382  15.853  0.0208 -1.3820  1.9297
17347TIP3    H273533   2.740   0.374  15.837 -0.3066 -0.2344  4.1005
17348TIP3   OH273534   5.961   1.813   6.001  0.7013  0.2959 -0.4086
17348TIP3    H173535   5.945   1.744   6.066  0.5066  1.3298  0.6903
17348TIP3    H273536   5.873   1.841   5.974  0.7842 -0.4104 -1.4508
17349TIP3   OH273537   5.800   4.954   4.206 -0.2524  0.8248 -0.5087
17349TIP3    H173538   5.878   4.979   4.256 -0.1334 -0.4941 -0.0095
17349TIP3    H273539   5.727   4.964   4.267 -0.5008  2.0264 -0.9657
17350TIP3   OH273540   4.306   3.099  11.902  0.1354 -0.5548  0.5590
17350TIP3    H173541   4.211   3.090  11.889  0.0480  1.5190 -0.7625
17350TIP3    H273542   4.318   3.093  11.997 -1.5814  0.9193  0.9340
17351TIP3   OH273543   6.209   5.699  14.073  0.5623 -0.8687 -0.0249
17351TIP3    H173544   6.162   5.668  13.996  0.1713  0.6801 -0.4494
17351TIP3    H273545   6.223   5.621  14.126 -1.8381 -1.5172 -0.2356
17352TIP3   OH273546   6.527   4.568  13.535  0.5925 -0.6187  0.0460
17352TIP3    H173547   6.564   4.485  13.563  1.2911 -0.2223  0.3092
17352TIP3    H273548   6.586   4.635  13.571 -0.1028  0.0024  0.0629
17353TIP3   OH273549   0.418   2.155  16.042  0.4247 -0.2875 -0.2732
17353TIP3    H173550   0.503   2.199  16.051  0.5860 -0.1251 -2.1853
17353TIP3    H273551   0.354   2.220  16.074  0.7347  1.0902 -2.2936
17354TIP3   OH273552   1.123   1.866   4.913  0.0424 -0.4339 -0.2228
17354TIP3    H173553   1.058   1.829   4.853  1.9150 -2.7249 -0.9764
17354TIP3    H273554   1.132   1.957   4.886 -1.2967 -0.6437 -1.4618
17355TIP3   OH273555   1.019   2.886   6.033  0.1912 -0.1515 -0.3024
17355TIP3    H173556   1.019   2.960   6.094 -0.1915 -0.0985 -0.3658
17355TIP3    H273557   1.044   2.924   5.949  1.9752 -0.4399  0.0738
17356TIP3   OH273558   6.446   1.623  10.460  0.1890 -0.3059 -0.3192
17356TIP3    H173559   6.511   1.683  10.426 -0.6077  0.8642  0.1449
17356TIP3    H273560   6.427   1.564  10.388  0.6188  0.3326 -0.9623
17357TIP3   OH273561   5.327   3.932  11.706 -0.1778  0.3296 -0.0706
17357TIP3    H173562   5.399   3.870  11.716 -0.0664  0.3308 -0.7895
17357TIP3    H273563   5.306   3.930  11.613 -1.6523 -0.2600  0.2385
17358TIP3   OH273564   0.401   1.910   5.259  0.0414 -0.4774 -0.1549
17358TIP3    H173565   0.311   1.901   5.288 -0.0090 -0.5597 -0.3311
17358TIP3    H273566   0.451   1.928   5.339 -0.1871 -0.0157 -0.1157
17359TIP3   OH273567   5.699   0.576  11.324  0.1421 -0.0004  0.3464
17359TIP3    H173568   5.611   0.614  11.313  0.5229  0.7518 -0.1947
17359TIP3    H273569   5.758   0.652  11.321  1.5287 -0.7738 -6.1614
17360TIP3   OH273570   2.995   5.175   2.351 -0.1057  0.0003  0.1108
17360TIP3    H173571   2.972   5.253   2.301 -1.8224 -0.3143  0.3525
17360TIP3    H273572   3.019   5.111   2.285 -1.0699 -0.0024 -0.2567
17361TIP3   OH273573   5.964   4.784   6.399  0.2469 -0.2677 -0.7905
17361TIP3    H173574   5.923   4.870   6.410  0.7307  0.1288 -2.0096
17361TIP3    H273575   5.948   4.760   6.308 -0.7149 -1.9290 -0.2477
17362TIP3   OH273576   0.164   2.087  12.029  0.1369 -0.9223  0.8552
17362TIP3    H173577   0.069   2.088  12.018  0.2281 -0.3665 -0.0300
17362TIP3    H273578   0.182   2.147  12.101 -0.0206  1.1860 -0.7611
17363TIP3   OH273579   4.735   1.069   1.489  0.2701  0.0840 -0.1347
17363TIP3    H173580   4.662   1.039   1.543 -0.2909  1.7274  0.0805
17363TIP3    H273581   4.805   1.088   1.551 -0.3192  1.8148  0.0395
17364TIP3   OH273582   4.712   3.526   0.528  0.3660  0.5225  0.0666
17364TIP3    H173583   4.730   3.560   0.441  0.1157  0.4713 -0.0064
17364TIP3    H273584   4.698   3.432   0.515  0.0641  0.5576  0.1201
17365TIP3   OH273585   4.836   4.431  16.598 -0.0950 -0.1826  0.2574
17365TIP3    H173586   4.816   4.337  16.597 -1.3779  0.0411  1.3992
17365TIP3    H273587   4.804   4.464  16.514 -1.3596 -0.4675  0.6047
17366TIP3   OH273588   5.381   3.212  16.407  0.2242 -0.8595 -0.3225
17366TIP3    H173589   5.409   3.220  16.498  1.4910  0.0015 -0.7452
17366TIP3    H273590   5.447   3.155  16.367  1.1969  0.8094 -1.2380
17367TIP3   OH273591   6.672   0.094  16.480  0.1237  0.2223  0.5113
17367TIP3    H173592   6.592   0.110  16.429  1.2228  0.2588 -1.2806
17367TIP3    H273593   6.672  -0.000  16.496 -0.2719  0.2210  0.5153
17368TIP3   OH273594   4.075   2.566   1.206 -0.0352  0.2935  0.3784
17368TIP3    H173595   4.134   2.629   1.247 -0.9561  0.3494  1.7088
17368TIP3    H273596   4.122   2.483   1.210  0.9035  0.7451 -0.7568
17369TIP3   OH273597   4.993   4.761  13.624 -0.0483  0.2280  0.3925
17369TIP3    H173598   4.941   4.691  13.664  0.3590 -0.0832  0.3802
17369TIP3    H273599   5.011   4.729  13.535  0.6420  0.0818  0.5806
17370TIP3   OH273600   2.592   6.480   1.447  0.0082  0.3325  0.4372
17370TIP3    H173601   2.587   6.393   1.409 -0.4954  0.3504  0.4514
17370TIP3    H273602   2.501   6.510   1.451  0.1561  0.7750  0.6223
17371TIP3   OH273603   1.916   2.075  13.015  0.7981  0.2792 -0.0379
17371TIP3    H173604   1.842   2.032  12.974  1.6453  0.3447 -1.7139
17371TIP3    H273605   1.929   2.155  12.965  0.2473  1.7376  2.0289
17372TIP3   OH273606   5.120   6.797   4.178  0.1213 -0.4765  0.5193
17372TIP3    H173607   5.066   6.827   4.252  1.3394  1.6370  0.6483
17372TIP3    H273608   5.073   6.828   4.101  1.1647  1.6561  0.6410
17373TIP3   OH273609   4.575   4.161  16.710  0.2478 -0.5376 -0.2296
17373TIP3    H173610   4.636   4.102  16.669  0.9545  0.1855 -0.2436
17373TIP3    H273611   4.617   4.186  16.793  0.6804  1.0962 -0.8946
17374TIP3   OH273612   1.315   2.330   5.220 -0.5406 -0.6630  0.0937
17374TIP3    H173613   1.383   2.277   5.178 -0.5602  1.0228 -2.2991
17374TIP3    H273614   1.234   2.302   5.178 -0.6117  0.8134 -0.8381
17375TIP3   OH273615   6.411   5.222  10.966 -0.4758 -0.1517 -0.2332
17375TIP3    H173616   6.377   5.296  11.018 -1.0902 -0.1953 -0.5614
17375TIP3    H273617   6.360   5.225  10.885  0.3465 -0.2002 -0.7610
17376TIP3   OH273618   0.246   5.433  12.680 -0.8270  0.3342  0.3664
17376TIP3    H173619   0.177   5.371  12.700  1.7410 -3.4805 -1.3995
17376TIP3    H273620   0.302   5.432  12.757 -0.1955 -0.5265 -0.0830
17377TIP3   OH273621   0.317   3.523  15.174  0.5282 -0.1709  0.3221
17377TIP3    H173622   0.297   3.520  15.080  0.2199 -1.4801  0.4102
17377TIP3    H273623   0.235   3.552  15.214  0.8288  0.9611  0.1626
17378TIP3   OH273624   4.447   2.939  12.326 -0.0248 -0.5588  0.7142
17378TIP3    H173625   4.385   3.008  12.351  0.1793 -0.3284  0.5921
17378TIP3    H273626   4.437   2.872  12.393 -1.8129 -1.4195 -0.3638
17379TIP3   OH273627   3.748   0.988  12.711 -0.3244 -0.4482 -0.5133
17379TIP3    H173628   3.776   1.080  12.716 -0.4302 -0.4130 -0.5844
17379TIP3    H273629   3.756   0.957  12.801 -1.1376 -0.1215 -0.3183
17380TIP3   OH273630   4.291   3.987   5.442  0.0512 -0.4159 -0.6320
17380TIP3    H173631   4.238   3.915   5.476 -2.9351  1.7578 -0.2560
17380TIP3    H273632   4.275   3.987   5.347  0.6781 -0.6759 -0.7463
17381TIP3   OH273633   0.796   3.598  11.283  0.0970 -0.5356 -0.0963
17381TIP3    H173634   0.858   3.662  11.319 -1.0813 -0.2443  1.5348
17381TIP3    H273635   0.846   3.552  11.216  1.5956  0.7316  0.0821
17382TIP3   OH273636   5.487   5.727   3.101 -0.1568  0.5405  0.0667
17382TIP3    H173637   5.507   5.634   3.086 -1.1308  0.3318 -0.0076
17382TIP3    H273638   5.565   5.773   3.071  0.4465 -0.2663  0.3357
17383TIP3   OH273639   5.799   0.880  12.787 -0.1523  0.2853 -0.2631
17383TIP3    H173640   5.817   0.886  12.881 -1.5430  0.4591  0.0229
17383TIP3    H273641   5.877   0.840  12.750  0.9588  1.4203  0.7708
17384TIP3   OH273642   0.359   5.907   4.505  0.1503 -0.5497 -0.8644
17384TIP3    H173643   0.372   5.978   4.443 -0.9969 -0.0886 -0.6090
17384TIP3    H273644   0.268   5.917   4.535  1.2580  0.6458  2.5948
17385TIP3   OH273645   6.618   1.239   1.048  0.0922 -0.7592 -0.6673
17385TIP3    H173646   6.635   1.234   0.954 -1.1800  0.5264 -0.9942
17385TIP3    H273647   6.524   1.227   1.056 -0.1301  1.1740  0.2153
17386TIP3   OH273648   6.838   5.519  16.322 -0.3347 -0.1454 -0.2723
17386TIP3    H173649   6.773   5.589  16.320 -1.7804 -1.3872  0.5857
17386TIP3    H273650   6.875   5.523  16.410 -2.1146 -1.8478  0.6260
17387TIP3   OH273651   0.746   1.401   1.457 -0.4728  0.0749 -0.0405
17387TIP3    H173652   0.688   1.374   1.386 -1.6336 -4.4123  2.2749
17387TIP3    H273653   0.834   1.387   1.422 -1.0105 -1.8432 -0.7617
17388TIP3   OH273654   0.561   5.168  16.737  0.2771  0.7956 -0.4573
17388TIP3    H173655   0.523   5.171  16.649 -1.4809 -0.5838  0.1897
17388TIP3    H273656   0.598   5.080  16.745 -1.2032  0.2233  0.7461
17389TIP3   OH273657   4.821   3.555   2.899  0.1870 -0.4665 -0.5917
17389TIP3    H173658   4.775   3.632   2.866  1.6361  0.2760 -0.9933
17389TIP3    H273659   4.913   3.582   2.901  0.7013 -2.1176 -0.5304
17390TIP3   OH273660   4.875   5.806   3.359 -0.3761  0.1836  0.0651
17390TIP3    H173661   4.837   5.737   3.305  0.5469 -1.5781  1.5600
17390TIP3    H273662   4.967   5.811   3.330 -0.7961  1.9602 -1.1271
17391TIP3   OH273663   1.788   0.948   1.382  0.0418  0.3141 -0.2635
17391TIP3    H173664   1.855   0.883   1.403 -0.0650  0.6025  1.0610
17391TIP3    H273665   1.809   1.023   1.437 -0.5270  0.9679 -0.9105
17392TIP3   OH273666   6.797   2.337  14.967 -0.2987 -0.3312  0.4380
17392TIP3    H173667   6.716   2.286  14.961 -0.0311 -0.6558 -0.6844
17392TIP3    H273668   6.784   2.395  15.042 -1.7690 -0.0368 -0.0228
17393TIP3   OH273669   2.315   3.582   3.529 -0.0485  0.4583  0.5053
17393TIP3    H173670   2.355   3.510   3.577  1.9272  0.4017 -1.1088
17393TIP3    H273671   2.242   3.541   3.481  1.1806 -0.5596 -0.5607
17394TIP3   OH273672   1.868   6.235   5.569  0.3037  0.4234  0.2280
17394TIP3    H173673   1.787   6.253   5.617 -0.5505 -2.1446 -0.0869
17394TIP3    H273674   1.909   6.163   5.618  2.2310  1.4056  0.1480
17395TIP3   OH273675   2.614   2.198   3.740 -0.1299  0.8380  0.0067
17395TIP3    H173676   2.704   2.223   3.760  1.2259 -3.9434  1.3152
17395TIP3    H273677   2.568   2.204   3.824 -0.6891  2.0027 -0.3743
17396TIP3   OH273678   6.183   1.700  10.326  0.3535  0.1096  0.5364
17396TIP3    H173679   6.105   1.645  10.328  0.8429 -0.6712 -0.6192
17396TIP3    H273680   6.241   1.662  10.392  0.5180 -0.5136  0.0422
17397TIP3   OH273681   4.909   0.651   4.751 -0.2980  0.4158 -0.6673
17397TIP3    H173682   4.842   0.719   4.744 -1.0638 -0.2916 -0.2992
17397TIP3    H273683   4.904   0.605   4.667  0.2643  0.8350 -0.9414
17398TIP3   OH273684   5.562   2.523   1.658 -0.2497  0.2779  0.4745
17398TIP3    H173685   5.545   2.473   1.578  0.8779  2.6396 -1.3757
17398TIP3    H273686   5.484   2.577   1.670  0.5042  1.6389 -0.4675
17399TIP3   OH273687   2.822   0.322  13.153 -0.2243  0.2181 -0.1908
17399TIP3    H173688   2.854   0.352  13.238 -1.8076 -0.0350  0.5193
17399TIP3    H273689   2.728   0.338  13.155 -0.1476  1.2684 -2.3563
17400TIP3   OH273690   6.290   5.513   3.714 -0.8362  0.2777 -0.5957
17400TIP3    H173691   6.216   5.554   3.669  1.9133  2.4259 -3.6652
17400TIP3    H273692   6.338   5.587   3.752  0.9427 -0.7120 -0.7928
17401TIP3   OH273693   2.114   5.522   0.271  0.4031 -0.7567 -0.1200
17401TIP3    H173694   2.200   5.560   0.257  0.3937 -1.0752 -1.1875
17401TIP3    H273695   2.098   5.470   0.192 -0.4994 -1.2081  0.3393
17402TIP3   OH273696   3.683   4.593  16.127  0.7427  0.7735  0.1691
17402TIP3    H173697   3.592   4.612  16.148  1.1107 -0.4107  3.5180
17402TIP3    H273698   3.733   4.663  16.169  1.4420  0.6661 -0.4621
17403TIP3   OH273699   6.428   5.930   4.353 -0.3162  0.0449 -0.0273
17403TIP3    H173700   6.506   5.882   4.324  0.3092  0.9807  0.0573
17403TIP3    H273701   6.438   6.016   4.313 -0.3172  0.8018  1.5397
17404TIP3   OH273702   5.602   1.158   5.422 -0.2625 -0.5720 -0.7098
17404TIP3    H173703   5.585   1.239   5.374 -0.1396 -0.6962 -0.9658
17404TIP3    H273704   5.642   1.187   5.504  0.7456 -0.4150 -1.2339
17405TIP3   OH273705   1.851   0.578   6.109 -0.4284  0.4034  0.2926
17405TIP3    H173706   1.893   0.500   6.145  1.5428  0.6890 -1.1764
17405TIP3    H273707   1.915   0.648   6.125 -2.0222  1.6937  1.3200
17406TIP3   OH273708   6.331   1.450  16.963  0.2977 -0.0624 -0.7745
17406TIP3    H173709   6.388   1.423  17.035 -0.4559 -0.2784 -0.2449
17406TIP3    H273710   6.245   1.417  16.987 -0.3841  1.6082 -0.7693
17407TIP3   OH273711   3.182   3.930   6.418 -0.5507 -0.1513 -0.3168
17407TIP3    H173712   3.143   3.886   6.342  0.2455 -0.0600 -0.7900
17407TIP3    H273713   3.114   3.989   6.449 -0.2592  1.2710 -2.1546
17408TIP3   OH273714   2.545   3.553   4.417  0.0427 -0.5521 -0.0754
17408TIP3    H173715   2.535   3.526   4.326 -2.1540 -0.0895 -0.0116
17408TIP3    H273716   2.506   3.640   4.422  0.9451 -0.1862  1.1371
17409TIP3   OH273717   4.607   1.763  15.100 -0.3338 -0.6889  0.6771
17409TIP3    H173718   4.661   1.765  15.021 -1.4795  0.2976 -0.1223
17409TIP3    H273719   4.633   1.683  15.146  3.0808  0.5940  1.2868
17410TIP3   OH273720   1.678   6.276   6.807 -0.3799  0.2502  0.3441
17410TIP3    H173721   1.678   6.370   6.789 -0.9590  0.2116  0.1168
17410TIP3    H273722   1.601   6.243   6.760  0.3903 -0.4969 -0.4285
17411TIP3   OH273723   5.787   3.081  17.090  0.2727 -0.0355 -0.2639
17411TIP3    H173724   5.749   3.013  17.034 -0.0116  0.2145 -0.3772
17411TIP3    H273725   5.870   3.103  17.048 -0.4287  0.9194 -1.1958
17412TIP3   OH273726   6.523   2.515  14.419  0.0944  0.3273  0.0397
17412TIP3    H173727   6.476   2.599  14.413 -1.9134 -0.6926  0.6299
17412TIP3    H273728   6.475   2.457  14.360 -0.0701 -1.0484  1.4683
17413TIP3   OH273729   1.869   6.695   0.099  0.2722 -0.6856 -0.8013
17413TIP3    H173730   1.808   6.762   0.068  1.7682  0.3081 -1.7210
17413TIP3    H273731   1.890   6.722   0.189  0.2266 -0.4089 -0.8736
17414TIP3   OH273732   0.731   1.943  15.903  0.2783  0.1570  0.3124
17414TIP3    H173733   0.747   1.882  15.831 -0.9464  0.3115 -0.1154
17414TIP3    H273734   0.664   1.901  15.956  0.1522  0.6792  0.5780
17415TIP3   OH273735   0.225   1.273   2.738 -0.2864  0.0711  0.6244
17415TIP3    H173736   0.197   1.282   2.829 -2.4864 -0.9690  0.1171
17415TIP3    H273737   0.171   1.337   2.691 -0.7209 -0.8763 -0.1993
17416TIP3   OH273738   6.705   3.152   3.053 -0.5716  0.1401 -0.5236
17416TIP3    H173739   6.651   3.091   3.104 -0.3839  0.3193 -0.1071
17416TIP3    H273740   6.751   3.097   2.990  0.5840 -0.3291  0.6953
17417TIP3   OH273741   0.068   5.565   0.927 -0.1076 -0.3205 -0.0807
17417TIP3    H173742   0.102   5.617   0.999 -0.3464 -1.2833  0.7479
17417TIP3    H273743   0.145   5.530   0.883  0.0213 -1.0386  0.6988
17418TIP3   OH273744   2.178   5.066   1.066  0.7900  0.2912 -0.0717
17418TIP3    H173745   2.252   5.049   1.007  1.3592  0.9585  0.4242
17418TIP3    H273746   2.126   5.132   1.021  0.0204 -0.7894 -0.8038
17419TIP3   OH273747   0.042   6.306  14.905  0.1268  0.4550  0.5119
17419TIP3    H173748  -0.013   6.307  14.983 -0.4881 -0.1896  0.1059
17419TIP3    H273749   0.116   6.363  14.926  0.7861 -0.9165  2.1451
17420TIP3   OH273750   2.554   3.300  14.365  0.0692 -0.0613 -1.0527
17420TIP3    H173751   2.510   3.384  14.382  1.7856  0.9302 -1.3202
17420TIP3    H273752   2.625   3.322  14.305  1.8871 -1.3560  0.5399
17421TIP3   OH273753   6.220   6.379  13.880 -0.3087 -0.4382 -0.3673
17421TIP3    H173754   6.250   6.299  13.923  1.0600 -0.0872 -0.6108
17421TIP3    H273755   6.247   6.368  13.788  0.7115  0.6661 -0.2213
17422TIP3   OH273756   4.441   2.086  13.038 -0.1483 -0.1011  0.6345
17422TIP3    H173757   4.468   2.176  13.056  2.9690 -0.8509  0.3299
17422TIP3    H273758   4.441   2.043  13.124 -0.1773 -0.1388  0.6156
17423TIP3   OH273759   5.093   0.931  17.021  0.1722 -0.0677 -0.2419
17423TIP3    H173760   5.038   0.903  16.948 -0.7257  0.1179  0.3461
17423TIP3    H273761   5.076   1.025  17.029  0.3520 -0.0624  0.1196
17424TIP3   OH273762   2.931   2.982   1.194  0.0731 -0.7007  0.5704
17424TIP3    H173763   2.988   2.963   1.118  0.4635 -0.4923  0.8072
17424TIP3    H273764   2.980   2.947   1.269  0.4890  0.6147  0.9319
17425TIP3   OH273765   5.399   2.960  11.517 -0.3101  0.0078 -0.2398
17425TIP3    H173766   5.384   3.053  11.533 -1.9154 -0.4791  1.3884
17425TIP3    H273767   5.316   2.929  11.479  0.3606 -0.6880 -1.1717
17426TIP3   OH273768   4.494   5.108  14.885 -0.2202  0.1791  0.0278
17426TIP3    H173769   4.552   5.184  14.896  0.8374 -0.7314  1.0704
17426TIP3    H273770   4.511   5.055  14.963 -1.0487 -1.0496 -0.6165
17427TIP3   OH273771   0.116   3.091  16.158  0.3725  0.5158 -0.0674
17427TIP3    H173772   0.128   3.171  16.108  2.1262  0.4788  0.2181
17427TIP3    H273773   0.125   3.021  16.094 -1.7892  0.5185 -0.4260
17428TIP3   OH273774   1.522   4.469   6.105  0.0062  0.8647 -0.0532
17428TIP3    H173775   1.584   4.401   6.077 -1.9198 -0.9062 -0.2734
17428TIP3    H273776   1.551   4.493   6.193  1.3234  0.4784 -0.3635
17429TIP3   OH273777   5.877   0.986  13.034 -0.7317 -0.2216  0.4517
17429TIP3    H173778   5.834   1.052  13.088 -1.0438  1.7450 -1.9680
17429TIP3    H273779   5.971   1.005  13.044 -0.8479  1.5640 -1.1922
17430TIP3   OH273780   5.495   6.618  13.809 -0.3064 -0.2619 -0.4396
17430TIP3    H173781   5.469   6.682  13.742  1.0799  2.3143  1.2933
17430TIP3    H273782   5.416   6.606  13.862 -1.0164 -1.2575 -1.6736
17431TIP3   OH273783   3.472   1.214  13.894 -0.6494  0.1608 -0.2890
17431TIP3    H173784   3.515   1.253  13.969 -1.8210  0.1321  0.4264
17431TIP3    H273785   3.461   1.286  13.832 -1.0121  0.5289  0.1935
17432TIP3   OH273786   5.115   3.061  10.489  0.2380 -0.4904  0.0257
17432TIP3    H173787   5.190   3.114  10.517 -0.6225  0.2173  1.1231
17432TIP3    H273788   5.040   3.120  10.498 -0.5075 -1.3143 -0.6281
17433TIP3   OH273789   2.507   2.382  15.047 -0.7318  0.0037 -0.6331
17433TIP3    H173790   2.511   2.473  15.078  0.5975 -0.0822 -0.4728
17433TIP3    H273791   2.597   2.362  15.022 -0.9931 -1.3146 -0.5731
17434TIP3   OH273792   1.266   5.144  13.284  0.4824  0.1146 -0.4899
17434TIP3    H173793   1.214   5.096  13.219  1.3812  0.4443 -1.4745
17434TIP3    H273794   1.259   5.091  13.364 -1.6095  0.3035 -0.4747
17435TIP3   OH273795   4.264   2.791  12.806  0.4244 -0.5079  0.0419
17435TIP3    H173796   4.223   2.796  12.720 -0.0431 -0.4045  0.2668
17435TIP3    H273797   4.213   2.851  12.860  1.7814  0.7281 -0.0246
17436TIP3   OH273798   5.851   3.561  14.594 -0.0917 -0.1306  0.4730
17436TIP3    H173799   5.808   3.570  14.509 -0.4542 -0.9906  0.5550
17436TIP3    H273800   5.884   3.649  14.614 -0.3296  0.1607 -0.3774
17437TIP3   OH273801   2.154   6.002   2.876 -0.0914 -0.3396  0.1906
17437TIP3    H173802   2.159   6.091   2.842  3.5755 -0.7885 -0.8467
17437TIP3    H273803   2.185   6.008   2.966 -2.5494 -0.2690  1.1139
17438TIP3   OH273804   1.940   6.173   3.246  0.2372  0.6766  0.0817
17438TIP3    H173805   1.926   6.267   3.248  1.2192  0.8288  0.0333
17438TIP3    H273806   2.035   6.162   3.249  0.1600 -0.2908 -0.4831
17439TIP3   OH273807   6.142   5.202  16.477 -0.2977 -0.1246  0.0030
17439TIP3    H173808   6.091   5.147  16.418  1.7307  1.1132 -3.1235
17439TIP3    H273809   6.162   5.280  16.426  1.6623  1.0315  2.3417
17440TIP3   OH273810   4.548   4.966  12.082 -0.1046 -0.2921  0.2146
17440TIP3    H173811   4.466   4.998  12.044  0.4003  0.6377 -0.1413
17440TIP3    H273812   4.615   4.993  12.020  0.4249 -1.5743  0.2058
17441TIP3   OH273813   5.595   4.486   2.858 -0.4608  0.5622 -0.1840
17441TIP3    H173814   5.618   4.401   2.896 -1.3251  0.8928  1.1335
17441TIP3    H273815   5.644   4.489   2.776 -1.7120 -1.9244 -1.1197
17442TIP3   OH273816   6.557   2.919   3.144 -0.2827 -0.9827  0.4783
17442TIP3    H173817   6.492   2.932   3.075 -0.2499 -0.2237  0.5817
17442TIP3    H273818   6.518   2.854   3.202 -1.2238 -0.0875  0.8712
17443TIP3   OH273819   2.500   1.620   1.199  0.1681 -0.2231  0.1051
17443TIP3    H173820   2.514   1.714   1.190  1.7116 -0.3299  0.9355
17443TIP3    H273821   2.584   1.587   1.232 -1.1113 -1.5258  2.2620
17444TIP3   OH273822   6.149   0.329  14.356 -0.0222 -0.4785  0.4442
17444TIP3    H173823   6.243   0.312  14.354  0.2928  1.0260  0.9026
17444TIP3    H273824   6.123   0.311  14.446 -0.6341 -2.8572 -0.1197
17445TIP3   OH273825   5.870   5.861  13.893  0.3558 -0.2550  0.1998
17445TIP3    H173826   5.838   5.817  13.971 -0.6252 -0.6610 -0.4216
17445TIP3    H273827   5.813   5.937  13.882 -1.4562 -1.7795 -1.7424
17446TIP3   OH273828   0.699   5.732  14.968 -0.4259 -0.3911  0.1057
17446TIP3    H173829   0.723   5.813  14.924 -2.1452  0.6194  0.9518
17446TIP3    H273830   0.756   5.729  15.045 -0.3168 -0.0180  0.0409
17447TIP3   OH273831   2.650   4.290   5.340  0.3081 -0.0153  0.6887
17447TIP3    H173832   2.665   4.273   5.432  2.1566 -2.7427 -0.0123
17447TIP3    H273833   2.556   4.273   5.327 -0.1590  1.2630  2.1660
17448TIP3   OH273834   1.026   1.270   3.232 -0.8703 -0.0562  0.3002
17448TIP3    H173835   0.959   1.203   3.247 -2.5864  1.6261  0.4806
17448TIP3    H273836   1.085   1.262   3.307 -1.1645 -1.2190  0.4288
17449TIP3   OH273837   0.838   4.613   0.494  0.7083  0.0277  0.0165
17449TIP3    H173838   0.757   4.661   0.511 -0.0727 -0.7470 -1.3613
17449TIP3    H273839   0.855   4.565   0.575 -0.1236  0.3360  0.3791
17450TIP3   OH273840   4.318   2.293  11.894 -0.3635  0.3367  0.2818
17450TIP3    H173841   4.398   2.345  11.899  0.4448 -0.9593  1.5315
17450TIP3    H273842   4.290   2.299  11.803  2.1202 -0.6053 -0.6150
17451TIP3   OH273843   5.202   4.136  16.310  0.0437 -0.3569  0.2149
17451TIP3    H173844   5.216   4.105  16.221  0.7906 -1.1229  0.5822
17451TIP3    H273845   5.278   4.190  16.330 -0.2284 -0.0065  0.3120
17452TIP3   OH273846   1.478   6.413  10.912  0.4086 -0.1512  0.2144
17452TIP3    H173847   1.480   6.496  10.864  0.8722  0.1640  0.7513
17452TIP3    H273848   1.557   6.367  10.883 -0.0839 -0.6069 -0.4182
17453TIP3   OH273849   1.561   5.267   0.575 -0.2776 -0.2516 -0.4890
17453TIP3    H173850   1.573   5.224   0.660  1.4282  1.3146  0.1289
17453TIP3    H273851   1.601   5.208   0.512 -0.6198 -0.9348 -0.0882
17454TIP3   OH273852   2.080   3.976   2.221  0.0442  0.6715  0.1442
17454TIP3    H173853   2.130   3.940   2.294  0.9329  0.3929 -0.5906
17454TIP3    H273854   2.018   3.907   2.198  0.3184  0.4367  0.1040
17455TIP3   OH273855   0.223   6.554   6.532  0.0385 -0.5266  0.0367
17455TIP3    H173856   0.266   6.498   6.596  0.2112  1.1932  1.5226
17455TIP3    H273857   0.295   6.599   6.488 -0.1237  0.9223  1.1737
17456TIP3   OH273858   4.029   5.887  12.744 -0.0906  0.1690 -0.0683
17456TIP3    H173859   4.022   5.946  12.819 -0.5697  0.7474 -0.5445
17456TIP3    H273860   4.034   5.800  12.782 -1.5341  0.3575  0.6238
17457TIP3   OH273861   5.430   2.751   0.067 -0.0090  0.0402 -0.2086
17457TIP3    H173862   5.441   2.801   0.148 -0.9450 -1.4091  0.8726
17457TIP3    H273863   5.498   2.685   0.070 -0.9581 -0.9506  0.1659
17458TIP3   OH273864   3.126   3.969   5.555 -0.1314 -0.2655 -0.1756
17458TIP3    H173865   3.063   3.899   5.569  0.9100 -1.7102 -2.1940
17458TIP3    H273866   3.209   3.933   5.585  0.1087  0.8903  0.6222
17459TIP3   OH273867   2.697   6.496   6.035 -0.0624 -0.0178  0.0623
17459TIP3    H173868   2.711   6.523   6.126  0.2193  1.9329 -0.5111
17459TIP3    H273869   2.607   6.521   6.015  0.2956  0.8328 -0.5733
17460TIP3   OH273870   0.729   2.583  16.131  0.1097  0.2008  0.0154
17460TIP3    H173871   0.677   2.663  16.135  0.5715  0.4911  0.3882
17460TIP3    H273872   0.666   2.513  16.114 -0.4169  0.5285  0.5900
17461TIP3   OH273873   2.084   2.430  17.010  0.5920  0.5629  0.6862
17461TIP3    H173874   2.069   2.341  16.978 -0.0456  0.3060  1.6621
17461TIP3    H273875   2.149   2.419  17.079  2.7886  1.2429 -1.1502
17462TIP3   OH273876   4.091   6.764  16.234  0.5777  0.0995  0.6151
17462TIP3    H173877   4.165   6.813  16.270  0.7628  1.5797 -1.6087
17462TIP3    H273878   4.128   6.714  16.162 -0.1655 -1.1699  1.0662
17463TIP3   OH273879   2.863   6.587   3.895  0.1145  0.3553  0.3072
17463TIP3    H173880   2.944   6.536   3.898 -0.6904 -1.1492 -1.6559
17463TIP3    H273881   2.888   6.673   3.930  1.9347 -0.7958  2.0608
17464TIP3   OH273882   2.899   0.530  11.586  0.0144  0.2613 -0.2209
17464TIP3    H173883   2.989   0.496  11.588  0.1626  0.6633  0.2395
17464TIP3    H273884   2.850   0.470  11.642  0.6942  1.8894  2.3127
17465TIP3   OH273885   0.521   6.195   4.791  0.1433  0.4397 -0.2332
17465TIP3    H173886   0.472   6.115   4.806 -1.0772  1.1095 -0.5485
17465TIP3    H273887   0.528   6.236   4.877  1.0562 -0.1383 -0.0126
17466TIP3   OH273888   5.167   5.365   6.396 -0.1092 -0.0038 -0.1290
17466TIP3    H173889   5.242   5.403   6.442  0.7358  0.1538 -1.5773
17466TIP3    H273890   5.198   5.279   6.367 -0.3348  0.2347 -1.1008
17467TIP3   OH273891   6.595   3.479  11.615  0.2270  0.4571 -0.5989
17467TIP3    H173892   6.575   3.571  11.627  1.2205  0.6679 -0.4633
17467TIP3    H273893   6.543   3.433  11.681 -0.2082  0.9253 -0.6164
17468TIP3   OH273894   4.153   6.028  16.712  0.0952 -0.7441  0.1127
17468TIP3    H173895   4.174   6.076  16.631 -2.4316  0.6334  0.1717
17468TIP3    H273896   4.075   5.977  16.689  0.4551 -1.7912  1.1736
17469TIP3   OH273897   6.339   3.352   2.153  0.3202  0.4001 -0.7137
17469TIP3    H173898   6.287   3.420   2.197  0.9027 -1.1527  2.7345
17469TIP3    H273899   6.429   3.367   2.184  1.0321 -0.0794 -2.4424
17470TIP3   OH273900   0.786   2.712   2.038 -0.0842  0.3559 -0.0388
17470TIP3    H173901   0.812   2.624   2.064  0.0198  0.5690  0.5999
17470TIP3    H273902   0.714   2.699   1.976  0.5278 -0.1958 -0.6503
17471TIP3   OH273903   1.036   6.780  11.379 -0.2675 -0.2559 -0.3579
17471TIP3    H173904   0.993   6.855  11.340 -0.1072 -0.6227 -1.2620
17471TIP3    H273905   0.976   6.751  11.448 -0.7572  0.1343 -0.6136
17472TIP3   OH273906   6.195   6.598   4.267  0.1929  0.2097 -0.5697
17472TIP3    H173907   6.104   6.579   4.289  0.4862 -0.9279 -0.3093
17472TIP3    H273908   6.219   6.669   4.326 -0.4848  0.4460 -0.5660
17473TIP3   OH273909   2.945   0.469  12.756 -0.1014 -0.0472  0.3258
17473TIP3    H173910   3.001   0.467  12.833  0.2920  0.9945  0.0817
17473TIP3    H273911   2.874   0.407  12.776  0.0817  0.0908  1.4488
17474TIP3   OH273912   1.899   6.255   2.252  0.2740 -0.3041  0.2147
17474TIP3    H173913   1.805   6.235   2.258  0.2960 -0.9121 -1.0530
17474TIP3    H273914   1.908   6.305   2.171  1.2799 -1.9895 -0.7776
17475TIP3   OH273915   1.700   3.658  13.764 -0.2228 -0.3234 -0.1122
17475TIP3    H173916   1.628   3.627  13.709 -0.1051 -0.9712  0.0943
17475TIP3    H273917   1.663   3.662  13.852  0.0429 -0.8476  0.0279
17476TIP3   OH273918   2.725   1.937   4.085  0.0911 -0.3416 -0.0847
17476TIP3    H173919   2.731   1.902   3.996  0.5347 -1.1744  0.2607
17476TIP3    H273920   2.632   1.937   4.106 -0.0725  0.4161 -0.7544
17477TIP3   OH273921   2.307   0.796   3.257 -0.2132  0.1453 -0.5309
17477TIP3    H173922   2.379   0.811   3.196  0.1363 -2.6215 -0.9304
17477TIP3    H273923   2.342   0.823   3.342  1.2876 -0.9858 -0.7445
17478TIP3   OH273924   3.480   3.823  13.104  0.7353 -0.5327  0.7589
17478TIP3    H173925   3.429   3.884  13.157 -0.6724 -1.7546  0.8535
17478TIP3    H273926   3.449   3.736  13.130  2.2766 -1.2837  0.1994
17479TIP3   OH273927   5.416   3.586   0.955  0.4952  0.7273 -0.0012
17479TIP3    H173928   5.416   3.618   1.045 -2.2239  0.3245  0.2260
17479TIP3    H273929   5.386   3.660   0.902  0.9931  0.6262 -0.4393
17480TIP3   OH273930   2.464   4.171  16.645 -0.3784  0.1859  0.0072
17480TIP3    H173931   2.425   4.173  16.558 -1.1365  1.9707  0.3511
17480TIP3    H273932   2.497   4.260  16.659 -2.5610  0.7280  2.5110
17481TIP3   OH273933   3.291   5.652   5.289 -0.0743  0.1704  0.4516
17481TIP3    H173934   3.335   5.660   5.205  0.7955 -1.6422  0.6911
17481TIP3    H273935   3.311   5.735   5.334  0.7166  0.5386 -0.5295
17482TIP3   OH273936   5.218   6.434   6.157 -0.1735  0.4621 -0.5602
17482TIP3    H173937   5.192   6.523   6.178  0.6054  0.6272 -0.2790
17482TIP3    H273938   5.293   6.416   6.213  1.1190  0.4324 -2.2188
17483TIP3   OH273939   5.841   5.674  16.337 -0.1891 -0.4700  0.1176
17483TIP3    H173940   5.754   5.707  16.359 -0.1781 -0.6390  0.4154
17483TIP3    H273941   5.833   5.579  16.343 -0.3027 -0.5409 -1.0514
17484TIP3   OH273942   2.277   1.693   2.926  0.0046 -0.3646 -0.2037
17484TIP3    H173943   2.228   1.743   2.861 -0.8802 -0.6253  0.2424
17484TIP3    H273944   2.355   1.663   2.880  0.2129  0.8283 -0.6806
17485TIP3   OH273945   3.082   4.221  14.131 -0.0198 -0.1109 -0.2707
17485TIP3    H173946   3.080   4.125  14.136 -2.6714 -0.0805  0.8274
17485TIP3    H273947   3.027   4.243  14.056 -2.3040  0.5528  1.5089
17486TIP3   OH273948   6.008   3.484  15.996  0.3648  0.9169 -0.4183
17486TIP3    H173949   5.955   3.475  16.075  2.2777  0.4558  0.8691
17486TIP3    H273950   6.028   3.577  15.991  0.6843  0.8719 -0.0411
17487TIP3   OH273951   5.347   6.550   5.199  0.2903 -0.0449 -0.1872
17487TIP3    H173952   5.377   6.576   5.287  0.0377  2.5630 -0.8115
17487TIP3    H273953   5.282   6.615   5.175 -0.7259 -1.5595 -1.7702
17488TIP3   OH273954   5.335   3.826  12.750  0.1668  0.1944  0.4833
17488TIP3    H173955   5.302   3.739  12.770  0.1217 -0.0809 -0.7085
17488TIP3    H273956   5.426   3.825  12.780 -0.0092 -0.0587  1.0127
17489TIP3   OH273957   1.292   5.458   1.527  0.0727  0.5344 -0.9156
17489TIP3    H173958   1.273   5.452   1.433 -1.7861 -0.7604 -0.5139
17489TIP3    H273959   1.316   5.369   1.553  0.9716  0.9640 -0.2288
17490TIP3   OH273960   4.746   2.194  16.615 -0.3007  0.1738 -0.0678
17490TIP3    H173961   4.671   2.176  16.558 -1.7630  1.2268  1.4443
17490TIP3    H273962   4.815   2.136  16.582 -1.8522 -1.0767 -1.3064
17491TIP3   OH273963   4.575   4.465   2.010 -0.4297 -0.2094  0.1585
17491TIP3    H173964   4.644   4.426   2.063 -0.2544 -1.0192 -0.6390
17491TIP3    H273965   4.498   4.411   2.027 -0.5957  0.0542  0.2481
17492TIP3   OH273966   0.231   3.299   4.419 -0.0064  0.8148  0.0307
17492TIP3    H173967   0.309   3.243   4.422  0.9046  2.0192 -0.6163
17492TIP3    H273968   0.227   3.338   4.506  0.5672  1.3411 -0.1737
17493TIP3   OH273969   6.623   2.314  12.230  0.2479 -1.1241  0.9574
17493TIP3    H173970   6.573   2.391  12.257 -1.9448 -2.3019  0.5230
17493TIP3    H273971   6.596   2.299  12.139  3.7253 -0.1095 -0.3923
17494TIP3   OH273972   4.848   6.379   6.637 -0.0492  0.3251 -0.5224
17494TIP3    H173973   4.837   6.451   6.576  1.7749  0.6408 -0.5093
17494TIP3    H273974   4.884   6.419   6.716 -0.7915 -0.3376  0.1807
17495TIP3   OH273975   0.965   3.095   6.245 -0.0452 -0.0550 -0.4244
17495TIP3    H173976   1.000   3.122   6.330  1.0540  1.2051 -1.2345
17495TIP3    H273977   1.004   3.156   6.183 -2.1088  0.0910 -1.6539
17496TIP3   OH273978   4.741   2.184   6.667 -0.6130  0.4345  0.0298
17496TIP3    H173979   4.823   2.182   6.618  0.2557  0.9962  1.4030
17496TIP3    H273980   4.678   2.222   6.606  0.0031 -0.5088 -1.2298
17497TIP3   OH273981   3.611   5.631  15.899  0.1435 -0.2596 -0.3158
17497TIP3    H173982   3.706   5.630  15.893  0.3125 -2.3533  1.6207
17497TIP3    H273983   3.582   5.589  15.818  0.8588  0.1458 -0.7950
17498TIP3   OH273984   4.582   5.202  16.306  0.5488  0.5672  0.4749
17498TIP3    H173985   4.525   5.197  16.229  2.0678  0.5406 -0.6752
17498TIP3    H273986   4.588   5.296  16.325  1.3400  0.6906 -0.3460
17499TIP3   OH273987   6.417   2.475  16.265  0.3832  0.0334 -0.4753
17499TIP3    H173988   6.402   2.556  16.216  0.3876  0.3829  0.0951
17499TIP3    H273989   6.330   2.439  16.280  0.2975  0.5164  0.2396
17500TIP3   OH273990   5.379   0.539  11.981  0.0920  0.2718 -0.2041
17500TIP3    H173991   5.426   0.585  11.912 -0.4728  1.5734  0.2471
17500TIP3    H273992   5.420   0.452  11.984  2.2828  1.2284 -0.0285
17501TIP3   OH273993   5.786   3.174  12.970 -0.1108 -0.7763  0.1736
17501TIP3    H173994   5.747   3.261  12.984 -0.4172 -1.1552  1.8987
17501TIP3    H273995   5.715   3.123  12.931  0.2582 -0.1323 -1.4551
17502TIP3   OH273996   0.315   4.676  13.164  0.7254 -0.5150  0.0189
17502TIP3    H173997   0.235   4.722  13.139  1.2392  0.0012 -0.7343
17502TIP3    H273998   0.359   4.659  13.081  1.3127 -0.9513  0.4124
17503TIP3   OH273999   3.331   0.460  15.256 -0.0679  0.7992 -0.4539
17503TIP3    H174000   3.264   0.401  15.293  0.3636  0.5261 -0.0981
17503TIP3    H274001   3.294   0.547  15.266 -0.1396  0.6914  0.2402
17504TIP3   OH274002   2.749   1.113   5.111 -0.7251  0.3094  0.1888
17504TIP3    H174003   2.660   1.140   5.088 -0.4776  0.8149 -0.1801
17504TIP3    H274004   2.769   1.041   5.051 -0.2608  1.3090 -0.9103
17505TIP3   OH274005   3.783   1.085   4.330 -0.0757  0.3768 -0.7097
17505TIP3    H174006   3.727   1.102   4.255  0.4436  1.3498 -0.8892
17505TIP3    H274007   3.872   1.105   4.299  0.1781  0.4741  0.0646
17506TIP3   OH274008   3.704   1.308  13.688 -0.5161 -1.0000 -0.1721
17506TIP3    H174009   3.716   1.374  13.621 -0.8262 -0.6125  0.1475
17506TIP3    H274010   3.791   1.268  13.698  0.1846  0.6586  0.9711
17507TIP3   OH274011   0.515   4.504   0.811  0.4518 -0.1852 -0.0824
17507TIP3    H174012   0.530   4.526   0.719  1.4685  0.3889  0.2020
17507TIP3    H274013   0.530   4.410   0.817 -0.2150 -0.3316 -0.6061
17508TIP3   OH274014   1.460   2.702   2.031  0.0816 -0.5027 -0.0888
17508TIP3    H174015   1.399   2.775   2.046 -0.3486 -0.4831 -1.7641
17508TIP3    H274016   1.404   2.628   2.011  0.5466 -0.3434 -2.2770
17509TIP3   OH274017   1.355   6.560   0.463  0.3213 -0.6975 -0.1562
17509TIP3    H174018   1.332   6.551   0.371 -0.2166 -0.5777 -0.0364
17509TIP3    H274019   1.281   6.523   0.511 -0.6982  1.6566  0.2739
17510TIP3   OH274020   2.522   3.572   1.702  0.1256  0.5175 -0.2872
17510TIP3    H174021   2.443   3.606   1.745  0.0677  1.1129 -0.8548
17510TIP3    H274022   2.576   3.649   1.687  1.7153 -0.1062  1.8614
17511TIP3   OH274023   0.983   1.777   0.483 -0.0024 -0.3929  0.4447
17511TIP3    H174024   0.959   1.694   0.442  0.3605 -0.4794  0.4020
17511TIP3    H274025   0.940   1.843   0.428  1.0062 -0.4723 -0.4796
17512TIP3   OH274026   3.618   2.322  12.688 -0.2589  0.2483 -0.0432
17512TIP3    H174027   3.546   2.260  12.675  0.2356 -0.3589  0.0372
17512TIP3    H274028   3.579   2.408  12.673 -0.5994 -0.1672 -1.8437
17513TIP3   OH274029   1.300   2.505  13.830  0.7108 -0.2746 -0.1445
17513TIP3    H174030   1.257   2.426  13.862 -2.0777  1.1218 -0.0735
17513TIP3    H274031   1.269   2.515  13.740  0.5695  0.9773  0.0159
17514TIP3   OH274032   1.987   2.049   4.601 -0.9510  0.2522  0.1955
17514TIP3    H174033   1.911   2.082   4.651 -1.2121  0.7676 -0.5280
17514TIP3    H274034   2.051   2.026   4.668 -1.7161 -0.1121  0.8214
17515TIP3   OH274035   5.325   5.727  14.144  0.6732  0.9288  0.4073
17515TIP3    H174036   5.404   5.727  14.089  0.4882 -0.0328  0.1268
17515TIP3    H274037   5.344   5.662  14.212  0.4745  1.3454  0.8625
17516TIP3   OH274038   0.391   4.094   4.723  0.3822  0.0540 -0.6415
17516TIP3    H174039   0.418   4.080   4.632 -0.7610 -0.0136 -0.9867
17516TIP3    H274040   0.316   4.036   4.734  1.5226 -1.1932  0.8674
17517TIP3   OH274041   4.228   4.629   6.102 -0.1436 -0.1117 -0.1906
17517TIP3    H174042   4.200   4.693   6.037  0.6958 -0.9257 -1.3809
17517TIP3    H274043   4.287   4.678   6.160 -1.5365  0.8247  0.5079
17518TIP3   OH274044   4.008   4.086  12.282  0.4212 -0.5662  0.1503
17518TIP3    H174045   4.064   4.045  12.349 -2.6730 -3.1137  1.4421
17518TIP3    H274046   3.965   4.158  12.327  0.1712 -0.7463  0.2056
17519TIP3   OH274047   1.787   5.347  12.888  0.5178  0.3104 -0.2582
17519TIP3    H174048   1.695   5.374  12.882  1.0584  2.2254 -0.4891
17519TIP3    H274049   1.804   5.343  12.982  0.1172 -0.4072 -0.2068
17520TIP3   OH274050   1.632   6.457   2.469 -0.4975  0.2693 -0.3755
17520TIP3    H174051   1.640   6.398   2.544  0.8279 -0.7408 -1.2672
17520TIP3    H274052   1.673   6.538   2.499 -0.7496  0.1717  0.2650
17521TIP3   OH274053   2.681   2.096  16.702 -0.5054 -0.3100 -0.3423
17521TIP3    H174054   2.771   2.120  16.724 -1.0957  0.7237  1.1347
17521TIP3    H274055   2.629   2.133  16.773 -1.9575 -2.2376 -0.3465
17522TIP3   OH274056   0.602   4.900   4.167  0.4222 -0.3098 -0.1038
17522TIP3    H174057   0.684   4.914   4.122  1.0036 -1.5782  0.5133
17522TIP3    H274058   0.627   4.874   4.256 -0.5779 -2.0742 -0.2875
17523TIP3   OH274059   0.960   0.994  12.369 -0.3773 -0.2944 -0.0127
17523TIP3    H174060   0.925   0.911  12.338 -0.6741 -0.3684  0.5141
17523TIP3    H274061   0.931   1.000  12.460  1.5984 -0.7200  0.6911
17524TIP3   OH274062   6.484   6.551  14.825  0.0764  0.3339  0.1257
17524TIP3    H174063   6.572   6.543  14.790 -0.6018 -0.2306 -1.5307
17524TIP3    H274064   6.497   6.575  14.917  1.9354  0.3456 -0.1052
17525TIP3   OH274065   6.823   4.084  14.311  0.1976  1.0320 -0.1987
17525TIP3    H174066   6.908   4.128  14.304 -0.0795  1.3565 -2.0516
17525TIP3    H274067   6.800   4.062  14.221 -1.2862  0.1598  0.3593
17526TIP3   OH274068   1.032   0.456  11.929  0.0991  0.0455 -0.2201
17526TIP3    H174069   1.096   0.461  12.001  0.8760 -0.8163 -0.8251
17526TIP3    H274070   1.080   0.489  11.853 -1.0197  1.8792 -0.1825
17527TIP3   OH274071   4.872   1.142   5.196 -0.4843  0.4609 -0.1439
17527TIP3    H174072   4.855   1.222   5.146 -0.8626  0.6356  0.2520
17527TIP3    H274073   4.884   1.172   5.286 -3.8683 -0.1333  0.6770
17528TIP3   OH274074   5.091   4.601   2.225 -0.5885 -0.1936  0.1536
17528TIP3    H174075   5.001   4.623   2.246  0.4732  2.6781  2.3736
17528TIP3    H274076   5.110   4.524   2.279 -1.5305 -0.4237  0.1694
17529TIP3   OH274077   3.477   2.789   1.991 -0.3906 -0.2170  0.1624
17529TIP3    H174078   3.489   2.881   2.012  0.0173 -0.5281  1.3533
17529TIP3    H274079   3.458   2.747   2.075 -0.9479 -1.1639 -0.4132
17530TIP3   OH274080   6.211   6.022  10.338 -0.4211 -0.6267  0.8580
17530TIP3    H174081   6.299   6.038  10.373 -0.7532 -0.2026  1.5012
17530TIP3    H274082   6.225   6.012  10.244  0.4713 -1.6943  1.0699
17531TIP3   OH274083   0.433   5.224  12.019  0.0187  0.6320  0.0571
17531TIP3    H174084   0.408   5.316  12.005 -2.3688  0.0368 -0.0441
17531TIP3    H274085   0.475   5.224  12.105 -1.1030  1.6763  0.6441
17532TIP3   OH274086   5.277   0.719  15.121 -0.0337  0.4808 -0.0292
17532TIP3    H174087   5.340   0.789  15.106  0.9544 -0.2515  0.5771
17532TIP3    H274088   5.213   0.757  15.182  0.4507  0.8861  0.2371
17533TIP3   OH274089   1.383   5.192  14.597 -0.4154  0.6795 -0.2899
17533TIP3    H174090   1.426   5.277  14.591  0.1962  0.4308  0.4199
17533TIP3    H274091   1.334   5.195  14.679 -0.3653  0.3307 -0.2438
17534TIP3   OH274092   1.705   3.977  13.171 -0.5208  0.7065 -0.0196
17534TIP3    H174093   1.749   3.928  13.240 -0.5113  0.9540  0.1507
17534TIP3    H274094   1.773   3.992  13.105 -0.7035 -0.1462 -0.4147
17535TIP3   OH274095   6.547   4.946  14.661 -0.7284  0.2993  0.0631
17535TIP3    H174096   6.569   4.914  14.749  0.5671  0.3154 -0.2295
17535TIP3    H274097   6.608   5.019  14.647 -0.3741 -0.2017 -1.1536
17536TIP3   OH274098   2.808   4.455  16.493 -0.0123  0.0350 -0.4277
17536TIP3    H174099   2.881   4.422  16.546  0.2589  0.3851 -0.5781
17536TIP3    H274100   2.848   4.520  16.436 -0.6211  0.9453  0.1716
17537TIP3   OH274101   5.201   0.668   1.533 -0.0628  0.3720  1.2934
17537TIP3    H174102   5.143   0.710   1.470  2.5386  3.6144  0.7647
17537TIP3    H274103   5.207   0.577   1.504 -0.1604  1.3708 -2.3045
17538TIP3   OH274104   0.323   4.134  14.823  0.2998  0.0469  0.3858
17538TIP3    H174105   0.228   4.128  14.834  0.0715  1.5907 -0.4876
17538TIP3    H274106   0.356   4.162  14.908 -0.2106  1.0253  0.2755
17539TIP3   OH274107   1.327   6.675   4.248 -0.3060 -0.4505  0.1009
17539TIP3    H174108   1.311   6.584   4.224 -1.9537 -0.1160 -0.2126
17539TIP3    H274109   1.357   6.716   4.167 -1.9188 -0.2245 -0.4371
17540TIP3   OH274110   6.395   0.352  11.341 -0.0629  0.7802  0.2182
17540TIP3    H174111   6.307   0.317  11.349 -0.8625  2.2958 -1.3591
17540TIP3    H274112   6.417   0.343  11.248  1.4264  0.4992  0.5689
17541TIP3   OH274113   2.923   5.104  15.234 -0.1113 -0.5190 -0.3299
17541TIP3    H174114   2.839   5.103  15.188  0.9568 -1.1768 -2.4116
17541TIP3    H274115   2.942   5.197  15.249 -1.4567 -0.3958  0.6785
17542TIP3   OH274116   4.000   2.678  15.937  0.0826  0.5056 -0.2889
17542TIP3    H174117   3.931   2.617  15.961  0.4513  1.1435  2.8540
17542TIP3    H274118   3.968   2.763  15.967  1.0862  1.2840 -1.3291
17543TIP3   OH274119   4.168   0.323  15.344  0.9801  0.5244  0.2341
17543TIP3    H174120   4.163   0.298  15.252 -0.8515  0.3668  0.3554
17543TIP3    H274121   4.174   0.240  15.391 -0.9951  0.4291  0.3937
17544TIP3   OH274122   4.438   3.571   5.228  0.0863  0.0448  0.1265
17544TIP3    H174123   4.471   3.609   5.146  0.2669  1.0262  0.6521
17544TIP3    H274124   4.512   3.521   5.262  0.0763 -0.1948 -0.1868
17545TIP3   OH274125   4.906   1.526   5.925 -0.0170  0.0063  0.0114
17545TIP3    H174126   4.815   1.548   5.946 -0.2919  1.2698 -2.1833
17545TIP3    H274127   4.956   1.564   5.997 -1.1986 -0.6279  1.2113
17546TIP3   OH274128   5.889   3.712  14.918  0.1687 -0.4621  0.1686
17546TIP3    H174129   5.839   3.793  14.903  0.8585  0.2117  1.3559
17546TIP3    H274130   5.827   3.642  14.897  0.0028  0.3422 -2.3603
17547TIP3   OH274131   4.052   6.324   3.523 -0.1585 -0.2252  0.0068
17547TIP3    H174132   3.983   6.390   3.524  1.3051  1.3796  0.6044
17547TIP3    H274133   4.073   6.312   3.430 -0.6792 -0.1260 -0.1242
17548TIP3   OH274134   2.764   2.329  10.787  0.1131  0.2139  0.2360
17548TIP3    H174135   2.822   2.320  10.711  1.3966  0.2601  1.1764
17548TIP3    H274136   2.707   2.253  10.782 -0.7432  0.9201 -1.5150
17549TIP3   OH274137   0.446   3.430  14.431  0.1247 -0.4089 -0.3648
17549TIP3    H174138   0.400   3.384  14.501 -1.0193  0.5329 -0.4538
17549TIP3    H274139   0.443   3.370  14.357 -2.7795  0.3470 -0.9785
17550TIP3   OH274140   4.195   3.667  13.610  0.6861  0.3958 -0.5071
17550TIP3    H174141   4.147   3.654  13.693  0.5256  1.1282 -0.4776
17550TIP3    H274142   4.226   3.757  13.614  0.6582  0.4452 -1.2610
17551TIP3   OH274143   1.820   6.700   2.747  0.4436  0.3582  0.1083
17551TIP3    H174144   1.804   6.792   2.730 -2.0864 -0.2997 -1.6563
17551TIP3    H274145   1.862   6.667   2.667  2.2845  0.1224  1.1140
17552TIP3   OH274146   3.326   2.667   4.355 -0.0364  0.1669 -1.1744
17552TIP3    H174147   3.311   2.608   4.281 -0.4267  0.1018 -1.0487
17552TIP3    H274148   3.308   2.613   4.432 -0.5212  0.4791 -1.0631
17553TIP3   OH274149   1.112   3.153  13.764 -0.0414  0.0387 -0.1752
17553TIP3    H174150   1.051   3.227  13.755 -0.8008 -0.5295  0.2186
17553TIP3    H274151   1.156   3.169  13.847  0.9317  0.8631 -0.8268
17554TIP3   OH274152   3.850   2.455  15.138 -0.2543 -0.2494  0.3375
17554TIP3    H174153   3.841   2.423  15.227  1.1115 -1.1359  0.1718
17554TIP3    H274154   3.785   2.405  15.088 -2.2361  1.4409  1.0693
17555TIP3   OH274155   2.377   2.852   4.566  0.2723  0.3858  0.0902
17555TIP3    H174156   2.467   2.837   4.536 -0.1811 -0.1707 -1.0488
17555TIP3    H274157   2.362   2.945   4.553  1.3884  0.9555  2.3570
17556TIP3   OH274158   5.327   0.458   4.686 -0.3805  0.2382 -0.4965
17556TIP3    H174159   5.310   0.520   4.615  2.1735 -0.7593 -2.1308
17556TIP3    H274160   5.252   0.398   4.685 -0.1723 -0.0524 -2.7328
17557TIP3   OH274161   4.405   1.115  13.567  0.3021  0.3910  0.5538
17557TIP3    H174162   4.378   1.168  13.642  1.6832  1.5228  0.2958
17557TIP3    H274163   4.323   1.083  13.530 -0.4058 -0.2724  2.5743
17558TIP3   OH274164   4.146   3.726   2.448  0.4423  0.2123  0.0218
17558TIP3    H174165   4.127   3.683   2.532 -0.4346 -1.9099 -1.1735
17558TIP3    H274166   4.064   3.771   2.427  0.5032  0.3563  0.0941
17559TIP3   OH274167   6.337   4.241   1.956  0.1446  0.1020  0.2031
17559TIP3    H174168   6.407   4.246   1.890  0.1493 -0.0852  0.1920
17559TIP3    H274169   6.266   4.195   1.911  0.6766 -1.3231  0.7774
17560TIP3   OH274170   4.367   5.030   2.341 -0.1251 -0.1504 -0.2251
17560TIP3    H174171   4.275   5.015   2.321 -0.4809 -3.0436  2.6555
17560TIP3    H274172   4.368   5.049   2.435  2.1000  1.9327 -0.5841
17561TIP3   OH274173   2.529   6.603  16.898  0.2818  0.0577 -0.0857
17561TIP3    H174174   2.493   6.578  16.813 -1.1030 -0.5241  0.6232
17561TIP3    H274175   2.621   6.622  16.881  0.0295 -0.0126 -1.7110
17562TIP3   OH274176   4.345   4.773  15.757 -0.4519  0.2355 -0.1665
17562TIP3    H174177   4.294   4.698  15.727 -0.0181 -0.2960  0.4064
17562TIP3    H274178   4.358   4.827  15.679 -0.1029 -0.6712 -0.7411
17563TIP3   OH274179   1.191   0.487   1.147 -0.3804 -0.2370 -0.3018
17563TIP3    H174180   1.121   0.428   1.118 -0.4316 -0.2202 -0.2121
17563TIP3    H274181   1.150   0.541   1.214  0.4710 -2.1875  1.9217
17564TIP3   OH274182   5.030   2.222  11.712 -0.0329 -0.0394 -0.0966
17564TIP3    H174183   5.015   2.299  11.656 -1.9602  1.0551  1.7650
17564TIP3    H274184   5.088   2.253  11.781 -0.7844 -0.2416  0.6436
17565TIP3   OH274185   2.887   4.291   5.049  0.3649 -0.4551  0.5034
17565TIP3    H174186   2.864   4.356   5.116  1.7953 -1.0371  1.6265
17565TIP3    H274187   2.870   4.207   5.091 -1.0446 -0.8391 -0.7760
17566TIP3   OH274188   1.531   1.284  15.234  0.3428  0.0648 -0.7664
17566TIP3    H174189   1.570   1.350  15.292 -1.2027 -1.9731  2.9001
17566TIP3    H274190   1.448   1.322  15.207  0.1569  0.2563  0.0453
17567TIP3   OH274191   6.511   5.753  13.263 -0.5195  0.1211  0.5091
17567TIP3    H174192   6.604   5.744  13.244 -0.1122  1.0027  1.9541
17567TIP3    H274193   6.496   5.847  13.264 -0.8584  0.0901  2.7506
17568TIP3   OH274194   2.166   0.047   5.730  0.3665  0.4177 -0.6288
17568TIP3    H174195   2.146  -0.046   5.745 -1.0315  0.4844 -1.8394
17568TIP3    H274196   2.117   0.093   5.799  0.6481  0.2838 -0.3394
17569TIP3   OH274197   4.933   1.651  14.525  0.0709 -0.2229 -0.1037
17569TIP3    H174198   4.867   1.675  14.590  0.6933  0.6070  0.2478
17569TIP3    H274199   4.943   1.730  14.472 -0.9467 -1.1026 -1.6976
17570TIP3   OH274200   6.161   2.233   3.035  0.3263  0.0256 -0.2812
17570TIP3    H174201   6.198   2.302   2.979 -0.0195 -0.1052 -0.6797
17570TIP3    H274202   6.180   2.152   2.988  0.6063 -0.1401  0.1188
17571TIP3   OH274203   6.034   2.894  16.048  0.2957 -0.1386  0.6174
17571TIP3    H174204   6.077   2.956  16.107  0.4569 -0.7703  1.1785
17571TIP3    H274205   6.104   2.837  16.018  0.4517  0.9312 -1.2007
17572TIP3   OH274206   0.685   3.508  14.529 -0.0549 -0.5126 -0.9295
17572TIP3    H174207   0.600   3.476  14.498 -0.3565 -0.2306 -0.4060
17572TIP3    H274208   0.681   3.603  14.515 -0.5244 -0.2590  0.7020
17573TIP3   OH274209   4.425   6.430   2.814 -0.5848  0.3972  0.1631
17573TIP3    H174210   4.414   6.505   2.756 -1.3081  1.7624  1.9581
17573TIP3    H274211   4.344   6.381   2.804 -1.1686  1.2057  0.7679
17574TIP3   OH274212   1.308   2.872  14.331 -0.4018 -0.2317 -0.0087
17574TIP3    H174213   1.315   2.787  14.287 -0.4955  0.4645 -1.4212
17574TIP3    H274214   1.394   2.885  14.371 -0.3985 -1.0003  0.2593
17575TIP3   OH274215   3.504   2.151  15.992  0.7706 -0.0460 -0.1222
17575TIP3    H174216   3.529   2.239  16.019  1.1132 -0.0092 -0.5371
17575TIP3    H274217   3.546   2.140  15.907 -0.5259 -0.0412 -0.7894
17576TIP3   OH274218   5.421   2.119  11.838  0.0160  0.2094  0.0597
17576TIP3    H174219   5.433   2.029  11.808  2.4126  0.5762 -0.2957
17576TIP3    H274220   5.465   2.122  11.923  0.0159  1.0692  0.0393
17577TIP3   OH274221   2.120   4.666   0.976  0.4347  0.3931 -0.1959
17577TIP3    H174222   2.087   4.746   1.017 -0.1762  0.5881 -1.0472
17577TIP3    H274223   2.214   4.679   0.969  0.5939  0.2413  1.3850
17578TIP3   OH274224   3.040   0.426   1.010  0.3217 -0.2695  0.1444
17578TIP3    H174225   2.945   0.425   0.997 -0.0410  1.2524  2.2083
17578TIP3    H274226   3.056   0.359   1.076  0.0788  2.0620  2.7257
17579TIP3   OH274227   4.837   1.480   5.645  0.0396 -0.1223 -0.4187
17579TIP3    H174228   4.879   1.395   5.633  0.7488  0.3085 -1.1549
17579TIP3    H274229   4.857   1.504   5.736  0.7006 -0.3014 -0.5096
17580TIP3   OH274230   1.285   6.124   5.455 -0.2820 -0.3551 -1.1975
17580TIP3    H174231   1.220   6.192   5.440 -1.2978 -1.4919 -2.1418
17580TIP3    H274232   1.369   6.167   5.439 -0.8269  0.9353 -0.7139
17581TIP3   OH274233   4.177   0.510  13.754 -0.4985  0.2314 -0.7666
17581TIP3    H174234   4.151   0.487  13.843  0.6494 -1.1877 -0.7511
17581TIP3    H274235   4.212   0.599  13.762 -0.5600  0.1827  0.1772
17582TIP3   OH274236   2.868   0.211  15.356  0.3296  0.3363 -0.3366
17582TIP3    H174237   2.841   0.220  15.448  2.2201 -0.0995  0.3204
17582TIP3    H274238   2.802   0.153  15.318  0.3047 -0.6826  1.1488
17583TIP3   OH274239   5.981   3.281   5.491  0.2551 -0.1976 -0.7820
17583TIP3    H174240   5.986   3.377   5.481 -1.9939 -0.2076 -2.6881
17583TIP3    H274241   6.027   3.264   5.574 -1.5391  2.7976  1.0268
17584TIP3   OH274242   2.944   2.088  16.782  0.4745  0.3938 -0.0344
17584TIP3    H174243   3.012   2.023  16.801 -0.9981 -1.0118  0.6959
17584TIP3    H274244   2.992   2.162  16.746  2.1550 -1.4994 -2.0378
17585TIP3   OH274245   1.630   5.194   5.002  0.4857 -0.3021 -0.5638
17585TIP3    H174246   1.723   5.176   4.989  1.6067  3.7296  0.4375
17585TIP3    H274247   1.612   5.166   5.092  0.8502 -0.5775 -0.5742
17586TIP3   OH274248   1.129   1.017  13.542 -0.6860 -0.7563  0.0450
17586TIP3    H174249   1.054   1.077  13.541 -0.5483 -0.5834 -0.9501
17586TIP3    H274250   1.195   1.061  13.596 -0.6379 -0.0700 -0.5668
17587TIP3   OH274251   2.071   1.054  10.811 -0.0518  0.1320 -0.5394
17587TIP3    H174252   2.056   1.042  10.717 -0.8293 -0.0354 -0.3959
17587TIP3    H274253   2.093   1.147  10.819  0.1429  0.1220 -0.8955
17588TIP3   OH274254   3.850   3.812  11.185 -0.1510 -0.0389 -0.4888
17588TIP3    H174255   3.818   3.822  11.095  3.5419 -1.1003 -2.0994
17588TIP3    H274256   3.838   3.899  11.224 -1.2353  0.6426 -2.2062
17589TIP3   OH274257   6.435   0.227   0.135  0.7211  0.2804  0.0660
17589TIP3    H174258   6.518   0.185   0.110 -0.0316 -0.5249 -1.2069
17589TIP3    H274259   6.445   0.317   0.105  1.1717  0.2117 -0.0074
17590TIP3   OH274260   0.023   1.542   3.102 -0.8403 -0.1423 -0.5570
17590TIP3    H174261   0.049   1.537   3.194 -1.6966 -0.2565 -0.3199
17590TIP3    H274262  -0.070   1.565   3.104 -0.5948  1.0286 -1.4116
17591TIP3   OH274263   3.452   6.482   5.355 -0.9205 -1.5965 -0.0275
17591TIP3    H174264   3.460   6.462   5.262 -2.5559 -2.0645 -0.1032
17591TIP3    H274265   3.399   6.562   5.358  0.5518 -0.5923  0.4726
17592TIP3   OH274266   5.909   1.199  14.306  0.3644  0.2797  0.4084
17592TIP3    H174267   5.852   1.260  14.260  0.9038  1.1329  0.8511
17592TIP3    H274268   5.849   1.138  14.349 -0.1694  0.2272 -0.3835
17593TIP3   OH274269   4.201   5.722  16.954  0.2268 -0.6474 -0.4911
17593TIP3    H174270   4.233   5.666  17.025 -1.2013 -0.4528  0.3533
17593TIP3    H274271   4.175   5.804  16.998 -0.6054 -0.4921 -1.2408
17594TIP3   OH274272   1.510   2.419   5.557  0.2651 -0.4040  0.5049
17594TIP3    H174273   1.479   2.487   5.497  2.9387  0.3732 -0.0991
17594TIP3    H274274   1.438   2.356   5.560 -1.8389  1.8079  0.1551
17595TIP3   OH274275   6.139   4.874  11.905  0.5101 -0.0756  0.4669
17595TIP3    H174276   6.232   4.851  11.897  0.1483 -1.2511 -0.8167
17595TIP3    H274277   6.137   4.969  11.895  1.4340 -0.2065 -1.5258
17596TIP3   OH274278   2.896   5.998   4.711 -0.3975  0.2269 -0.1950
17596TIP3    H174279   2.815   5.968   4.671 -0.5144 -1.4195  1.1633
17596TIP3    H274280   2.964   5.942   4.675 -0.0005  0.9285 -0.5614
17597TIP3   OH274281   2.720   1.949  12.465 -0.3552 -0.1543  0.5861
17597TIP3    H174282   2.686   1.887  12.531 -0.3569 -0.0628  0.6719
17597TIP3    H274283   2.659   1.941  12.392 -2.2204  1.9926  1.7692
17598TIP3   OH274284   2.595   2.648  11.812 -0.4570  0.1022 -0.2639
17598TIP3    H174285   2.671   2.594  11.786  0.2145  1.2550 -0.7844
17598TIP3    H274286   2.534   2.639  11.739  0.0281  0.7190 -0.7609
17599TIP3   OH274287   5.189   1.712   6.539 -0.1792  1.2540  0.0742
17599TIP3    H174288   5.260   1.686   6.597  0.2523  0.9258 -0.5902
17599TIP3    H274289   5.110   1.682   6.583  0.2627 -0.6260 -0.3505
17600TIP3   OH274290   1.891   4.195   0.794  0.1863  0.1682 -0.1019
17600TIP3    H174291   1.955   4.258   0.828 -0.9753  0.5668  1.4616
17600TIP3    H274292   1.854   4.154   0.872  0.9970 -2.6178 -1.0658
17601TIP3   OH274293   0.541   2.200  15.424  0.0821  0.2824 -0.5113
17601TIP3    H174294   0.454   2.159  15.422  0.4457 -0.5508  0.3662
17601TIP3    H274295   0.528   2.284  15.380 -1.0924  0.0258 -0.6958
17602TIP3   OH274296   0.050   0.419  14.484  0.2648 -0.1030 -0.1602
17602TIP3    H174297  -0.024   0.442  14.541  0.7821  0.8501  0.1517
17602TIP3    H274298   0.059   0.493  14.424 -0.0238 -0.9265 -1.2453
17603TIP3   OH274299   0.106   3.601   4.002  0.0632  0.5592 -0.4727
17603TIP3    H174300   0.131   3.526   4.056  0.5561 -0.2783 -1.7998
17603TIP3    H274301   0.021   3.628   4.037 -0.6072 -1.2591 -0.5595
17604TIP3   OH274302   2.924   3.506  16.603  0.4429 -0.5060  0.2022
17604TIP3    H174303   2.850   3.468  16.555  0.0277 -0.1588  0.5624
17604TIP3    H274304   2.905   3.600  16.604  0.2817 -0.5446  1.3329
17605TIP3   OH274305   4.102   3.876   3.986  0.7681 -0.3219  0.1676
17605TIP3    H174306   4.130   3.849   3.898  0.2469 -0.7070  0.1170
17605TIP3    H274307   4.010   3.851   3.991  0.8035 -0.3402  0.8447
17606TIP3   OH274308   2.361   0.870  11.568 -0.5246 -0.1171  0.2447
17606TIP3    H174309   2.393   0.780  11.579  1.0008  0.3769  0.0455
17606TIP3    H274310   2.353   0.904  11.657 -0.9067 -0.3736  0.3114
17607TIP3   OH274311   0.506   3.093   2.398  0.7670  0.4517  0.2906
17607TIP3    H174312   0.493   3.038   2.320 -1.3186 -1.0132  1.5734
17607TIP3    H274313   0.567   3.043   2.452  1.4249  0.9987  0.0786
17608TIP3   OH274314   5.065   4.582  16.980  0.0325 -0.3464  0.1605
17608TIP3    H174315   5.020   4.595  16.897 -1.2110 -3.6252  0.1897
17608TIP3    H274316   5.145   4.534  16.957  0.5793  0.2768  0.7055
17609TIP3   OH274317   3.879   6.530  16.674  0.0222  0.2582  0.2531
17609TIP3    H174318   3.795   6.571  16.656  0.0556  0.6056  0.8394
17609TIP3    H274319   3.859   6.437  16.685 -0.5455  0.5465  1.9152
17610TIP3   OH274320   0.957   4.533   1.750  0.7529 -0.0883  0.1702
17610TIP3    H174321   0.964   4.503   1.841  1.6737 -2.4480 -0.5944
17610TIP3    H274322   1.005   4.467   1.700 -0.1596  0.8706 -2.0873
17611TIP3   OH274323   3.824   2.476   2.990 -0.5595 -0.0066 -0.0070
17611TIP3    H174324   3.734   2.462   2.959 -0.2422 -1.1864 -0.4768
17611TIP3    H274325   3.877   2.424   2.930  0.2471 -0.9608  1.4799
17612TIP3   OH274326   6.313   3.084   4.324  0.1731  0.3241  0.1846
17612TIP3    H174327   6.378   3.020   4.296 -0.4428 -0.8147  1.2755
17612TIP3    H274328   6.285   3.127   4.242  1.3734 -0.0158 -0.4328
17613TIP3   OH274329   6.525   5.906  11.886 -0.3408  0.3652  0.0361
17613TIP3    H174330   6.495   5.862  11.966 -2.1022 -0.8875 -1.2329
17613TIP3    H274331   6.486   5.856  11.815  2.7450  0.2630 -1.7462
17614TIP3   OH274332   6.450   0.342  15.435  0.0941  0.0912 -0.0020
17614TIP3    H174333   6.464   0.375  15.346  3.0996  0.1583  0.3971
17614TIP3    H274334   6.396   0.409  15.477 -0.0125  0.8567 -1.3011
17615TIP3   OH274335   4.851   4.022  16.655 -0.2117 -0.0271 -0.4533
17615TIP3    H174336   4.867   3.936  16.693  0.5628  0.6358  0.7830
17615TIP3    H274337   4.935   4.067  16.659 -0.8282  1.1520 -0.1057
17616TIP3   OH274338   4.427   4.226   5.515  0.3852 -0.2249 -0.2483
17616TIP3    H174339   4.358   4.172   5.476  0.5750 -0.7954  0.1903
17616TIP3    H274340   4.504   4.208   5.461  0.2098  0.4012 -0.7291
17617TIP3   OH274341   1.003   5.303   4.222 -0.8167  0.2671  0.0661
17617TIP3    H174342   0.960   5.220   4.203  0.5568 -0.1531 -1.4134
17617TIP3    H274343   1.060   5.285   4.296  0.4087 -0.4813 -1.0222
17618TIP3   OH274344   3.574   3.803   3.984 -0.0565 -0.1579 -0.1860
17618TIP3    H174345   3.489   3.797   4.027 -0.8959 -1.3223 -1.8735
17618TIP3    H274346   3.623   3.868   4.035 -1.2678 -0.8019  1.9069
17619TIP3   OH274347   3.740   1.773   1.005 -0.0964  0.7337 -0.8108
17619TIP3    H174348   3.696   1.771   0.921 -0.8932  1.6035 -0.4294
17619TIP3    H274349   3.833   1.762   0.984  0.0518  3.5458 -2.0681
17620TIP3   OH274350   6.511   6.008   0.771 -0.1133  0.1321  0.1585
17620TIP3    H174351   6.493   6.083   0.715  0.8390 -1.0390 -1.8722
17620TIP3    H274352   6.535   6.045   0.855 -1.0577  2.0269 -0.3580
17621TIP3   OH274353   5.965   0.362   5.196 -0.8490  0.0930  0.5884
17621TIP3    H174354   6.041   0.307   5.179 -2.4208 -1.6541 -1.3328
17621TIP3    H274355   5.931   0.331   5.280  0.8300  1.3480  1.8155
17622TIP3   OH274356   6.080   3.473  15.687 -0.7394  0.5999  0.1000
17622TIP3    H174357   6.174   3.457  15.681 -1.1063 -1.8838  0.0196
17622TIP3    H274358   6.061   3.476  15.781 -0.4725  2.2560  0.1428
17623TIP3   OH274359   2.395   6.782   6.420  0.0857  0.0677  0.0862
17623TIP3    H174360   2.361   6.862   6.459  0.9400 -0.2191  1.4647
17623TIP3    H274361   2.316   6.736   6.390 -0.4888  0.9337  0.2166
17624TIP3   OH274362   5.481   3.860  12.043  0.0667 -0.3804  0.0883
17624TIP3    H174363   5.575   3.845  12.058  0.2942  0.0227 -0.8537
17624TIP3    H274364   5.474   3.954  12.030 -0.0840 -0.6715 -2.2965
17625TIP3   OH274365   2.697   4.933   4.627 -0.1398  0.3160  0.4313
17625TIP3    H174366   2.783   4.916   4.666  0.8484  0.2479 -1.6242
17625TIP3    H274367   2.640   4.951   4.701  1.0113 -2.2427  2.0820
17626TIP3   OH274368   1.309   2.226   2.363 -0.5002  0.7050 -0.1340
17626TIP3    H174369   1.283   2.160   2.427 -0.3827 -0.4228 -1.2164
17626TIP3    H274370   1.405   2.220   2.360 -0.5522  0.1396 -1.0253
17627TIP3   OH274371   1.367   4.116   4.437  0.1003  0.2590  0.3218
17627TIP3    H174372   1.320   4.117   4.521 -0.2486  0.7454  0.1232
17627TIP3    H274373   1.361   4.205   4.405 -0.7400 -0.1643 -0.7599
17628TIP3   OH274374   5.276   2.625   4.298 -0.1362  0.4092  0.3086
17628TIP3    H174375   5.229   2.549   4.330 -1.4008  1.5734  1.3559
17628TIP3    H274376   5.367   2.597   4.293 -0.3542 -0.7509  2.0666
17629TIP3   OH274377   5.432   5.140   4.274 -0.8987  0.7681  0.2154
17629TIP3    H174378   5.474   5.223   4.297 -1.8038  0.8480  1.6921
17629TIP3    H274379   5.383   5.161   4.194  1.7128  0.6706 -1.5222
17630TIP3   OH274380   5.616   5.098   4.029  0.3306  0.0906 -0.0591
17630TIP3    H174381   5.687   5.054   4.076 -0.7843 -0.5281  1.1373
17630TIP3    H274382   5.557   5.128   4.098 -0.1752  1.3075 -0.9841
17631TIP3   OH274383   1.867   2.022   0.715  0.1198 -0.2433 -0.6943
17631TIP3    H174384   1.837   1.979   0.634 -0.9399 -0.1742 -0.3465
17631TIP3    H274385   1.788   2.059   0.753  0.9177  1.4528 -0.6299
17632TIP3   OH274386   4.921   2.399  16.320 -0.6889  0.6133  0.7254
17632TIP3    H174387   4.964   2.318  16.292 -1.0430  0.9777 -1.0006
17632TIP3    H274388   4.830   2.388  16.294 -1.1060  0.9033  2.0081
17633TIP3   OH274389   6.300   0.290   2.078  0.2651  0.3265 -0.2493
17633TIP3    H174390   6.214   0.289   2.119 -0.5135 -0.4098 -1.7991
17633TIP3    H274391   6.285   0.327   1.991  1.3405 -0.5561 -0.8510
17634TIP3   OH274392   4.583   2.475  11.452 -0.3085  0.0620  0.0335
17634TIP3    H174393   4.592   2.532  11.376 -0.9943  0.1241 -0.0070
17634TIP3    H274394   4.488   2.465  11.464 -0.3051  1.7294  2.1204
17635TIP3   OH274395   5.930   1.603   4.835 -0.2647  0.8457 -0.1211
17635TIP3    H174396   5.856   1.616   4.894  1.5838  0.5280  2.4775
17635TIP3    H274397   5.927   1.511   4.811  0.2328  0.3755  1.4816
17636TIP3   OH274398   4.159   1.833  13.076  0.1190  0.2910 -0.0809
17636TIP3    H174399   4.196   1.830  12.988  2.2640 -0.1291  0.7822
17636TIP3    H274400   4.111   1.916  13.079  2.3863  1.7245 -0.7858
17637TIP3   OH274401   3.658   1.370   0.758  0.6294  0.1533  0.0197
17637TIP3    H174402   3.681   1.435   0.691 -0.4002  0.2737 -0.2343
17637TIP3    H274403   3.742   1.338   0.791  1.1477  1.2872 -0.1741
17638TIP3   OH274404   5.986   4.435  12.269 -0.0556  0.2789  0.0904
17638TIP3    H174405   5.920   4.418  12.336 -0.4359 -0.6537 -0.4919
17638TIP3    H274406   5.945   4.501  12.212  0.0849  0.7345  0.5123
17639TIP3   OH274407   2.943   5.645   5.561 -0.4886 -0.3227  0.3771
17639TIP3    H174408   2.911   5.608   5.643 -0.5313  1.1530  1.0630
17639TIP3    H274409   3.011   5.707   5.588  0.3012 -0.6459 -0.7996
17640TIP3   OH274410   5.703   0.344  15.602  0.2138 -0.0063 -0.2109
17640TIP3    H174411   5.793   0.314  15.588  0.6644  1.3103 -0.2461
17640TIP3    H274412   5.712   0.433  15.635 -1.0838  0.1703 -0.2794
17641TIP3   OH274413   1.645   4.590   2.646  0.2085  0.0022  0.3040
17641TIP3    H174414   1.598   4.507   2.649  1.0627 -0.4748  2.1785
17641TIP3    H274415   1.714   4.577   2.582 -1.0402  0.0779 -1.0969
17642TIP3   OH274416   3.217   4.432  15.145 -0.0818  0.0448  0.1816
17642TIP3    H174417   3.134   4.405  15.185  0.3801 -0.5495  0.7576
17642TIP3    H274418   3.198   4.437  15.051 -1.1774  1.4387  0.4397
17643TIP3   OH274419   5.029   1.771  15.268 -0.2102 -0.5436  0.0809
17643TIP3    H174420   4.936   1.774  15.293 -0.5506 -1.3042 -1.0479
17643TIP3    H274421   5.075   1.806  15.345 -1.4667  0.4395  0.4144
17644TIP3   OH274422   6.807   4.710  13.976 -0.0695 -0.3258  0.2328
17644TIP3    H174423   6.799   4.728  14.070 -0.2192  0.3759  0.0911
17644TIP3    H274424   6.717   4.694  13.947 -0.3739  1.9434 -0.2618
17645TIP3   OH274425   2.960   2.030  14.375  0.2233  0.1763 -0.2695
17645TIP3    H174426   2.944   1.943  14.411 -0.5707  0.2961 -0.3301
17645TIP3    H274427   2.898   2.087  14.421  0.4069  0.6296 -0.5792
17646TIP3   OH274428   0.605   6.388   4.419  0.2586 -0.0231  0.6203
17646TIP3    H174429   0.673   6.321   4.426  0.6475  0.3757  0.6658
17646TIP3    H274430   0.641   6.454   4.360  0.0771  0.3881  0.9649
17647TIP3   OH274431   2.052   4.980  15.698  0.2736  0.1281  0.2842
17647TIP3    H174432   1.957   4.983  15.686  0.4909 -0.0677 -1.7871
17647TIP3    H274433   2.080   5.071  15.687  0.2935  0.3099  1.6060
17648TIP3   OH274434   0.872   3.451   5.000  0.4086  0.2970  0.9974
17648TIP3    H174435   0.922   3.382   5.044  1.2997  0.3148  0.0344
17648TIP3    H274436   0.848   3.511   5.071  0.1743 -0.6476  1.7499
17649TIP3   OH274437   5.731   1.361   1.233 -0.0395  0.6356  0.1680
17649TIP3    H174438   5.697   1.450   1.232 -0.8444  0.3396  0.3883
17649TIP3    H274439   5.707   1.326   1.147  1.3703  1.0211 -0.4049
17650TIP3   OH274440   1.525   3.966   4.592  0.2362 -0.1000  0.4810
17650TIP3    H174441   1.467   3.993   4.520  1.7425  0.2178 -0.6624
17650TIP3    H274442   1.477   3.896   4.636 -1.0922  0.2719 -0.3010
17651TIP3   OH274443   0.245   2.358  12.119 -0.2041  0.3337  0.1133
17651TIP3    H174444   0.213   2.437  12.075 -0.6847  0.4043  0.5678
17651TIP3    H274445   0.172   2.331  12.175 -0.6137 -1.2857 -1.1205
17652TIP3   OH274446   3.854   6.102   3.254 -0.2677 -0.3283  0.1966
17652TIP3    H174447   3.811   6.105   3.340 -2.0114  0.5384 -0.6666
17652TIP3    H274448   3.791   6.140   3.194  0.4032 -2.1161 -1.7329
17653TIP3   OH274449   5.611   6.197   2.979  0.0867 -0.2694 -0.5414
17653TIP3    H174450   5.608   6.281   2.933  0.8662 -0.2893 -0.6304
17653TIP3    H274451   5.597   6.132   2.910  2.3176 -0.3610 -0.9623
17654TIP3   OH274452   1.081   6.847   0.746 -0.4198  0.5629  0.8712
17654TIP3    H174453   1.123   6.901   0.813 -0.5379 -0.0195  1.4224
17654TIP3    H274454   1.030   6.908   0.694  0.0652  1.0928  1.0068
17655TIP3   OH274455   1.932   4.569   0.197 -0.3476 -0.0422 -0.5228
17655TIP3    H174456   1.937   4.641   0.134 -1.0950 -0.6079 -1.2441
17655TIP3    H274457   1.992   4.503   0.163  0.9241  0.5221  0.5462
17656TIP3   OH274458   6.260   6.296  15.001 -0.6880 -0.1488 -0.5035
17656TIP3    H174459   6.175   6.252  14.999  0.1538 -1.8383 -0.9362
17656TIP3    H274460   6.300   6.275  14.917  0.7986 -0.7328  0.3174
17657TIP3   OH274461   0.864   0.917   0.269  0.3349  0.3724 -0.2329
17657TIP3    H174462   0.847   0.887   0.358 -0.3720 -0.4723 -0.6395
17657TIP3    H274463   0.946   0.967   0.276  1.3918 -1.3561  0.5449
17658TIP3   OH274464   0.541   3.127  12.919  0.4902 -0.3995  0.4287
17658TIP3    H174465   0.464   3.134  12.975 -0.1366 -2.6617 -0.0625
17658TIP3    H274466   0.534   3.040  12.879  2.2420  0.1467 -1.2026
17659TIP3   OH274467   4.898   1.900   3.716  0.2331 -0.3502 -0.1763
17659TIP3    H174468   4.934   1.879   3.630  1.1110  0.2355  0.0341
17659TIP3    H274469   4.975   1.909   3.773 -0.3539 -1.7001  0.9022
17660TIP3   OH274470   1.751   2.789  14.296  0.0762 -0.1786  0.2509
17660TIP3    H174471   1.838   2.751  14.302  0.2931 -0.0704 -1.7660
17660TIP3    H274472   1.743   2.843  14.375  1.7652 -0.3214  0.5442
17661TIP3   OH274473   0.526   5.864  12.517 -0.2261  0.0081 -0.2750
17661TIP3    H174474   0.494   5.953  12.519  0.0360  0.0894  0.6705
17661TIP3    H274475   0.448   5.809  12.526 -0.5194  0.0907 -1.9756
17662TIP3   OH274476   3.855   1.399   3.858  1.0517 -0.5982 -0.2509
17662TIP3    H174477   3.884   1.327   3.802  0.2949 -0.6731 -0.5486
17662TIP3    H274478   3.825   1.466   3.797  1.2064 -0.2558  0.0435
17663TIP3   OH274479   1.448   4.210   5.308 -0.0616  0.3759  0.1376
17663TIP3    H174480   1.374   4.239   5.361 -0.6715 -0.5756 -0.1719
17663TIP3    H274481   1.411   4.191   5.222  0.7589  1.0296 -0.3794
17664TIP3   OH274482   4.455   6.715  13.048  0.4254 -0.1729 -0.6735
17664TIP3    H174483   4.416   6.673  13.125 -0.9050 -0.0133 -1.2282
17664TIP3    H274484   4.381   6.731  12.989  1.2389  0.8087 -1.4791
17665TIP3   OH274485   4.647   3.429   1.890  0.1228  0.5561 -0.4433
17665TIP3    H174486   4.553   3.446   1.896 -0.7316 -2.4623 -2.9849
17665TIP3    H274487   4.687   3.516   1.889 -2.5991  1.9258  0.6001
17666TIP3   OH274488   1.007   5.068  12.567  0.2169  0.1898 -0.1286
17666TIP3    H174489   0.963   5.080  12.483  0.6154  3.2961 -0.0139
17666TIP3    H274490   1.099   5.087  12.549  0.7487 -1.5441  0.5686
17667TIP3   OH274491   0.135   6.646  12.973 -0.2536  0.1360 -0.4535
17667TIP3    H174492   0.200   6.687  12.917 -2.2674 -0.3104 -3.3323
17667TIP3    H274493   0.064   6.710  12.980 -0.0355  0.2147  1.7482
17668TIP3   OH274494   1.551   4.405  16.309 -0.1718  0.3495  0.6144
17668TIP3    H174495   1.622   4.460  16.342 -0.3247  1.5984 -1.0100
17668TIP3    H274496   1.488   4.404  16.381  0.7308  0.6227  1.4459
17669TIP3   OH274497   0.269   4.195   3.780  0.1869  0.2205  0.7147
17669TIP3    H174498   0.228   4.123   3.731  2.6015 -1.5541  1.0859
17669TIP3    H274499   0.335   4.152   3.835  2.6228  2.8204  0.0666
17670TIP3   OH274500   3.611   6.364   3.903 -0.1093  0.5369  0.3971
17670TIP3    H174501   3.613   6.268   3.900 -1.7097  0.3798  2.3363
17670TIP3    H274502   3.692   6.388   3.950  0.5705  0.1933 -0.5752
17671TIP3   OH274503   3.524   0.074   3.780 -0.0719 -0.1283  0.0524
17671TIP3    H174504   3.597   0.044   3.727 -1.7015 -1.5844 -1.5238
17671TIP3    H274505   3.510   0.004   3.844  0.6691  0.7446  1.2240
17672TIP3   OH274506   6.801   6.279  10.658  0.1340 -0.0547  0.5544
17672TIP3    H174507   6.826   6.367  10.687  0.6154 -0.2760  0.8158
17672TIP3    H274508   6.868   6.255  10.595 -0.6772  0.2574 -0.4601
17673TIP3   OH274509   4.454   2.896  13.302 -0.1290 -0.3045  0.5797
17673TIP3    H174510   4.544   2.897  13.335 -0.1059 -0.8973  0.5501
17673TIP3    H274511   4.402   2.938  13.371  0.2190  0.3640  0.4372
17674TIP3   OH274512   4.220   1.285  16.967 -0.2353 -0.1995  0.0087
17674TIP3    H174513   4.126   1.269  16.964 -0.1888 -0.3705 -0.7300
17674TIP3    H274514   4.259   1.210  16.922  0.2213  0.1226 -0.1464
17675TIP3   OH274515   2.265   0.835   4.976  0.4557 -0.3908  0.2332
17675TIP3    H174516   2.336   0.852   5.039 -0.6650  2.0657  0.9627
17675TIP3    H274517   2.212   0.767   5.017  0.4984  0.2237  1.3671
17676TIP3   OH274518   5.140   0.264  13.762  0.2883  0.5038 -0.5798
17676TIP3    H174519   5.064   0.300  13.716 -0.8865 -0.2987  0.6668
17676TIP3    H274520   5.170   0.336  13.818  0.8195  1.0028 -1.4798
17677TIP3   OH274521   3.264   6.639   2.514 -0.1673 -0.0414  0.0385
17677TIP3    H174522   3.200   6.703   2.481 -1.4202 -1.3644 -0.2208
17677TIP3    H274523   3.226   6.608   2.597  2.3258  2.3149  2.2551
17678TIP3   OH274524   2.993   1.790  13.528 -0.4879 -0.0416 -0.2850
17678TIP3    H174525   3.072   1.841  13.508  0.2893 -0.7346  0.8844
17678TIP3    H274526   3.024   1.700  13.534 -1.0705 -0.1566  1.6163
17679TIP3   OH274527   6.747   1.142   1.418 -0.2126 -0.1965 -0.0148
17679TIP3    H174528   6.732   1.100   1.334 -1.5722  0.1073  0.0448
17679TIP3    H274529   6.717   1.078   1.483  1.8219 -0.8626  0.3303
17680TIP3   OH274530   2.192   1.396   0.714  0.5682  0.1466  0.0350
17680TIP3    H174531   2.231   1.328   0.769  0.5686 -0.9013 -1.2054
17680TIP3    H274532   2.268   1.446   0.682  0.7542 -0.5955 -0.7187
17681TIP3   OH274533   1.299   2.536   4.835  0.3049  0.6468 -0.4455
17681TIP3    H174534   1.377   2.511   4.885  0.2861  1.4408  0.0030
17681TIP3    H274535   1.228   2.531   4.898 -0.3750 -1.8500 -1.2739
17682TIP3   OH274536   0.120   0.433   0.938 -0.3132  0.1602  0.4094
17682TIP3    H174537   0.155   0.344   0.946  1.6055  0.9079  1.0919
17682TIP3    H274538   0.168   0.484   1.004 -0.8859  1.8233 -0.3886
17683TIP3   OH274539   6.359   4.513  15.793  0.1737  0.0613 -0.2966
17683TIP3    H174540   6.356   4.584  15.856  0.2241 -0.1813 -0.0181
17683TIP3    H274541   6.451   4.488  15.788  0.1088 -0.2273 -0.1146
17684TIP3   OH274542   2.176   4.561  12.517  0.1669  0.1961 -0.5680
17684TIP3    H174543   2.192   4.648  12.555  1.5887  0.2020 -1.1362
17684TIP3    H274544   2.212   4.500  12.581 -1.0492 -0.0118 -0.0554
17685TIP3   OH274545   0.686   6.201   5.547  0.0604 -0.0578 -0.1394
17685TIP3    H174546   0.736   6.179   5.626 -0.7209  0.4114  0.4932
17685TIP3    H274547   0.716   6.289   5.523  1.9306 -1.0251 -1.6880
17686TIP3   OH274548   4.440   3.392  16.584 -0.5361  0.2952 -0.0169
17686TIP3    H174549   4.456   3.298  16.576 -1.0285  0.2201 -0.1541
17686TIP3    H274550   4.355   3.398  16.627  0.0385  0.6857  1.0811
17687TIP3   OH274551   0.982   0.593   0.383  0.0475  0.1740 -0.1636
17687TIP3    H174552   0.888   0.613   0.391 -0.4589 -1.6189 -1.0138
17687TIP3    H274553   1.004   0.620   0.294  0.5893  1.3794  0.3099
17688TIP3   OH274554   1.018   2.823  11.305  0.2818  0.4716 -0.0205
17688TIP3    H174555   1.024   2.903  11.253 -0.5538  1.0772  0.8059
17688TIP3    H274556   1.092   2.828  11.365  0.0769  0.7559  0.2093
17689TIP3   OH274557   3.234   2.234   5.556 -0.0526 -0.5037  0.0257
17689TIP3    H174558   3.310   2.178   5.572  2.3212  2.5405  0.4757
17689TIP3    H274559   3.265   2.297   5.490 -2.4205  0.4674 -0.2452
17690TIP3   OH274560   6.531   5.645  15.914 -0.3144 -0.1174 -0.0153
17690TIP3    H174561   6.464   5.688  15.966 -2.4530 -1.6824 -1.3429
17690TIP3    H274562   6.483   5.602  15.843  2.0919 -1.3897 -0.9827
17691TIP3   OH274563   4.561   4.843   0.774  0.6615 -0.2590 -0.5537
17691TIP3    H174564   4.485   4.894   0.746 -1.1654  0.1821  4.1744
17691TIP3    H274565   4.546   4.755   0.740 -1.7838 -0.0385 -0.1882
17692TIP3   OH274566   5.692   4.171  13.654 -0.0208  0.1461 -0.0224
17692TIP3    H174567   5.752   4.122  13.711 -0.8216 -0.0804  0.6495
17692TIP3    H274568   5.662   4.244  13.708  0.1408  0.6148 -0.5699
17693TIP3   OH274569   2.760   5.509   2.141 -0.1295  0.5028 -0.3313
17693TIP3    H174570   2.666   5.489   2.144 -0.1115  0.4850  0.6643
17693TIP3    H274571   2.791   5.484   2.229  0.6418  1.2962 -0.3770
17694TIP3   OH274572   2.450   2.141   5.037 -0.1019 -0.0501 -0.0520
17694TIP3    H174573   2.417   2.157   4.949  0.8271 -1.9802 -0.8127
17694TIP3    H274574   2.500   2.219   5.059 -1.8275  1.2364 -0.4496
17695TIP3   OH274575   1.354   5.456  14.947  0.1082  0.0811  0.0604
17695TIP3    H174576   1.278   5.423  14.899 -1.0214  2.2354  0.2228
17695TIP3    H274577   1.372   5.390  15.014 -0.6870 -1.1540 -0.9245
17696TIP3   OH274578   5.925   3.874   3.923 -0.1688 -0.2702  0.1356
17696TIP3    H174579   5.984   3.800   3.916 -0.8719 -0.8016 -0.2148
17696TIP3    H274580   5.943   3.911   4.010  0.3837 -0.6678  0.1905
17697TIP3   OH274581   1.342   3.380  12.460 -0.0544  0.0139 -0.0243
17697TIP3    H174582   1.363   3.287  12.471  0.1422  0.2156  1.5607
17697TIP3    H274583   1.270   3.381  12.397  0.4304 -1.1538 -0.6257
17698TIP3   OH274584   3.128   1.034   5.137  0.2529 -0.3720  0.2127
17698TIP3    H174585   3.189   0.961   5.147  0.5712 -0.1294  0.0562
17698TIP3    H274586   3.070   1.027   5.213  0.5463 -0.5375  0.4241
17699TIP3   OH274587   4.167   6.395  12.317  0.1743  0.4060  0.0044
17699TIP3    H174588   4.106   6.411  12.246 -0.6941  3.3872  1.2925
17699TIP3    H274589   4.118   6.339  12.378 -0.1778  0.3415 -0.3333
17700TIP3   OH274590   2.869   6.058  16.969 -0.3186  0.0073  0.2646
17700TIP3    H174591   2.905   5.977  16.932 -2.1507 -1.5136  1.6103
17700TIP3    H274592   2.938   6.123  16.957  0.9602 -1.5815 -1.4635
17701TIP3   OH274593   3.830   2.112   1.823 -0.1266 -0.0111  0.0279
17701TIP3    H174594   3.822   2.205   1.801 -1.1662 -0.3115 -0.9974
17701TIP3    H274595   3.800   2.105   1.913  1.0635  0.8018  0.5079
17702TIP3   OH274596   1.724   6.184   6.001  0.2237  0.3786  0.0146
17702TIP3    H174597   1.681   6.176   5.916 -0.8786  0.3896  0.5513
17702TIP3    H274598   1.786   6.111   6.004  0.1289  0.2616 -0.7112
17703TIP3   OH274599   6.188   6.644   1.567  0.3055 -0.4123 -0.2669
17703TIP3    H174600   6.218   6.723   1.611  0.3862 -1.3182  1.3749
17703TIP3    H274601   6.098   6.632   1.598  0.0544 -0.6064 -1.0383
17704TIP3   OH274602   1.426   2.831   6.639 -0.1212 -0.5111 -0.6581
17704TIP3    H174603   1.508   2.792   6.670 -0.1154 -0.7193 -0.9267
17704TIP3    H274604   1.443   2.926   6.642  0.2242 -0.5576 -0.9468
17705TIP3   OH274605   1.879   3.275   1.108 -0.6237  0.5639  0.0865
17705TIP3    H174606   1.783   3.279   1.105 -0.7570 -1.9947 -1.0874
17705TIP3    H274607   1.900   3.254   1.199 -1.1106  1.7853  0.4965
17706TIP3   OH274608   6.300   4.812   0.000 -0.0521  0.0441  0.3294
17706TIP3    H174609   6.224   4.814  -0.058 -0.1403  0.1881  0.4500
17706TIP3    H274610   6.313   4.719   0.019 -1.9409  0.1542  2.5906
17707TIP3   OH274611   5.314   3.412  14.680  0.6749  0.1256  0.4150
17707TIP3    H174612   5.343   3.321  14.672 -2.7701 -0.9989 -1.4400
17707TIP3    H274613   5.380   3.462  14.632  2.1693 -1.4805  0.6877
17708TIP3   OH274614   0.609   3.411   0.282 -1.0626  0.1098  0.4881
17708TIP3    H174615   0.682   3.430   0.341 -0.6196 -1.3439  0.4315
17708TIP3    H274616   0.629   3.461   0.203  0.0413 -0.4945  0.3658
17709TIP3   OH274617   2.985   2.639  11.157 -0.0673 -0.3795  0.5657
17709TIP3    H174618   2.922   2.577  11.195  0.2996 -2.5935 -2.0894
17709TIP3    H274619   2.932   2.698  11.104 -0.2661  0.7721  1.9665
17710TIP3   OH274620   3.819   6.106  11.840 -0.8025 -0.2159  0.0943
17710TIP3    H174621   3.821   6.193  11.880 -0.3292  0.6047 -1.5964
17710TIP3    H274622   3.903   6.100  11.793 -1.7057 -0.6922 -1.5401
17711TIP3   OH274623   5.127   5.634   3.799 -0.9849 -0.1428  0.2904
17711TIP3    H174624   5.093   5.605   3.884  0.4130 -0.6630  0.6988
17711TIP3    H274625   5.127   5.730   3.805 -1.0583 -0.1722  0.8169
17712TIP3   OH274626   2.561   6.370   5.067  0.7298 -0.7570 -0.5337
17712TIP3    H174627   2.589   6.428   5.137 -0.6218 -1.1548  0.3695
17712TIP3    H274628   2.614   6.397   4.991  1.2637  0.5657  0.2735
17713TIP3   OH274629   3.462   3.240   5.590 -0.1994  0.0958  0.3008
17713TIP3    H174630   3.491   3.199   5.509  0.4994  0.1207  0.5299
17713TIP3    H274631   3.422   3.322   5.562  0.1680  0.1728 -0.0143
17714TIP3   OH274632   1.785   1.194   4.568  0.0450  0.1335  0.1176
17714TIP3    H174633   1.719   1.223   4.631 -0.3563  0.8160 -0.6127
17714TIP3    H274634   1.855   1.158   4.623  0.2659  1.8564  1.0555
17715TIP3   OH274635   3.457   3.079  13.701 -0.0627  0.2390  0.1951
17715TIP3    H174636   3.499   3.078  13.615  0.7771 -0.0106  0.5998
17715TIP3    H274637   3.363   3.082  13.682  0.1346  1.1135 -0.7296
17716TIP3   OH274638   4.287   2.480   4.128 -0.1936  0.7149 -0.6417
17716TIP3    H174639   4.194   2.500   4.142  0.0285  0.8227  0.8896
17716TIP3    H274640   4.323   2.473   4.217  1.1536  0.1496 -1.2118
17717TIP3   OH274641   5.274   5.355   5.638 -0.2349 -0.5871 -0.7339
17717TIP3    H174642   5.295   5.268   5.672  0.2712 -0.2862 -0.2488
17717TIP3    H274643   5.353   5.382   5.591 -0.5798 -0.5982 -1.3186
17718TIP3   OH274644   5.807   3.521  10.942 -0.1146  0.3884 -0.4661
17718TIP3    H174645   5.791   3.615  10.952  0.7162  0.6159 -1.1751
17718TIP3    H274646   5.826   3.491  11.031 -0.0130  0.9704 -0.2846
17719TIP3   OH274647   6.684   6.213  13.350  0.1003  0.2287  0.3615
17719TIP3    H174648   6.723   6.250  13.270 -1.0176 -1.6275 -1.1204
17719TIP3    H274649   6.666   6.289  13.405  1.4124  1.5278 -0.8981
17720TIP3   OH274650   4.408   3.201   4.553  0.1750 -0.0074 -0.1720
17720TIP3    H174651   4.352   3.228   4.480  0.9945 -0.9884 -1.2117
17720TIP3    H274652   4.474   3.270   4.561 -0.1445  0.2878 -0.1136
17721TIP3   OH274653   4.062   1.392  11.014  0.3583 -0.2461  0.2248
17721TIP3    H174654   4.092   1.453  11.082  1.3878 -2.0854  1.5145
17721TIP3    H274655   4.143   1.362  10.972 -0.1783 -0.2455 -0.8291
17722TIP3   OH274656   5.477   2.789  12.518  0.3757 -0.3737  0.1474
17722TIP3    H174657   5.556   2.740  12.538  2.3081  2.6028  0.3522
17722TIP3    H274658   5.480   2.802  12.423 -0.8219 -1.6936 -0.0980
17723TIP3   OH274659   3.791   1.356  13.412  0.8619 -0.0650 -0.2156
17723TIP3    H174660   3.869   1.410  13.426  2.2105 -2.2276  1.1860
17723TIP3    H274661   3.826   1.270  13.391 -1.1663 -1.1569  0.7071
17724TIP3   OH274662   3.058   1.843  10.605 -0.0992  0.2184  0.2173
17724TIP3    H174663   3.125   1.831  10.538 -1.0186  1.4269 -0.9660
17724TIP3    H274664   3.100   1.815  10.686  1.7070  0.5809 -0.5504
17725TIP3   OH274665   1.583   2.349  13.938  0.0567  0.5795 -0.2195
17725TIP3    H174666   1.533   2.284  13.888 -0.3412  0.5984  0.1474
17725TIP3    H274667   1.545   2.345  14.026  0.5033  0.8094 -0.0150
17726TIP3   OH274668   3.157   3.612  11.775  0.1941 -0.4133 -0.0329
17726TIP3    H174669   3.213   3.674  11.820  0.5158 -1.2753  0.7795
17726TIP3    H274670   3.085   3.595  11.837  0.1704 -0.9268 -0.1944
17727TIP3   OH274671   2.929   0.150  14.375 -0.8161  0.4603 -0.7315
17727TIP3    H174672   2.878   0.175  14.298 -2.3835  0.7967  0.3699
17727TIP3    H274673   3.019   0.142  14.342 -1.4363  0.5188 -2.5987
17728TIP3   OH274674   1.445   1.540   3.833 -0.1253 -0.0002  0.4353
17728TIP3    H174675   1.385   1.469   3.854  0.7524 -1.0273 -0.4075
17728TIP3    H274676   1.532   1.502   3.842  0.3509  0.2790 -2.0841
17729TIP3   OH274677   6.285   6.118  12.160  0.8588  0.6437  0.3291
17729TIP3    H174678   6.261   6.028  12.139 -0.9664  1.0509  0.4879
17729TIP3    H274679   6.220   6.145  12.225  0.1575  2.6686 -1.1150
17730TIP3   OH274680   1.015   0.406  12.706 -0.3166  0.1975  0.5205
17730TIP3    H174681   1.109   0.420  12.719 -0.1784  1.0973 -1.1144
17730TIP3    H274682   0.973   0.469  12.765  0.1508  0.7789  0.2453
17731TIP3   OH274683   1.371   5.836   1.308  0.4236  0.9385 -0.4753
17731TIP3    H174684   1.431   5.787   1.365 -0.3835  2.1277  1.5198
17731TIP3    H274685   1.307   5.772   1.279 -1.6951  0.9210  3.5528
17732TIP3   OH274686   5.781   5.346   0.861  0.5258 -0.2314 -0.0002
17732TIP3    H174687   5.710   5.340   0.797  2.0903 -0.6362 -1.7933
17732TIP3    H274688   5.829   5.263   0.851  1.0248 -0.1475  1.4719
17733TIP3   OH274689   2.191   6.306  15.440  0.6508  0.1664  0.5181
17733TIP3    H174690   2.233   6.290  15.355  0.5345  0.4098  0.4150
17733TIP3    H274691   2.181   6.219  15.479  2.1890  0.1759  0.9947
17734TIP3   OH274692   1.859   2.283   3.864  0.1640 -0.5453 -0.4673
17734TIP3    H174693   1.924   2.227   3.906  0.0879  0.0880  0.5376
17734TIP3    H274694   1.909   2.342   3.808  0.5024  0.1245  0.5148
17735TIP3   OH274695   0.286   6.492   3.398  0.0193  0.0860  0.2978
17735TIP3    H174696   0.255   6.445   3.321  2.5758 -2.4677  0.6585
17735TIP3    H274697   0.233   6.457   3.470 -0.7176  0.6920  0.0669
17736TIP3   OH274698   6.304   5.981   5.142 -0.1850 -0.0510  0.5354
17736TIP3    H174699   6.362   6.054   5.166 -0.3590  0.0817  0.5557
17736TIP3    H274700   6.281   5.942   5.226  0.4243 -0.5349  0.4896
17737TIP3   OH274701   5.278   5.833   4.330  0.8129 -0.1500 -0.2435
17737TIP3    H174702   5.330   5.771   4.278 -0.0925 -0.2168 -1.0962
17737TIP3    H274703   5.258   5.786   4.411  0.2057 -0.9617 -0.8430
17738TIP3   OH274704   2.687   4.252   6.010  0.2920 -0.1690  0.3863
17738TIP3    H174705   2.620   4.274   6.075  1.1988  0.0089  1.2861
17738TIP3    H274706   2.770   4.270   6.054  0.9756 -1.5030 -0.2917
17739TIP3   OH274707   4.345   1.595   2.397 -0.3663 -0.4909  0.3745
17739TIP3    H174708   4.263   1.643   2.389 -1.0643 -1.7894 -0.5478
17739TIP3    H274709   4.413   1.663   2.393 -1.3618  0.5320  0.5201
17740TIP3   OH274710   6.546   4.379  10.866 -0.9084  0.6282  0.0946
17740TIP3    H174711   6.580   4.425  10.789 -0.4278  0.2211  0.0601
17740TIP3    H274712   6.479   4.320  10.831 -0.7846  0.5398  0.0073
17741TIP3   OH274713   0.354   2.217  10.630 -0.4936  0.0382 -0.0890
17741TIP3    H174714   0.426   2.191  10.688 -1.4152 -1.4676  0.4479
17741TIP3    H274715   0.367   2.311  10.616  1.4484 -0.1552  0.1426
17742TIP3   OH274716   1.513   4.824  12.998  0.8034  0.1077 -0.1718
17742TIP3    H174717   1.467   4.892  12.948  2.2602  1.6202  0.4630
17742TIP3    H274718   1.445   4.758  13.016 -0.6167  1.2782 -0.9568
17743TIP3   OH274719   4.263   3.548   1.263 -0.1889  0.0150 -0.7507
17743TIP3    H174720   4.240   3.629   1.309  0.1557 -0.4807  0.3107
17743TIP3    H274721   4.179   3.510   1.238 -0.3631  0.5237 -0.9613
17744TIP3   OH274722   3.237   4.194  10.939  0.3596 -0.1347  0.0360
17744TIP3    H174723   3.286   4.209  11.020 -1.0361 -0.7316  1.0341
17744TIP3    H274724   3.197   4.279  10.919  1.1782  0.1624 -0.3666
17745TIP3   OH274725   0.208   5.906   0.756  0.2915 -0.0905  0.0101
17745TIP3    H174726   0.275   5.845   0.789  0.2020  0.8706  2.1022
17745TIP3    H274727   0.134   5.895   0.815 -0.3020  0.9323 -0.5172
17746TIP3   OH274728   4.535   6.037  15.851  0.1727 -0.4103  0.4722
17746TIP3    H174729   4.558   5.969  15.915  1.1453  0.8581  1.5367
17746TIP3    H274730   4.441   6.048  15.861 -0.1265 -2.0311 -0.1942
17747TIP3   OH274731   3.944   1.180   5.202 -0.1300  0.0188 -0.8623
17747TIP3    H174732   4.024   1.230   5.217  1.0656 -1.4713 -1.9597
17747TIP3    H274733   3.908   1.215   5.121  0.6539 -0.8002 -1.5780
17748TIP3   OH274734   3.802   2.232   5.411  0.1797  0.9542 -0.4820
17748TIP3    H174735   3.744   2.306   5.426 -1.7469 -0.9275  2.4307
17748TIP3    H274736   3.749   2.170   5.360  0.9067  0.5775 -0.7975
17749TIP3   OH274737   6.378   0.965   1.990 -0.2970 -0.4485 -0.1418
17749TIP3    H174738   6.375   0.990   2.082  1.4995  1.3290 -0.4950
17749TIP3    H274739   6.342   1.040   1.943  0.4702 -0.5793 -0.9749
17750TIP3   OH274740   4.914   2.761  11.806 -0.2902  0.4039 -0.4531
17750TIP3    H174741   4.923   2.672  11.839  0.0109 -0.0382 -1.7088
17750TIP3    H274742   4.946   2.758  11.716 -0.8984  1.6336 -0.7404
17751TIP3   OH274743   5.654   4.007  16.375  0.0905  0.3041  0.1974
17751TIP3    H174744   5.709   3.953  16.318 -0.1096  0.8959 -0.5753
17751TIP3    H274745   5.649   4.091  16.330  0.3917  0.9744  1.3826
17752TIP3   OH274746   6.052   4.075  11.582 -0.5024 -0.6584  0.0824
17752TIP3    H174747   6.063   4.166  11.611  1.2884  0.2525 -3.0032
17752TIP3    H274748   6.064   4.078  11.487  0.2535 -4.2172 -0.0930
17753TIP3   OH274749   4.673   3.769   2.771 -0.5721 -0.0522  0.6473
17753TIP3    H174750   4.585   3.743   2.743 -0.1844 -2.3735  1.3537
17753TIP3    H274751   4.659   3.851   2.820 -2.0510  0.6754 -0.8868
17754TIP3   OH274752   2.513   4.187  16.234  0.0035  0.0951 -0.4387
17754TIP3    H174753   2.591   4.148  16.194  0.0332 -0.0634 -0.2323
17754TIP3    H274754   2.496   4.265  16.183  1.8224  1.5879  1.0599
17755TIP3   OH274755   3.944   3.062   5.328 -0.1404  0.2508 -0.1806
17755TIP3    H174756   3.998   2.998   5.281 -0.0954 -0.8091  1.2771
17755TIP3    H274757   3.941   3.030   5.418 -0.6426  1.9741  0.4450
17756TIP3   OH274758   3.719   1.900  14.212  0.2303 -0.0983 -0.0670
17756TIP3    H174759   3.688   1.809  14.217  1.7103 -0.8539 -2.4280
17756TIP3    H274760   3.675   1.945  14.283 -1.9855 -2.2587  0.0671
17757TIP3   OH274761   1.643   0.197   5.831 -0.1384  0.0268  0.0053
17757TIP3    H174762   1.645   0.130   5.763 -0.3858 -0.2308  0.2514
17757TIP3    H274763   1.656   0.150   5.913  1.7722  0.5080  0.0354
17758TIP3   OH274764   5.757   3.667  15.451  0.4331 -0.4106 -0.4582
17758TIP3    H174765   5.832   3.626  15.407  0.3701 -0.6942 -0.3013
17758TIP3    H274766   5.745   3.615  15.530 -0.1624 -0.5835 -0.6617
17759TIP3   OH274767   5.976   4.286   5.304 -0.0086 -0.4471  0.4551
17759TIP3    H174768   6.012   4.198   5.288  2.1725  0.4760 -0.0505
17759TIP3    H274769   5.904   4.271   5.366 -0.0662 -2.6431 -0.0522
17760TIP3   OH274770   6.854   5.891   4.897 -0.0240 -0.7124  0.3749
17760TIP3    H174771   6.835   5.842   4.977 -0.6365  2.1114  2.1073
17760TIP3    H274772   6.911   5.963   4.926 -0.6508  0.6782 -1.6038
17761TIP3   OH274773   4.773   0.394  14.750 -0.1431 -0.0605 -0.4001
17761TIP3    H174774   4.752   0.464  14.688  1.0876 -1.1503 -2.1372
17761TIP3    H274775   4.716   0.322  14.725 -0.8007  0.0148  0.8286
17762TIP3   OH274776   4.849   4.644  12.954 -0.0212 -0.3218 -0.4629
17762TIP3    H174777   4.849   4.550  12.937  1.2295 -0.6341  1.0110
17762TIP3    H274778   4.885   4.683  12.875  0.9234 -1.2402 -0.5088
17763TIP3   OH274779   4.431   2.613   0.202 -0.0132  0.3144 -0.4856
17763TIP3    H174780   4.418   2.518   0.208  1.2232  0.1913  1.0059
17763TIP3    H274781   4.507   2.630   0.258  0.1691  2.1188 -1.2085
17764TIP3   OH274782   6.370   6.618  14.377  0.1964 -0.1062 -0.3553
17764TIP3    H174783   6.299   6.558  14.402  0.3819  0.5916  2.1485
17764TIP3    H274784   6.329   6.704  14.373  0.9622  0.4598  2.0741
17765TIP3   OH274785   1.506   5.646   0.519 -0.2175  0.2810 -1.1288
17765TIP3    H174786   1.420   5.670   0.553  0.0486  1.3090 -1.1514
17765TIP3    H274787   1.550   5.729   0.502  0.7216 -0.2257 -1.2858
17766TIP3   OH274788   1.973   2.813   0.845  0.1674  0.7676 -0.0863
17766TIP3    H174789   2.044   2.860   0.800 -0.1766  1.4537  0.0922
17766TIP3    H274790   1.963   2.858   0.929 -0.1696  0.3805  0.0850
17767TIP3   OH274791   5.894   5.165  13.466 -0.1545  0.0529  0.0230
17767TIP3    H174792   5.916   5.097  13.529  0.0591 -0.8721 -1.0128
17767TIP3    H274793   5.831   5.123  13.407  0.0768  0.7132 -0.7052
17768TIP3   OH274794   6.562   5.219   2.243  0.4974 -0.0356 -0.5384
17768TIP3    H174795   6.651   5.230   2.208  0.7095  2.3528  0.5459
17768TIP3    H274796   6.513   5.293   2.207 -0.2973  0.2645  1.0797
17769TIP3   OH274797   3.113   0.593  12.550 -0.3093  0.4642  0.3741
17769TIP3    H174798   3.205   0.584  12.576 -0.7047 -1.0628  1.3662
17769TIP3    H274799   3.064   0.580  12.631 -1.4319  0.9001 -0.2156
17770TIP3   OH274800   3.503   3.151  12.406  0.3609  0.3649 -0.4786
17770TIP3    H174801   3.479   3.243  12.419  2.0935  0.8453 -0.3240
17770TIP3    H274802   3.427   3.102  12.435 -0.4715  1.7468 -0.2116
17771TIP3   OH274803   1.616   5.187  16.070  0.4473 -0.2694 -0.6563
17771TIP3    H174804   1.701   5.230  16.056  1.3101 -2.1727 -1.6322
17771TIP3    H274805   1.589   5.156  15.984  0.5442 -2.7670  0.1016
17772TIP3   OH274806   4.128   0.882  14.820  0.5962  0.1248 -0.2086
17772TIP3    H174807   4.052   0.849  14.772  1.4158 -1.6876 -0.3603
17772TIP3    H274808   4.188   0.912  14.751  0.4115  0.6746 -0.1343
17773TIP3   OH274809   6.191   5.950   4.823  0.2355 -0.2690  0.2994
17773TIP3    H174810   6.160   6.039   4.808 -0.2347 -0.0794  2.1647
17773TIP3    H274811   6.286   5.958   4.827  0.3136 -0.1567 -1.2287
17774TIP3   OH274812   0.725   0.769  11.859  0.5817  0.8062  0.0893
17774TIP3    H174813   0.745   0.699  11.921  1.8892  0.6148 -0.5106
17774TIP3    H274814   0.700   0.724  11.778 -0.9189  1.0551  0.3870
17775TIP3   OH274815   1.038   1.603  12.298 -0.3105  0.0277  0.1622
17775TIP3    H174816   1.051   1.665  12.369 -1.4698 -0.0591  0.4758
17775TIP3    H274817   0.964   1.549  12.326  0.0668 -0.8752 -0.5247
17776TIP3   OH274818   6.501   5.933   5.336  0.4973 -0.1959  0.4631
17776TIP3    H174819   6.411   5.900   5.345  0.4215 -0.2755 -0.5123
17776TIP3    H274820   6.490   6.026   5.314  0.6450 -0.2887 -0.0093
17777TIP3   OH274821   5.861   5.671   0.153  0.1236  0.5847 -0.1911
17777TIP3    H174822   5.879   5.599   0.093  1.4173  0.0036  0.8642
17777TIP3    H274823   5.873   5.750   0.099 -0.1809  0.0566 -1.0573
17778TIP3   OH274824   4.201   3.128   3.208  0.4915  0.0745  0.1124
17778TIP3    H174825   4.187   3.043   3.166 -0.6574 -0.0627  0.7190
17778TIP3    H274826   4.112   3.157   3.231  0.9629  0.9432  0.8682
17779TIP3   OH274827   3.312   3.385  14.167  0.1173 -0.2951 -0.2232
17779TIP3    H174828   3.350   3.459  14.120  0.4010 -1.2960 -1.6033
17779TIP3    H274829   3.336   3.400  14.259  2.2240  0.0902 -0.7861
17780TIP3   OH274830   2.172   2.974  15.162 -0.3413  0.1554 -0.8071
17780TIP3    H174831   2.117   2.961  15.240 -0.0373  2.5356 -0.1350
17780TIP3    H274832   2.209   2.887  15.145 -0.3294 -0.4436  1.7701
17781TIP3   OH274833   1.877   3.126  12.637  0.2086  1.0207 -0.2981
17781TIP3    H174834   1.881   3.068  12.714 -0.9163  2.3846  0.8386
17781TIP3    H274835   1.968   3.153  12.623  0.3485  1.3524  1.0469
17782TIP3   OH274836   6.714   1.635   2.654 -0.1097  0.0968  0.0592
17782TIP3    H174837   6.633   1.598   2.688 -1.0127  1.4120 -0.5910
17782TIP3    H274838   6.686   1.710   2.602  1.3569 -0.6652 -1.9514
17783TIP3   OH274839   1.452   2.918  11.631  0.3357  0.3951 -0.1412
17783TIP3    H174840   1.544   2.913  11.604  0.7614  3.2881  0.3938
17783TIP3    H274841   1.456   2.932  11.725 -0.7342 -0.3908  0.0359
17784TIP3   OH274842   2.066   2.688  10.763  0.3029 -0.3296 -0.4218
17784TIP3    H174843   2.150   2.709  10.721 -0.3168  1.0398 -1.0564
17784TIP3    H274844   2.002   2.698  10.693 -0.5859  0.4705  0.4834
17785TIP3   OH274845   5.066   3.909   1.338 -0.2565  0.0631 -0.0726
17785TIP3    H174846   5.098   3.832   1.291  1.1553  0.5134  0.0964
17785TIP3    H274847   5.051   3.879   1.427  0.8249  0.0825  0.1314
17786TIP3   OH274848   2.649   5.062   5.663 -0.0045 -0.1939  0.5256
17786TIP3    H174849   2.612   5.129   5.606 -1.7742 -1.2987  0.3155
17786TIP3    H274850   2.674   4.991   5.604  1.3135 -0.0088  0.8117
17787TIP3   OH274851   2.844   1.034  12.633  0.1347 -0.3833  0.2457
17787TIP3    H174852   2.871   0.980  12.707  1.7233 -1.2119 -0.8786
17787TIP3    H274853   2.795   0.975  12.576  0.8526 -0.3641 -0.4165
17788TIP3   OH274854   3.945   0.810  14.119 -0.3845  0.2568  0.3033
17788TIP3    H174855   3.905   0.743  14.175  1.9270  0.7916  2.8225
17788TIP3    H274856   4.037   0.809  14.144  0.2558  2.3522 -1.7431
17789TIP3   OH274857   4.838   1.862   2.342 -0.0985  0.0346  0.3350
17789TIP3    H174858   4.767   1.893   2.287 -0.9101 -1.1239  0.6901
17789TIP3    H274859   4.916   1.866   2.286 -1.0021 -1.7620 -1.1863
17790TIP3   OH274860   0.403   1.452   3.096  0.4077 -0.2499 -0.0940
17790TIP3    H174861   0.394   1.357   3.089 -0.8240 -0.0363 -2.1252
17790TIP3    H274862   0.402   1.483   3.005  1.4526  1.6734  0.4869
17791TIP3   OH274863   4.685   1.931  15.333 -0.0777  0.2360  0.2393
17791TIP3    H174864   4.622   1.876  15.287 -0.6776  0.9370  0.2142
17791TIP3    H274865   4.660   2.021  15.311  0.4693  0.5452  0.8307
17792TIP3   OH274866   0.041   6.560   4.373 -0.0749 -0.1157  0.2321
17792TIP3    H174867   0.133   6.555   4.398  0.5251  0.3076 -1.6845
17792TIP3    H274868   0.027   6.653   4.354 -1.2062 -0.0078  1.5166
17793TIP3   OH274869   5.033   3.844  13.197  0.6434  0.2743 -0.9448
17793TIP3    H174870   5.027   3.865  13.103  0.8517  1.0346 -0.7951
17793TIP3    H274871   5.126   3.855  13.217  0.9623 -1.7908 -1.0668
17794TIP3   OH274872   3.017   3.259   0.688 -0.3323 -0.3129 -0.7133
17794TIP3    H174873   2.978   3.308   0.761 -2.2222 -0.8362 -1.3150
17794TIP3    H274874   3.081   3.319   0.651 -0.8011  0.7460  0.1249
17795TIP3   OH274875   6.701   1.828   3.415  0.4210  0.0571  0.2627
17795TIP3    H174876   6.658   1.873   3.342 -0.5463 -1.5030 -0.1895
17795TIP3    H274877   6.786   1.871   3.423  1.6129 -1.1903 -3.4052
17796TIP3   OH274878   1.904   0.396  13.660 -0.1012  0.0304  0.0299
17796TIP3    H174879   1.856   0.315  13.679 -0.1735  0.4135  1.5636
17796TIP3    H274880   1.854   0.465  13.704  1.2881  0.5748  0.8222
17797TIP3   OH274881   2.178   5.487  12.078  0.5905  0.6471 -0.4046
17797TIP3    H174882   2.166   5.507  11.985  0.1212 -0.1150 -0.5174
17797TIP3    H274883   2.172   5.572  12.121  1.2314  1.0620 -1.1066
17798TIP3   OH274884   6.356   5.153  16.148  0.2079 -0.2757  0.1154
17798TIP3    H174885   6.279   5.110  16.184  0.3339 -0.5539  0.0541
17798TIP3    H274886   6.335   5.246  16.151 -0.3762 -0.3779 -0.4596
17799TIP3   OH274887   0.469   5.143   3.857 -0.0740 -0.7720 -0.1685
17799TIP3    H174888   0.485   5.049   3.852  0.5286 -0.6329 -1.1898
17799TIP3    H274889   0.374   5.153   3.854 -0.2048 -1.3946  1.1922
17800TIP3   OH274890   3.298   5.560   2.562 -0.3088  0.4674  0.3168
17800TIP3    H174891   3.271   5.534   2.474 -1.1321 -0.4056  0.8065
17800TIP3    H274892   3.392   5.575   2.555  0.0845 -1.9184 -0.1999
17801TIP3   OH274893   4.149   4.664  12.944  0.4524 -0.2035  0.3119
17801TIP3    H174894   4.100   4.746  12.949  1.1562  0.3005 -0.6811
17801TIP3    H274895   4.095   4.607  12.888 -0.9181 -1.1004  2.4318
17802TIP3   OH274896   2.376   2.325  13.793 -0.0335  0.9032 -0.3042
17802TIP3    H174897   2.336   2.403  13.755 -1.5708  0.1687 -0.2953
17802TIP3    H274898   2.341   2.253  13.740  0.2710  0.1215  0.5324
17803TIP3   OH274899   2.625   4.619   4.586  0.2872 -0.4063  0.0853
17803TIP3    H174900   2.716   4.650   4.591 -0.3373  1.7028 -0.5110
17803TIP3    H274901   2.597   4.614   4.678  0.1640  1.7761  0.2149
17804TIP3   OH274902   6.739   2.752  14.769 -0.3598 -0.1746 -0.3799
17804TIP3    H174903   6.778   2.668  14.793 -0.6770  0.2501  1.8275
17804TIP3    H274904   6.808   2.816  14.783 -0.8372  0.1960  0.3471
17805TIP3   OH274905   6.279   3.251   3.413  0.5233 -0.1009 -0.4424
17805TIP3    H174906   6.341   3.259   3.341  0.3290  2.5675 -0.3906
17805TIP3    H274907   6.237   3.166   3.399  1.5558 -0.3147 -2.5942
17806TIP3   OH274908   5.216   2.289  11.914  0.3196  0.2951  0.0438
17806TIP3    H174909   5.299   2.251  11.885 -0.6014  0.0178 -2.4714
17806TIP3    H274910   5.241   2.355  11.979  2.3731 -0.7184  0.3487
17807TIP3   OH274911   1.698   6.121  14.732 -0.1180 -0.1126  0.4772
17807TIP3    H174912   1.660   6.204  14.759  0.6972  0.1043  1.0252
17807TIP3    H274913   1.630   6.078  14.681 -0.6725  0.7393  0.4823
17808TIP3   OH274914   0.067   4.858  17.058  0.2578  0.0658 -0.3125
17808TIP3    H174915  -0.011   4.806  17.036  0.8743 -0.1050 -2.2902
17808TIP3    H274916   0.043   4.904  17.138 -1.7340 -0.2942 -0.6453
17809TIP3   OH274917   1.143   2.901   0.214 -0.1163 -0.4659 -0.3125
17809TIP3    H174918   1.095   2.973   0.174  0.2275 -0.7370 -1.2440
17809TIP3    H274919   1.229   2.937   0.235  0.1318 -0.6548 -0.9825
17810TIP3   OH274920   4.351   4.250  11.177 -0.0668 -0.5255 -0.1173
17810TIP3    H174921   4.345   4.342  11.202  0.2110  0.0152 -1.9098
17810TIP3    H274922   4.261   4.221  11.168 -0.1552 -0.4619  0.5265
17811TIP3   OH274923   1.025   6.730  13.585 -0.7942 -0.0664  0.9792
17811TIP3    H174924   0.933   6.714  13.608 -0.7388 -1.5764  0.2734
17811TIP3    H274925   1.070   6.649  13.609  0.3099  0.5433  1.0159
17812TIP3   OH274926   4.049   2.820  15.593 -0.4305  0.1561  0.3615
17812TIP3    H174927   4.041   2.736  15.637 -0.6238  0.9360  1.9014
17812TIP3    H274928   4.140   2.825  15.565 -0.7741 -1.1745 -1.0952
17813TIP3   OH274929   2.443   5.097  11.687  0.1185 -0.4449 -0.1574
17813TIP3    H174930   2.501   5.064  11.755  0.2941 -1.1682 -0.6561
17813TIP3    H274931   2.502   5.138  11.623 -0.1074  1.0909  0.5698
17814TIP3   OH274932   2.035   4.764  14.606  0.2843  0.4954 -0.3142
17814TIP3    H174933   1.973   4.826  14.567  0.0975  0.1795 -0.5181
17814TIP3    H274934   2.118   4.812  14.609  0.4282  0.3569 -1.5599
17815TIP3   OH274935   3.766   3.325   3.075 -0.3484  0.1238 -0.0855
17815TIP3    H174936   3.756   3.240   3.033 -0.6677  1.1782 -2.3080
17815TIP3    H274937   3.677   3.360   3.080 -0.1074  0.7836 -0.2343
17816TIP3   OH274938   1.024   2.926  15.706  0.0227 -0.6229 -0.1603
17816TIP3    H174939   1.042   2.928  15.612  0.4134 -0.2537 -0.0771
17816TIP3    H274940   1.059   3.008  15.740  1.9662 -1.7357  0.6674
17817TIP3   OH274941   5.312   0.080   1.608 -0.0176 -0.1271 -0.4867
17817TIP3    H174942   5.295   0.116   1.695 -1.7776 -0.4679 -0.6509
17817TIP3    H274943   5.226   0.058   1.574  0.7163 -0.8855 -1.9523
17818TIP3   OH274944   2.023   3.454  12.517 -0.0665 -0.4232  0.1014
17818TIP3    H174945   2.049   3.374  12.562 -0.6393  1.1052  3.5291
17818TIP3    H274946   2.106   3.496  12.494  0.2358 -1.6697 -1.2188
17819TIP3   OH274947   6.616   6.604   4.925 -0.4084 -0.4919  0.1510
17819TIP3    H174948   6.690   6.639   4.976 -0.8336  1.2496 -0.3478
17819TIP3    H274949   6.591   6.676   4.868 -1.9925 -1.3323 -0.2680
17820TIP3   OH274950   4.796   6.200   2.319  0.1542  1.1312  0.2460
17820TIP3    H174951   4.703   6.184   2.333  0.2790 -0.2553 -0.3705
17820TIP3    H274952   4.801   6.249   2.237 -0.0333  1.4027  0.3944
17821TIP3   OH274953   0.908   4.809  11.275  0.2278 -0.2836 -0.0922
17821TIP3    H174954   0.916   4.730  11.329  1.7025 -0.3170 -0.3029
17821TIP3    H274955   0.864   4.780  11.196 -0.5981 -0.5603  0.4585
17822TIP3   OH274956   0.520   2.291   0.957  0.3550  0.0450  0.0562
17822TIP3    H174957   0.542   2.383   0.974 -1.9062  0.4689  1.1739
17822TIP3    H274958   0.536   2.248   1.041  0.6921 -0.4496 -0.2578
17823TIP3   OH274959   2.935   6.521   3.201 -0.3294 -0.2497 -0.0299
17823TIP3    H174960   3.000   6.452   3.198  0.1293  0.1606  0.2710
17823TIP3    H274961   2.968   6.583   3.266 -0.8965  0.0860 -0.0470
17824TIP3   OH274962   6.122   3.076  13.754 -0.5928  0.4198 -0.6155
17824TIP3    H174963   6.182   3.019  13.802  0.4846  1.0787 -1.1290
17824TIP3    H274964   6.065   3.016  13.706  0.1507 -0.2279 -0.7085
17825TIP3   OH274965   0.404   6.342  14.179  0.0893 -0.1344 -0.0795
17825TIP3    H174966   0.343   6.415  14.190  1.0330  0.7378 -0.4561
17825TIP3    H274967   0.442   6.328  14.266 -0.3485 -0.4110  0.0675
17826TIP3   OH274968   2.430   2.462   0.563  0.5354  0.1443 -0.4529
17826TIP3    H174969   2.368   2.530   0.590 -2.4945 -2.4132 -0.4531
17826TIP3    H274970   2.403   2.439   0.474  0.9156 -1.6222 -0.1437
17827TIP3   OH274971   5.742   1.072   3.079  0.1402  0.0767 -0.2572
17827TIP3    H174972   5.799   1.140   3.114 -0.6358  0.6044  0.0214
17827TIP3    H274973   5.678   1.119   3.026 -1.4489 -0.2057  1.3098
17828TIP3   OH274974   3.262   2.563  14.398  0.4097  0.0179 -0.1135
17828TIP3    H174975   3.243   2.560  14.491  0.3439 -1.7571 -0.1560
17828TIP3    H274976   3.266   2.657  14.377 -2.2488  0.4912  1.1026
17829TIP3   OH274977   0.984   2.707   3.485 -0.0419 -0.6564  0.1242
17829TIP3    H174978   1.019   2.702   3.396  0.4533 -1.4547  0.3584
17829TIP3    H274979   0.889   2.699   3.474 -0.0529  0.0789 -0.3954
17830TIP3   OH274980   2.513   6.681   2.453  0.2784  0.3949  0.0729
17830TIP3    H174981   2.504   6.586   2.461  0.5967  0.4186  0.7863
17830TIP3    H274982   2.432   6.709   2.410 -0.5920 -0.0018  1.4081
17831TIP3   OH274983   0.710   2.957   0.227  0.0913  0.2367 -0.3709
17831TIP3    H174984   0.661   3.037   0.209 -2.3769 -1.3226 -1.2023
17831TIP3    H274985   0.798   2.974   0.195 -0.6842  2.2196 -1.6045
17832TIP3   OH274986   6.235   3.482   0.826  0.2662 -0.0743 -0.1810
17832TIP3    H174987   6.178   3.431   0.884  0.0932 -0.4882 -0.7074
17832TIP3    H274988   6.175   3.538   0.776  0.4062  0.2023 -0.0433
17833TIP3   OH274989   6.628   0.936  16.786 -0.0562  0.2327 -0.1058
17833TIP3    H174990   6.699   0.919  16.847 -0.8216  1.3629  1.1492
17833TIP3    H274991   6.575   1.004  16.828 -1.2449  0.2423 -1.5162
17834TIP3   OH274992   5.802   2.730   0.988  0.1726 -0.2212 -0.1227
17834TIP3    H174993   5.804   2.741   0.893 -0.6728 -1.5311 -0.3277
17834TIP3    H274994   5.773   2.815   1.022  1.3745  0.5456 -0.9533
17835TIP3   OH274995   2.005   3.694  14.678  0.2676 -0.0052  0.4112
17835TIP3    H174996   1.931   3.632  14.675  0.9556 -0.8559  0.5297
17835TIP3    H274997   1.964   3.780  14.674 -0.7576 -0.4557  0.7413
17836TIP3   OH274998   3.152   1.539   4.340 -0.2647  0.4557  0.9749
17836TIP3    H174999   3.173   1.503   4.426 -0.0963  0.3370  0.8865
17836TIP3    H275000   3.095   1.473   4.300 -0.7406  0.7357  1.1801
17837TIP3   OH275001   2.821   5.275  15.543 -0.5446  0.2629 -0.0121
17837TIP3    H175002   2.734   5.282  15.583 -0.1980  1.8239  0.5119
17837TIP3    H275003   2.830   5.354  15.491  0.7378  0.3184  0.2733
17838TIP3   OH275004   0.712   2.904  11.049  0.0991  0.0654 -0.1102
17838TIP3    H175005   0.704   2.894  11.144 -1.9619  1.0137 -0.1340
17838TIP3    H275006   0.756   2.987  11.037 -1.0885  0.7460  0.0556
17839TIP3   OH275007   2.774   3.301   2.170 -0.1309  0.3110 -0.3704
17839TIP3    H175008   2.804   3.382   2.129 -1.4436  1.0221  0.0158
17839TIP3    H275009   2.680   3.313   2.183 -0.9490 -2.3249 -2.7379
17840TIP3   OH275010   6.709   0.263  14.251 -0.3180  0.0346 -0.2747
17840TIP3    H175011   6.685   0.218  14.331 -0.4810  0.2944 -0.1774
17840TIP3    H275012   6.668   0.349  14.258  0.9793  0.6532  0.0946
17841TIP3   OH275013   6.793   2.843  13.386 -0.1425  0.2241  0.0006
17841TIP3    H175014   6.711   2.805  13.353 -0.2997  0.3434  0.2497
17841TIP3    H275015   6.765   2.921  13.433  0.0350 -0.2185  0.8449
17842TIP3   OH275016   5.464   2.152  13.900  0.0380 -0.4678  0.2292
17842TIP3    H175017   5.460   2.176  13.808 -0.3971 -0.2752  0.2925
17842TIP3    H275018   5.395   2.086  13.911  0.2955 -0.7183  0.3501
17843TIP3   OH275019   6.388   6.541  12.629  0.0456  0.0369 -0.4731
17843TIP3    H175020   6.317   6.559  12.690 -1.5899  1.3151 -2.5873
17843TIP3    H275021   6.345   6.502  12.553  1.8967 -0.9226 -1.1025
17844TIP3   OH275022   5.883   1.787   6.475 -0.0600 -0.4528 -0.6236
17844TIP3    H175023   5.835   1.722   6.424  0.3666 -1.2374 -0.0398
17844TIP3    H275024   5.856   1.871   6.438  0.0993 -0.9879 -2.0194
17845TIP3   OH275025   5.447   4.325  15.483 -0.2270  0.0582  0.0390
17845TIP3    H175026   5.529   4.293  15.521  0.3542  0.4959 -0.8130
17845TIP3    H275027   5.394   4.350  15.559  0.5886  0.1475  0.5978
17846TIP3   OH275028   6.558   5.433  16.949  0.7122 -0.5264 -0.8563
17846TIP3    H175029   6.606   5.400  17.025  2.1084  0.2711 -1.3549
17846TIP3    H275030   6.466   5.420  16.972  1.1224 -1.2863  0.5098
17847TIP3   OH275031   6.834   5.435  14.546  0.0278  0.1932 -0.1171
17847TIP3    H175032   6.925   5.433  14.575  0.3036  0.1062 -0.9865
17847TIP3    H275033   6.791   5.495  14.608  1.0341  1.6176 -0.7528
17848TIP3   OH275034   1.139   1.487  11.754 -0.2325 -0.2224 -0.3689
17848TIP3    H175035   1.172   1.524  11.671 -1.4532 -0.5862 -1.0327
17848TIP3    H275036   1.216   1.447  11.794  0.9189  2.0268 -0.1562
17849TIP3   OH275037   5.958   5.409   4.217  0.6119 -0.2807 -0.2927
17849TIP3    H175038   6.041   5.435   4.177 -0.0240  0.4878 -1.1401
17849TIP3    H275039   5.913   5.360   4.148 -0.1691  0.3973 -0.2713
17850TIP3   OH275040   1.852   0.854  13.035 -0.5374  0.0740  0.1828
17850TIP3    H175041   1.777   0.860  12.976 -0.5148  1.7122  0.2672
17850TIP3    H275042   1.886   0.944  13.039  1.4573 -0.6250  0.1139
17851TIP3   OH275043   5.981   5.639  14.411  0.2615  0.0555 -0.9392
17851TIP3    H175044   5.968   5.696  14.335 -0.9297 -0.0468 -0.8277
17851TIP3    H275045   6.044   5.573  14.381  1.0330  0.9500 -1.3234
17852TIP3   OH275046   3.861   4.391  16.099  0.4185 -0.9411 -0.3408
17852TIP3    H175047   3.792   4.454  16.117  0.6189 -0.6814 -0.4753
17852TIP3    H275048   3.942   4.441  16.109  0.5643 -1.0480 -0.9590
17853TIP3   OH275049   6.030   5.707  15.411 -0.2538  0.1385  0.2996
17853TIP3    H175050   5.963   5.769  15.440 -0.7801 -0.0155 -0.5495
17853TIP3    H275051   6.006   5.686  15.321 -0.3898 -1.7015  0.7228
17854TIP3   OH275052   5.325   5.889  12.932 -0.2987 -0.0994  1.2702
17854TIP3    H175053   5.243   5.911  12.976 -0.2194  0.5126  1.1290
17854TIP3    H275054   5.298   5.844  12.852 -0.5569  0.9507  0.7371
17855TIP3   OH275055   5.611   4.355   3.189  0.2249 -0.8491 -0.3248
17855TIP3    H175056   5.611   4.294   3.115 -0.5286 -1.5266  0.2227
17855TIP3    H275057   5.685   4.329   3.242  1.1876  0.0713 -1.1665
17856TIP3   OH275058   5.814   1.334   1.806  0.3241 -0.1690  0.0024
17856TIP3    H175059   5.731   1.293   1.780 -0.5549  0.9677  0.8988
17856TIP3    H275060   5.879   1.265   1.795 -0.9322 -1.4906  0.4560
17857TIP3   OH275061   2.068   5.680  14.899 -0.4805 -0.2602 -0.3789
17857TIP3    H175062   2.113   5.642  14.974 -2.9212 -2.9289 -0.1451
17857TIP3    H275063   2.030   5.761  14.933 -2.0246 -1.6880  1.5181
17858TIP3   OH275064   0.550   2.062   1.818 -0.1470 -0.0262 -0.6849
17858TIP3    H175065   0.461   2.046   1.848 -0.6326 -1.2983 -2.6022
17858TIP3    H275066   0.590   1.976   1.814  1.2886  0.5545  0.3822
17859TIP3   OH275067   6.828   1.853   5.477  0.2771  0.1867 -0.0633
17859TIP3    H175068   6.904   1.815   5.522  1.5513  0.7206 -1.6595
17859TIP3    H275069   6.759   1.853   5.543  0.7522 -3.0416  0.6323
17860TIP3   OH275070   1.657   2.039  13.684 -0.4567  0.6676  0.0490
17860TIP3    H175071   1.729   2.090  13.721  0.0790  0.8573 -1.1892
17860TIP3    H275072   1.662   1.955  13.730  0.2445  0.8605  0.3473
17861TIP3   OH275073   4.850   5.706  12.341 -0.4004 -0.2744  0.3790
17861TIP3    H175074   4.869   5.753  12.422  0.6927  0.1247 -0.0963
17861TIP3    H275075   4.856   5.773  12.272  0.6978 -1.0028 -0.2503
17862TIP3   OH275076   4.625   0.361   1.444 -0.5787  0.2062 -0.3707
17862TIP3    H175077   4.672   0.382   1.363 -0.3240  0.3550 -0.1855
17862TIP3    H275078   4.544   0.412   1.438 -1.8021 -1.7317 -1.7381
17863TIP3   OH275079   4.187   1.960   0.314 -0.3368  0.2120 -0.2400
17863TIP3    H175080   4.265   2.006   0.343 -1.8288  2.7268  0.0555
17863TIP3    H275081   4.214   1.915   0.233  1.3780  1.0406 -0.1693
17864TIP3   OH275082   4.658   1.752   5.409 -0.3033  0.1191  0.4588
17864TIP3    H175083   4.694   1.835   5.377  1.3132 -0.0050  1.8467
17864TIP3    H275084   4.608   1.777   5.487  0.5736 -0.2491  1.1487
17865TIP3   OH275085   5.591   0.134  12.542  0.1767  0.0287  0.0130
17865TIP3    H175086   5.561   0.097  12.625 -0.5895  1.0712  0.2237
17865TIP3    H275087   5.686   0.122  12.543  0.0267 -1.2078  0.4110
17866TIP3   OH275088   3.260   2.565  10.530 -0.0034  0.0128 -0.1507
17866TIP3    H175089   3.202   2.533  10.461  0.8776 -1.7192 -0.1495
17866TIP3    H275090   3.337   2.597  10.482  0.1573 -0.2026 -0.0397
17867TIP3   OH275091   4.319   3.311   5.217 -0.1435 -0.2137  0.1511
17867TIP3    H175092   4.334   3.405   5.228 -0.9226 -0.2012  1.2848
17867TIP3    H275093   4.406   3.274   5.209  0.1518  0.6835 -1.1540
17868TIP3   OH275094   1.170   6.584   5.429 -0.2754  0.1162 -0.1356
17868TIP3    H175095   1.259   6.607   5.455  1.0668 -2.2137 -2.1547
17868TIP3    H275096   1.114   6.648   5.473  2.2923  1.0687  1.9960
17869TIP3   OH275097   2.908   6.338  12.790 -0.6232 -0.3778 -0.2897
17869TIP3    H175098   2.936   6.375  12.874 -1.2342 -0.8192  0.1074
17869TIP3    H275099   2.875   6.413  12.741 -0.4044 -0.1420 -0.0793
17870TIP3   OH275100   0.210   2.425   3.062 -0.4341 -0.0445  0.3411
17870TIP3    H175101   0.213   2.368   2.986 -0.8155 -1.0494  1.0566
17870TIP3    H275102   0.299   2.458   3.072 -0.1984 -0.5593 -0.0522
17871TIP3   OH275103   4.038   2.324  11.709  0.3471 -0.3435  0.1121
17871TIP3    H175104   3.997   2.410  11.704  0.8128 -0.0235  1.3971
17871TIP3    H275105   4.052   2.298  11.618 -1.4526  0.1245 -0.3379
17872TIP3   OH275106   6.084   1.231   6.432 -0.0231  0.1101 -0.0761
17872TIP3    H175107   6.085   1.305   6.492 -1.5890 -0.3487  0.5860
17872TIP3    H275108   6.167   1.235   6.386  0.3934  1.6021  0.7626
17873TIP3   OH275109   4.711   2.296  11.983 -0.0612  0.1400  0.1618
17873TIP3    H175110   4.697   2.349  11.904 -0.7491  0.5509  0.5449
17873TIP3    H275111   4.799   2.260  11.972  0.3845  1.2641 -0.1782
17874TIP3   OH275112   6.326   4.476   4.091 -0.1169 -0.1114 -0.0167
17874TIP3    H175113   6.326   4.386   4.058  0.1761  0.0444 -0.4511
17874TIP3    H275114   6.251   4.518   4.048 -1.5893 -0.7049  1.7917
17875TIP3   OH275115   3.142   0.679  11.198  0.0374 -0.4767  0.3674
17875TIP3    H175116   3.137   0.753  11.137  0.1086 -0.4413  0.4048
17875TIP3    H275117   3.170   0.718  11.281 -0.5131 -0.4575  0.5457
17876TIP3   OH275118   3.765   4.902   2.464  1.0910 -0.3447 -0.3074
17876TIP3    H175119   3.676   4.927   2.439  0.7621 -0.9883  0.1828
17876TIP3    H275120   3.766   4.910   2.560  1.5098 -0.5075 -0.2962
17877TIP3   OH275121   5.971   1.519  10.637  0.4740  0.4283 -0.8514
17877TIP3    H175122   6.019   1.457  10.692 -0.9429 -1.0397 -1.1898
17877TIP3    H275123   5.987   1.490  10.547 -1.6601 -0.6268 -0.9418
17878TIP3   OH275124   4.349   6.541   2.343 -0.0364 -0.1810 -0.1556
17878TIP3    H175125   4.372   6.634   2.344 -0.0761 -0.1529 -1.2083
17878TIP3    H275126   4.352   6.516   2.251 -1.2218 -0.9340 -0.0167
17879TIP3   OH275127   0.127   5.020   4.006 -0.0710  0.0650 -0.1289
17879TIP3    H175128   0.172   5.103   4.024 -1.9686  0.9339  0.8534
17879TIP3    H275129   0.046   5.045   3.963 -1.6890 -1.0713  2.0772
17880TIP3   OH275130   1.512   6.561   5.931  0.3082  0.0642  0.0029
17880TIP3    H175131   1.584   6.503   5.907 -1.0729 -1.3588 -0.9419
17880TIP3    H275132   1.485   6.532   6.017  0.0643 -0.2420 -0.1756
17881TIP3   OH275133   6.009   2.608   4.118  0.5647 -0.4233  0.2535
17881TIP3    H175134   6.030   2.614   4.211  0.4725 -1.8299  0.3767
17881TIP3    H275135   5.914   2.616   4.114  0.7170  2.9606 -0.0567
17882TIP3   OH275136   3.156   0.989   3.774 -0.2518 -0.4725 -0.2783
17882TIP3    H175137   3.177   0.963   3.684 -0.9426 -0.9554 -0.3054
17882TIP3    H275138   3.199   1.074   3.785  0.4714 -0.7527 -0.8128
17883TIP3   OH275139   5.207   6.629  12.222 -0.2239  0.2570 -0.2641
17883TIP3    H175140   5.146   6.656  12.154 -0.5566 -0.9025 -0.4484
17883TIP3    H275141   5.173   6.545  12.252  1.0877 -0.2374 -0.1154
17884TIP3   OH275142   1.012   6.733  16.660 -0.0597  0.3337 -0.1072
17884TIP3    H175143   0.998   6.643  16.692  0.8410  0.0430 -0.5056
17884TIP3    H275144   0.928   6.756  16.619 -0.4129 -0.1984  0.2880
17885TIP3   OH275145   5.047   5.256  12.134 -0.0554  0.7408 -0.5880
17885TIP3    H175146   4.962   5.239  12.095 -0.2654 -2.6944  1.0576
17885TIP3    H275147   5.028   5.283  12.223  0.5361 -0.5707 -0.0435
17886TIP3   OH275148   1.452   6.391  16.365  0.5018  0.3318  0.3532
17886TIP3    H175149   1.507   6.377  16.288 -0.1779 -1.6302  0.1692
17886TIP3    H275150   1.396   6.465  16.341 -1.1634 -1.5108 -1.9991
17887TIP3   OH275151   6.718   3.292  12.988  0.1670  0.0443 -0.4566
17887TIP3    H175152   6.740   3.333  13.072  1.9474  1.0226 -1.3290
17887TIP3    H275153   6.709   3.365  12.927 -0.5566 -0.6771 -1.2520
17888TIP3   OH275154   6.653   2.201   1.716  0.3292  0.2009 -0.7642
17888TIP3    H175155   6.695   2.260   1.779 -0.1521 -0.7491  0.4999
17888TIP3    H275156   6.592   2.257   1.668 -0.3217  0.7096  0.5898
17889TIP3   OH275157   3.696   3.457  16.114  0.2147  0.0552 -0.0130
17889TIP3    H175158   3.776   3.452  16.062  1.5648 -0.1933  1.9953
17889TIP3    H275159   3.666   3.548  16.104  2.2069  0.9009  1.2213
17890TIP3   OH275160   6.320   3.888   4.808 -0.0923 -0.2401 -0.2619
17890TIP3    H175161   6.328   3.983   4.798 -1.3820  0.1037  1.4435
17890TIP3    H275162   6.356   3.852   4.727  0.1853  1.7104 -1.0596
17891TIP3   OH275163   3.227   2.842  12.674  0.1721  0.6461 -0.4646
17891TIP3    H175164   3.137   2.871  12.658 -0.4713 -0.0476  1.4962
17891TIP3    H275165   3.217   2.757  12.718  1.7045  1.0976  0.8644
17892TIP3   OH275166   4.596   4.195  11.383 -0.1664 -0.6055 -0.2304
17892TIP3    H175167   4.570   4.190  11.291  0.0566 -0.4095 -0.3062
17892TIP3    H275168   4.688   4.223  11.381 -0.2597 -0.2660  0.0576
17893TIP3   OH275169   6.425   0.180   3.395 -0.0752 -0.3521 -0.3775
17893TIP3    H175170   6.335   0.165   3.365 -0.6532 -0.5267  1.3196
17893TIP3    H275171   6.436   0.120   3.468  1.0952  0.3627  0.0615
17894TIP3   OH275172   2.199   0.620  12.463 -0.3411 -0.3685  0.1484
17894TIP3    H175173   2.186   0.546  12.522  0.0441  0.4236  1.2408
17894TIP3    H275174   2.274   0.594  12.409 -0.5123 -0.9648  0.1840
17895TIP3   OH275175   3.954   6.096   2.906 -0.1506  0.2782  0.0587
17895TIP3    H175176   3.917   6.180   2.934 -0.8980  0.2038 -0.6394
17895TIP3    H275177   3.886   6.059   2.850 -0.3710 -1.3870  1.3652
17896TIP3   OH275178   1.148   0.604  12.341 -0.3005 -0.3399  0.9441
17896TIP3    H175179   1.171   0.515  12.313 -1.4460 -0.6851  1.0499
17896TIP3    H275180   1.206   0.620  12.416  0.2556 -0.8038  0.6265
17897TIP3   OH275181   2.015   2.717  11.563  0.9400 -0.1068  0.0492
17897TIP3    H175182   2.037   2.645  11.623 -0.5033 -1.3086 -0.7687
17897TIP3    H275183   2.008   2.674  11.478  1.6806  1.3398 -0.7579
17898TIP3   OH275184   0.187   1.285   4.532  0.0941 -0.0129 -0.3562
17898TIP3    H175185   0.131   1.348   4.486  0.2068  0.0316 -0.4347
17898TIP3    H275186   0.263   1.337   4.559  1.0513 -0.4742 -1.9930
17899TIP3   OH275187   1.150   4.355   0.250  0.1274 -0.3282  0.0188
17899TIP3    H175188   1.093   4.284   0.280 -1.2873  0.8717  0.2376
17899TIP3    H275189   1.181   4.396   0.331 -0.6973  0.5583 -0.0946
17900TIP3   OH275190   1.020   1.163  15.708  0.4686  0.2225  0.0564
17900TIP3    H175191   1.115   1.162  15.696  0.4482 -0.0589 -0.0948
17900TIP3    H275192   0.986   1.208  15.631  0.5090  0.7162  0.3270
17901TIP3   OH275193   4.051   5.023  13.111 -0.0261  0.6851 -0.2386
17901TIP3    H175194   4.124   5.042  13.052 -0.2077  1.9278 -0.0800
17901TIP3    H275195   3.980   5.079  13.080 -0.8795 -0.3710 -0.2732
17902TIP3   OH275196   4.851   6.304  15.286 -0.2664  0.2185  0.0334
17902TIP3    H175197   4.757   6.318  15.273 -0.0028  0.4531 -1.9051
17902TIP3    H275198   4.878   6.255  15.209  0.9387 -1.2586  1.3224
17903TIP3   OH275199   3.411   0.754   6.000 -0.5766  0.4085  0.5937
17903TIP3    H175200   3.345   0.795   6.055 -1.1714 -0.1761  0.3333
17903TIP3    H275201   3.416   0.664   6.031 -1.5663 -0.1757 -0.8638
17904TIP3   OH275202   6.481   6.145   2.832 -0.1505 -0.0777 -1.0734
17904TIP3    H175203   6.465   6.090   2.755 -2.5234  2.4185 -2.5452
17904TIP3    H275204   6.413   6.212   2.828  1.6212  2.0693  1.4474
17905TIP3   OH275205   4.843   5.789   4.446  0.1897  0.0061  0.4965
17905TIP3    H175206   4.817   5.699   4.430 -0.6049  0.2265  0.5208
17905TIP3    H275207   4.791   5.816   4.522 -1.1184  1.1305 -0.7307
17906TIP3   OH275208   4.289   1.372  11.234 -0.5518 -0.6508  0.2939
17906TIP3    H175209   4.286   1.359  11.139  0.9975  0.5099  0.0354
17906TIP3    H275210   4.335   1.455  11.245 -1.0667 -0.5628  2.0646
17907TIP3   OH275211   2.660   4.716  13.543  0.4820  0.0445  0.4910
17907TIP3    H175212   2.590   4.651  13.539 -0.0258  0.5925  0.3505
17907TIP3    H275213   2.615   4.799  13.556  1.1160  0.3942  0.4922
17908TIP3   OH275214   3.335   1.327   1.254  0.1217 -0.1145 -0.0398
17908TIP3    H175215   3.297   1.287   1.332  1.6620  0.6828  1.1818
17908TIP3    H275216   3.370   1.253   1.203 -1.3587 -0.6847 -0.2862
17909TIP3   OH275217   5.733   1.814  11.026  0.9651 -0.8783 -0.5808
17909TIP3    H175218   5.666   1.832  10.959 -1.3470 -1.4298  1.4265
17909TIP3    H275219   5.734   1.719  11.033  2.7546 -0.9381 -1.2529
17910TIP3   OH275220   2.599   3.130  13.473 -0.1468  0.1805  0.3088
17910TIP3    H175221   2.638   3.055  13.519 -1.5920 -0.3390  0.7413
17910TIP3    H275222   2.615   3.204  13.531 -1.9645 -0.4689  1.7320
17911TIP3   OH275223   6.320   4.557   0.655  0.2192  0.4476  0.0126
17911TIP3    H175224   6.383   4.511   0.600 -1.5577 -0.2720 -1.5449
17911TIP3    H275225   6.344   4.649   0.647  1.1452  0.1776 -0.4527
17912TIP3   OH275226   6.243   6.552   0.445 -0.1263  0.3146 -0.9540
17912TIP3    H175227   6.293   6.580   0.368  0.7327  0.0910 -0.4978
17912TIP3    H275228   6.302   6.568   0.519 -0.9576  0.5763 -0.3303
17913TIP3   OH275229   3.617   4.253   4.473 -0.1788  0.2121 -0.0623
17913TIP3    H175230   3.682   4.254   4.543  1.2959 -2.6268 -1.1975
17913TIP3    H275231   3.565   4.175   4.489 -0.3071 -0.0749 -1.6400
17914TIP3   OH275232   3.407   0.000  12.800  0.2217  0.4121  0.1837
17914TIP3    H175233   3.339  -0.032  12.858 -1.3028  0.6621 -1.3774
17914TIP3    H275234   3.474  -0.069  12.800 -0.0456  0.1134  1.6537
17915TIP3   OH275235   5.731   5.859  11.011  0.9071  0.0683 -0.3115
17915TIP3    H175236   5.650   5.831  11.055  0.9012  0.4911 -0.0482
17915TIP3    H275237   5.715   5.841  10.918  0.2837  0.6751 -0.3292
17916TIP3   OH275238   0.383   1.831  15.043  0.2113 -0.0622  0.6123
17916TIP3    H175239   0.471   1.861  15.019 -0.8442  2.3282 -0.5437
17916TIP3    H275240   0.385   1.826  15.138  1.0110  2.0510  0.7494
17917TIP3   OH275241   1.969   6.057   4.358 -0.3654  0.7352 -0.5156
17917TIP3    H175242   1.934   6.110   4.430 -0.8938  1.3079 -1.1824
17917TIP3    H275243   2.036   6.112   4.318 -0.3704  0.5890 -0.7259
17918TIP3   OH275244   0.823   2.076   3.148 -0.3760 -0.9103 -0.2903
17918TIP3    H175245   0.853   2.063   3.058 -1.9559 -1.5317 -0.7567
17918TIP3    H275246   0.817   1.987   3.185 -1.5499 -0.8139 -0.2059
17919TIP3   OH275247   3.262   5.596   1.813 -0.0280  0.8244 -0.1445
17919TIP3    H175248   3.228   5.636   1.893  1.1108  0.5066  0.5112
17919TIP3    H275249   3.232   5.506   1.816 -0.2952  0.9082 -0.2644
17920TIP3   OH275250   5.804   1.841   2.489  0.0233 -0.2546 -0.0470
17920TIP3    H175251   5.710   1.860   2.495  0.1938  0.4899  0.4521
17920TIP3    H275252   5.813   1.753   2.524 -0.4763 -0.2947 -0.0062
17921TIP3   OH275253   1.403   4.675  13.464 -0.4724 -0.0591 -0.5374
17921TIP3    H175254   1.424   4.674  13.370  0.4313 -2.1697 -0.3718
17921TIP3    H275255   1.473   4.728  13.503 -0.1013 -0.2560 -0.9181
17922TIP3   OH275256   6.619   2.102   4.479  0.4141  0.4645 -0.3069
17922TIP3    H175257   6.666   2.144   4.551 -0.1957  0.1672  0.2750
17922TIP3    H275258   6.642   2.154   4.402  0.2154  1.4546  0.2776
17923TIP3   OH275259   0.484   5.677   4.379 -0.0090  0.0507 -0.1016
17923TIP3    H175260   0.516   5.614   4.444  1.8341  1.5275  0.4835
17923TIP3    H275261   0.449   5.749   4.431 -1.0106  0.0760 -0.7805
17924TIP3   OH275262   3.188   1.005  13.002 -0.0133 -0.1980  0.2184
17924TIP3    H175263   3.260   1.060  13.033 -0.6116  0.9232 -0.3564
17924TIP3    H275264   3.181   1.025  12.909  1.8657 -3.6084 -0.8562
17925TIP3   OH275265   1.060   4.667  11.009 -0.5902  0.3633 -0.3385
17925TIP3    H175266   1.108   4.716  11.075 -0.7289 -1.2947  1.0520
17925TIP3    H275267   0.968   4.685  11.027 -0.7714 -1.9622  1.5833
17926TIP3   OH275268   5.385   4.371   0.991  0.1823  0.0227 -0.3135
17926TIP3    H175269   5.330   4.430   1.042  1.3580  0.7116  0.2179
17926TIP3    H275270   5.465   4.362   1.043  0.5557 -0.9958 -1.0199
17927TIP3   OH275271   3.372   3.029  14.523 -0.3639  0.5482 -0.3806
17927TIP3    H175272   3.410   3.041  14.435  1.6494  1.1320  0.5112
17927TIP3    H275273   3.444   3.047  14.583 -1.6110 -0.1561  1.4173
17928TIP3   OH275274   2.571   6.271  13.247 -0.3483 -0.1091 -0.0024
17928TIP3    H175275   2.644   6.215  13.223 -0.1390  0.6015 -1.1359
17928TIP3    H275276   2.507   6.212  13.287  0.7194 -0.7836  0.7675
17929TIP3   OH275277   0.713   6.555   0.503 -0.1196 -0.1340  0.6870
17929TIP3    H175278   0.693   6.645   0.479  0.0102 -0.4469 -0.6317
17929TIP3    H275279   0.742   6.561   0.594 -1.2339  0.9920  0.9979
17930TIP3   OH275280   0.662   4.856   3.064 -0.2032 -0.0073 -0.2678
17930TIP3    H175281   0.653   4.951   3.049  1.0464  0.4253  1.3714
17930TIP3    H275282   0.737   4.831   3.011 -1.0005 -0.2535 -1.2978
17931TIP3   OH275283   6.676   6.706   0.144  0.2755  0.1416 -0.2913
17931TIP3    H175284   6.679   6.746   0.231  0.5594 -0.2740 -0.1087
17931TIP3    H275285   6.768   6.694   0.120  0.1927 -0.1484 -0.4633
17932TIP3   OH275286   6.768   1.946  13.235  0.4622 -0.7438  0.2598
17932TIP3    H175287   6.730   2.010  13.294 -0.7117  1.0284 -2.2086
17932TIP3    H275288   6.860   1.972  13.227  0.3282 -0.2353  0.3511
17933TIP3   OH275289   5.645   3.007  15.389  0.3471  0.1594 -0.0885
17933TIP3    H175290   5.635   2.964  15.474  0.2408  0.5379  0.0953
17933TIP3    H275291   5.668   3.097  15.411  1.3993 -0.0068 -0.4796
17934TIP3   OH275292   6.229   0.241   5.556 -0.2154  0.2454 -0.3677
17934TIP3    H175293   6.140   0.236   5.521 -0.0514  1.5606 -1.0542
17934TIP3    H275294   6.285   0.228   5.479  0.1746  0.5748 -0.1393
17935TIP3   OH275295   2.864   1.027  13.315  0.6050  0.2819 -0.1948
17935TIP3    H175296   2.783   0.994  13.276  1.3605 -0.9934 -0.7596
17935TIP3    H275297   2.836   1.095  13.375 -0.6954  1.7897 -2.3512
17936TIP3   OH275298   3.009   5.565  16.329  0.4405  0.0365  0.7208
17936TIP3    H175299   2.980   5.587  16.240 -0.6386  0.4970  1.1721
17936TIP3    H275300   2.935   5.589  16.385  1.7896  1.5297  1.9480
17937TIP3   OH275301   2.998   0.254   2.464  0.7167  0.4178 -0.2048
17937TIP3    H175302   3.086   0.235   2.431 -0.2290  0.4239 -3.0308
17937TIP3    H275303   2.990   0.201   2.544  2.3207 -1.7979 -1.4041
17938TIP3   OH275304   4.209   0.530  14.843 -0.2787  0.3906  0.4651
17938TIP3    H175305   4.139   0.596  14.834 -0.3463  0.3292  0.5364
17938TIP3    H275306   4.287   0.581  14.866 -0.4370  0.4028  1.0064
17939TIP3   OH275307   6.370   2.052  14.440  0.0001 -0.0058  0.2855
17939TIP3    H175308   6.400   2.046  14.531  0.3439 -0.7985  0.1360
17939TIP3    H275309   6.299   1.988  14.434  0.0465 -0.0306 -0.0210
17940TIP3   OH275310   0.986   0.967  11.083 -0.6422 -0.1010 -0.0852
17940TIP3    H175311   0.943   1.035  11.032  1.8301  2.2146  0.6619
17940TIP3    H275312   1.020   0.905  11.018  2.9743  3.0820 -1.5599
17941TIP3   OH275313   0.416   5.468   3.294  0.0315  0.1003  0.1672
17941TIP3    H175314   0.481   5.406   3.327 -0.2572  0.2328  1.0146
17941TIP3    H275315   0.333   5.433   3.326 -0.4568 -0.6324 -1.7579
17942TIP3   OH275316   2.531   1.214   4.995  0.7275  0.1068  0.1958
17942TIP3    H175317   2.495   1.279   4.935 -1.4307 -0.0010  1.2561
17942TIP3    H275318   2.516   1.130   4.951  1.6706  0.1667 -0.2776
17943TIP3   OH275319   3.723   4.623   4.914 -0.6360 -0.3553 -0.2907
17943TIP3    H175320   3.774   4.703   4.900  0.1705 -0.8354 -0.1712
17943TIP3    H275321   3.676   4.609   4.832 -1.3203  0.6084 -0.0773
17944TIP3   OH275322   5.752   2.090   0.172 -0.0312  0.3322  0.0051
17944TIP3    H175323   5.725   2.015   0.120 -0.2925 -0.6293  1.4774
17944TIP3    H275324   5.820   2.057   0.230  0.5426  1.4690  0.0087
17945TIP3   OH275325   1.890   0.052   1.873 -0.4405  0.5380  0.1138
17945TIP3    H175326   1.846   0.108   1.808 -0.0275  1.3414  0.5140
17945TIP3    H275327   1.967   0.018   1.827 -1.2383 -0.5672 -0.4658
17946TIP3   OH275328   2.067   0.968  12.699  0.1647 -0.7040  0.1387
17946TIP3    H175329   2.163   0.960  12.696  0.2351 -1.7786  2.9098
17946TIP3    H275330   2.041   0.918  12.776 -2.8507 -1.9996 -1.5651
17947TIP3   OH275331   6.105   0.318  15.952 -0.5117  0.0619 -0.3033
17947TIP3    H175332   6.061   0.402  15.937  0.3771  0.3142 -1.7302
17947TIP3    H275333   6.054   0.254  15.903 -0.3172  0.0448 -0.4868
17948TIP3   OH275334   3.911   0.092   5.576 -0.1536  0.2485 -0.3441
17948TIP3    H175335   3.903   0.004   5.611  0.2100  0.3082 -0.1165
17948TIP3    H275336   3.857   0.091   5.496 -1.3430  0.2361  0.4267
17949TIP3   OH275337   3.494   0.201   2.921 -0.0108 -0.4642  0.6767
17949TIP3    H175338   3.537   0.157   2.848  0.8652 -0.3325  1.0951
17949TIP3    H275339   3.551   0.183   2.996 -0.5867 -0.1057  1.2089
17950TIP3   OH275340   3.336   0.407   1.478  0.2328 -0.3288 -0.5979
17950TIP3    H175341   3.375   0.386   1.563  0.8282  0.1851 -0.7337
17950TIP3    H275342   3.411   0.410   1.417  0.0182  0.8222 -0.8360
17951TIP3   OH275343   5.929   4.210  12.632 -0.4366  0.3774  1.1172
17951TIP3    H175344   5.921   4.280  12.697 -1.5804 -0.7512  2.2677
17951TIP3    H275345   6.020   4.214  12.603 -0.9677  3.6980 -0.5059
17952TIP3   OH275346   1.853   1.631  12.962 -0.1652  0.0854  0.5811
17952TIP3    H175347   1.842   1.580  12.882  0.4969 -0.0296  0.5578
17952TIP3    H275348   1.769   1.676  12.974 -0.3840 -0.1668  0.0166
17953TIP3   OH275349   0.102   2.282   5.009  0.9758 -0.3731  0.1829
17953TIP3    H175350   0.106   2.269   5.103 -0.9545 -0.3976  0.3109
17953TIP3    H275351   0.084   2.194   4.973 -1.2967  0.0613  0.1048
17954TIP3   OH275352   1.580   4.575  16.633  0.0996 -0.1092 -0.2056
17954TIP3    H175353   1.507   4.632  16.607 -0.1492 -0.3388 -0.0187
17954TIP3    H275354   1.610   4.610  16.717 -0.9289 -1.0435  0.5837
17955TIP3   OH275355   1.607   3.846  15.037 -0.2278  0.5202  0.4688
17955TIP3    H175356   1.625   3.798  14.957  2.2173  2.5025 -0.3185
17955TIP3    H275357   1.607   3.779  15.106 -1.3775 -1.0925 -1.0196
17956TIP3   OH275358   4.610   0.708   0.826  0.1424 -0.1377  0.4299
17956TIP3    H175359   4.607   0.672   0.915 -1.1167 -1.2378 -0.0260
17956TIP3    H275360   4.692   0.757   0.823  0.3581 -0.3348  2.0991
17957TIP3   OH275361   3.120   5.136  15.840  0.4236 -0.1123 -0.2885
17957TIP3    H175362   3.073   5.114  15.759 -1.1535 -1.3900  0.9082
17957TIP3    H275363   3.180   5.063  15.854  0.0086 -0.3746  0.1697
17958TIP3   OH275364   6.387   5.555  15.694  0.1033 -0.8834  0.4624
17958TIP3    H175365   6.329   5.527  15.624  0.2670 -2.5625  0.9470
17958TIP3    H275366   6.471   5.571  15.652  0.1893 -1.8458  0.2504
17959TIP3   OH275367   3.316   5.748   0.551  0.0297  0.1344 -0.0657
17959TIP3    H175368   3.329   5.829   0.600  0.6023 -0.2362  0.4095
17959TIP3    H275369   3.403   5.708   0.548 -0.6162 -1.5189  1.5948
17960TIP3   OH275370   0.125   1.335  11.860 -0.2988 -0.1566 -0.1987
17960TIP3    H175371   0.139   1.269  11.792  0.3052 -2.7352  2.2275
17960TIP3    H275372   0.036   1.321  11.890 -0.8879  1.5941 -0.9946
17961TIP3   OH275373   0.563   6.670   1.261  0.3469  0.1011  0.2196
17961TIP3    H175374   0.637   6.610   1.253 -0.0068 -0.2223 -0.7883
17961TIP3    H275375   0.543   6.671   1.355  1.1509 -0.3787  0.4088
17962TIP3   OH275376   1.201   5.022   5.043  0.0247  0.0039 -0.9540
17962TIP3    H175377   1.236   5.103   5.007  0.0844 -0.1204 -1.1774
17962TIP3    H275378   1.141   5.050   5.112 -2.2281  0.3675 -2.9255
17963TIP3   OH275379   4.376   6.118   3.965 -0.8034  0.0601  0.0551
17963TIP3    H175380   4.290   6.086   3.992 -0.5577  0.2425  1.1050
17963TIP3    H275381   4.372   6.119   3.869 -0.3689 -4.2907 -0.1630
17964TIP3   OH275382   5.200   1.073   5.705 -0.5535 -0.2696 -0.5153
17964TIP3    H175383   5.154   1.004   5.752 -0.2136 -0.5847 -0.6444
17964TIP3    H275384   5.241   1.029   5.630 -0.0275 -0.0009 -0.3931
17965TIP3   OH275385   2.904   5.846   1.436  0.1051  0.6068  0.4953
17965TIP3    H175386   2.981   5.797   1.464  0.7450  1.0676 -0.4175
17965TIP3    H275387   2.853   5.784   1.384  0.6272  0.7390 -0.1767
17966TIP3   OH275388   5.377   1.840  17.025  0.3254  0.5174 -0.4975
17966TIP3    H175389   5.420   1.876  16.948 -0.4590 -0.0781 -1.2258
17966TIP3    H275390   5.400   1.747  17.024 -1.3416  0.0785 -1.1815
17967TIP3   OH275391   6.285   5.233   0.792  0.2930  0.3793  0.0499
17967TIP3    H175392   6.223   5.256   0.861 -0.5793  1.0237 -0.9241
17967TIP3    H275393   6.306   5.317   0.750 -1.1860 -0.2725 -2.1135
17968TIP3   OH275394   4.442   6.862  12.443 -0.2839  0.0638  0.2709
17968TIP3    H175395   4.410   6.773  12.458 -1.3986  0.6955  2.0287
17968TIP3    H275396   4.472   6.862  12.353 -0.5074 -2.0161  0.1476
17969TIP3   OH275397   2.046   5.949  12.548  0.1130 -0.5773  0.2355
17969TIP3    H175398   1.955   5.937  12.519 -0.2881  0.2719  1.1101
17969TIP3    H275399   2.060   6.043  12.546 -0.0947 -0.4127  3.2200
17970TIP3   OH275400   5.133   6.827  11.634 -0.5697  0.2604  0.5546
17970TIP3    H175401   5.048   6.851  11.670 -0.9046 -1.3845  0.9322
17970TIP3    H275402   5.192   6.898  11.661 -2.0015  1.9917 -0.6517
17971TIP3   OH275403   2.399   4.850   1.777  0.3490 -1.0351 -0.0449
17971TIP3    H175404   2.441   4.764   1.781 -0.3379 -1.4112 -0.5425
17971TIP3    H275405   2.408   4.885   1.865  4.0616  0.1062 -0.7020
17972TIP3   OH275406   3.871   0.045  11.645 -0.5444 -0.2495 -0.6855
17972TIP3    H175407   3.852   0.122  11.592  1.1656  0.5682 -0.1771
17972TIP3    H275408   3.873   0.078  11.735  1.1362 -0.6534 -0.5404
17973TIP3   OH275409   1.752   4.964  16.796  0.1846  0.0742  0.4233
17973TIP3    H175410   1.817   4.953  16.726  0.0208  0.8199  0.1510
17973TIP3    H275411   1.800   5.008  16.866  0.6827 -1.7368  1.2880
17974TIP3   OH275412   4.254   0.088   6.038 -0.0801  0.2550  0.0145
17974TIP3    H175413   4.163   0.113   6.024  0.2594 -0.0504 -3.9416
17974TIP3    H275414   4.300   0.170   6.055 -0.7420  0.7589 -0.5771
17975TIP3   OH275415   2.652   1.542   5.339 -0.2238 -0.6023 -0.0822
17975TIP3    H175416   2.564   1.525   5.306 -0.4065  1.0119 -0.5405
17975TIP3    H275417   2.691   1.456   5.351 -0.5836 -1.3495 -3.3983
17976TIP3   OH275418   5.968   4.151  15.659 -0.0263  0.4746  0.3523
17976TIP3    H175419   6.000   4.237  15.632 -1.9038  1.2760  0.5861
17976TIP3    H275420   5.921   4.118  15.582  2.7282 -1.5200 -0.6663
17977TIP3   OH275421   5.558   2.570  15.411 -0.0985 -0.3645 -0.1467
17977TIP3    H175422   5.464   2.582  15.394 -0.0707  0.3511  0.1765
17977TIP3    H275423   5.599   2.581  15.325 -0.2814 -0.4174 -0.2426
17978TIP3   OH275424   1.946   4.084   3.567  0.3515  0.3548 -0.2618
17978TIP3    H175425   1.941   4.170   3.609  2.1794 -0.2513  1.3578
17978TIP3    H275426   1.914   4.023   3.634 -0.0120 -0.3267 -1.0420
17979TIP3   OH275427   6.017   2.048  13.127  0.2067  0.6075  0.3415
17979TIP3    H175428   6.055   1.998  13.055 -1.3898  0.4139 -0.4135
17979TIP3    H275429   6.038   2.139  13.107  0.7565  0.4598  0.2488
17980TIP3   OH275430   2.604   2.881  16.142  0.0696  0.2921  0.1471
17980TIP3    H175431   2.526   2.936  16.132 -0.0869  0.4213  1.7862
17980TIP3    H275432   2.587   2.829  16.220  1.6979  0.4649  0.6654
17981TIP3   OH275433   1.395   1.796  15.189 -0.2426  0.3821  0.1944
17981TIP3    H175434   1.422   1.779  15.099 -1.0542 -0.7774  0.1515
17981TIP3    H275435   1.411   1.890  15.201  3.5093 -0.0878  0.1077
17982TIP3   OH275436   5.255   5.319   3.798 -0.4074  0.4933  0.0221
17982TIP3    H175437   5.304   5.247   3.838  0.0127  1.0025  0.4495
17982TIP3    H275438   5.224   5.284   3.715  1.7357  0.5296 -0.8695
17983TIP3   OH275439   6.301   0.735  10.449 -0.1764  0.8426  0.2151
17983TIP3    H175440   6.292   0.805  10.514  0.0819 -0.5465  1.8079
17983TIP3    H275441   6.212   0.701  10.438 -0.7988  2.9473 -2.4656
17984TIP3   OH275442   0.206   2.916   3.047  0.4020 -0.1466 -0.0502
17984TIP3    H175443   0.299   2.933   3.061  1.3204 -1.2515 -3.6471
17984TIP3    H275444   0.203   2.823   3.023 -1.4470  0.1510 -1.1213
17985TIP3   OH275445   0.627   4.754   3.613  0.6830 -0.6010 -0.4536
17985TIP3    H175446   0.613   4.799   3.529 -1.3365  0.7671  0.5267
17985TIP3    H275447   0.611   4.662   3.595  0.8378 -0.4029 -1.6684
17986TIP3   OH275448   6.015   1.529   3.578  0.2839  0.1377  0.5278
17986TIP3    H175449   5.943   1.522   3.514 -0.4437  0.1331  1.3219
17986TIP3    H275450   6.085   1.573   3.531  0.7214 -2.1337 -1.0767
17987TIP3   OH275451   5.941   6.856   3.420 -0.1635  0.0843  0.3775
17987TIP3    H175452   5.872   6.921   3.408  0.6181  0.7911 -0.4228
17987TIP3    H275453   5.905   6.795   3.485 -1.1585  0.9588  0.6822
17988TIP3   OH275454   1.321   2.873  13.380 -0.7287 -0.0376  0.1136
17988TIP3    H175455   1.357   2.935  13.444  0.7369  0.3070 -1.0028
17988TIP3    H275456   1.228   2.894  13.376 -0.9892 -0.4443  2.5400
17989TIP3   OH275457   4.707   6.761  14.103  0.0779 -1.1421  0.1156
17989TIP3    H175458   4.627   6.794  14.143  0.8152  1.1335 -0.1240
17989TIP3    H275459   4.777   6.794  14.159  0.9476 -1.4099 -0.7730
17990TIP3   OH275460   5.648   6.593   1.013  0.4283  0.4545 -0.1790
17990TIP3    H175461   5.553   6.604   1.024  0.2727  1.1362 -1.8815
17990TIP3    H275462   5.669   6.515   1.064 -0.9898  0.4856  0.5058
17991TIP3   OH275463   1.960   1.495  13.201  0.3197  0.1342 -0.1734
17991TIP3    H175464   1.927   1.563  13.142 -0.4709  1.2564  1.4755
17991TIP3    H275465   1.918   1.415  13.171  1.2879  0.3143 -2.1792
17992TIP3   OH275466   4.402   4.830  13.432  0.0358  0.2664 -0.7194
17992TIP3    H175467   4.478   4.847  13.376 -0.8904  0.3120 -1.9942
17992TIP3    H275468   4.391   4.911  13.482  0.0005  0.7702 -1.5304
17993TIP3   OH275469   1.796   4.315   2.660 -0.0652  0.6663  0.1670
17993TIP3    H175470   1.703   4.331   2.641 -0.0920 -0.8684 -1.2499
17993TIP3    H275471   1.826   4.260   2.587  2.2666  2.0365 -0.0016
17994TIP3   OH275472   4.791   2.315  15.406 -0.3836  0.0249 -0.1768
17994TIP3    H175473   4.760   2.247  15.346 -0.6500 -0.9216  0.9988
17994TIP3    H275474   4.711   2.361  15.434 -0.2107  0.8260 -0.9268
17995TIP3   OH275475   6.105   0.137   3.137  0.3784  0.1100  1.2471
17995TIP3    H175476   6.098   0.197   3.063  1.0778  0.3166  1.3363
17995TIP3    H275477   6.088   0.050   3.101 -1.2174  0.4092  1.2220
17996TIP3   OH275478   1.324   3.110  11.034  0.2817  0.1216 -0.0523
17996TIP3    H175479   1.331   3.205  11.044  2.5358 -0.0502  0.7088
17996TIP3    H275480   1.332   3.076  11.123  1.6100 -0.8219 -0.4963
17997TIP3   OH275481   3.925   5.687   2.832  0.3554 -0.2343  0.0171
17997TIP3    H175482   3.924   5.719   2.922 -1.4934  0.4524 -0.2032
17997TIP3    H275483   3.835   5.697   2.802  1.1874  0.8573 -2.3565
17998TIP3   OH275484   6.261   4.555   1.950 -0.5188  0.3254  0.2858
17998TIP3    H175485   6.325   4.501   1.996  0.8557  2.0638  0.5238
17998TIP3    H275486   6.287   4.549   1.858 -1.9219 -1.3809 -0.0504
17999TIP3   OH275487   2.132   1.783   4.993  0.8359  0.0366 -0.2178
17999TIP3    H175488   2.214   1.806   4.948  1.5635 -0.8156  0.6319
17999TIP3    H275489   2.124   1.848   5.062  0.5301  0.4181 -0.6088
18000TIP3   OH275490   0.738   2.269  12.760 -0.0856 -0.0946 -0.1509
18000TIP3    H175491   0.656   2.298  12.800 -0.1063  1.5294 -1.2507
18000TIP3    H275492   0.774   2.349  12.719 -0.3879 -1.6412 -3.8763
18001TIP3   OH275493   2.381   5.276  14.476  0.1229  0.3533 -0.0815
18001TIP3    H175494   2.340   5.252  14.392 -0.1264  0.9414 -0.1332
18001TIP3    H275495   2.362   5.369  14.486  0.8435  0.4751  0.2429
18002TIP3   OH275496   0.664   1.955  11.628 -0.5754  0.1169  0.1437
18002TIP3    H175497   0.705   1.928  11.546  0.3375  0.0212  0.6263
18002TIP3    H275498   0.679   1.881  11.687  2.2901  1.7119  1.6161
18003TIP3   OH275499   6.855   1.743   2.873  0.3161  0.0285 -0.3331
18003TIP3    H175500   6.811   1.689   2.807 -0.7823  1.8823 -1.1874
18003TIP3    H275501   6.849   1.691   2.954 -0.4764 -1.2233 -1.1587
18004TIP3   OH275502   0.708   4.712   2.158 -0.6070 -0.9559  0.1781
18004TIP3    H175503   0.700   4.788   2.216  2.0002  0.5890 -1.3224
18004TIP3    H275504   0.785   4.665   2.190  0.6610 -0.2793 -1.7336
18005TIP3   OH275505   3.933   5.441   1.456  0.0982 -0.6155  0.0128
18005TIP3    H175506   3.910   5.384   1.530  2.4735 -0.9105  0.6033
18005TIP3    H275507   3.932   5.529   1.492  1.0977 -0.7450  0.3811
18006TIP3   OH275508   2.983   3.906   4.006  0.1774  0.9044 -0.7061
18006TIP3    H175509   3.008   3.852   4.081 -0.4821  1.2815 -0.1979
18006TIP3    H275510   3.005   3.996   4.033 -0.2265  1.0593 -0.8832
18007TIP3   OH275511   1.363   4.734  16.567 -0.5347 -1.3450 -0.3734
18007TIP3    H175512   1.355   4.821  16.606 -0.0355 -1.3475 -0.2571
18007TIP3    H275513   1.277   4.694  16.580 -0.7646 -0.8716 -0.4221
18008TIP3   OH275514   0.553   4.503   2.071 -0.4996  1.0662 -0.1591
18008TIP3    H175515   0.603   4.566   2.123 -0.8314  0.7868  0.5015
18008TIP3    H275516   0.518   4.441   2.135 -1.4488  1.0853 -0.6506
18009TIP3   OH275517   3.723   5.555  12.066 -0.0830 -0.7476  0.3580
18009TIP3    H175518   3.744   5.613  12.139  0.6475 -0.4204 -0.0976
18009TIP3    H275519   3.669   5.608  12.008 -1.3311 -1.2596  1.0271
18010TIP3   OH275520   0.790   3.353  16.640 -0.0209 -0.2548  0.4124
18010TIP3    H175521   0.723   3.378  16.576 -0.3028  1.0667  1.2034
18010TIP3    H275522   0.810   3.433  16.687  0.7665 -1.0412  1.4612
18011TIP3   OH275523   6.320   4.897  14.095  0.0006 -0.4526 -0.2801
18011TIP3    H175524   6.244   4.841  14.082 -0.1673 -0.1252 -0.7310
18011TIP3    H275525   6.309   4.932  14.184  0.1223 -1.1501  0.0124
18012TIP3   OH275526   1.350   3.912   2.389 -0.1088 -0.5512  0.2822
18012TIP3    H175527   1.290   3.898   2.316  0.1191  0.3077 -0.0716
18012TIP3    H275528   1.314   3.988   2.435  0.9983  0.3178 -0.2459
18013TIP3   OH275529   4.332   0.613   4.830 -0.1506 -0.1247 -0.2150
18013TIP3    H175530   4.285   0.568   4.901 -0.6854 -0.3545 -0.7072
18013TIP3    H275531   4.282   0.592   4.751 -0.2962  1.1822 -0.4906
18014TIP3   OH275532   5.816   6.187   1.386  0.2932 -0.1768  0.4189
18014TIP3    H175533   5.795   6.108   1.336  1.2276  0.0735 -0.4077
18014TIP3    H275534   5.900   6.215   1.351  0.3385  0.7523  1.2452
18015TIP3   OH275535   4.415   6.064  12.708  0.5392 -0.9470  0.1841
18015TIP3    H175536   4.408   6.031  12.618 -2.1893 -1.8361  0.6335
18015TIP3    H275537   4.350   6.134  12.713  1.0773 -0.5073  1.3223
18016TIP3   OH275538   0.892   1.162  10.934 -0.1162  0.3269  0.2728
18016TIP3    H175539   0.906   1.150  10.840 -1.5466 -1.2142  0.2104
18016TIP3    H275540   0.809   1.209  10.939 -1.3631 -1.8175  0.7595
18017TIP3   OH275541   4.001   5.889  11.017 -0.3686  0.5239 -0.0765
18017TIP3    H175542   3.938   5.818  11.003 -0.2425  0.6581 -1.4014
18017TIP3    H275543   3.953   5.953  11.070 -1.3283  0.5730 -0.9748
18018TIP3   OH275544   1.081   3.563   0.559 -0.5501  0.3392 -0.0239
18018TIP3    H175545   1.133   3.483   0.570  0.0781  0.3097 -2.4892
18018TIP3    H275546   1.089   3.609   0.642  1.0987 -1.0262  0.6355
18019TIP3   OH275547   5.075   0.029  12.520 -0.0299  0.0074 -0.0368
18019TIP3    H175548   5.080   0.044  12.615 -1.0075  0.4875 -0.0467
18019TIP3    H275549   5.162  -0.003  12.496  0.2965  0.0904  0.9880
18020TIP3   OH275550   1.656   6.623  11.375  0.3720 -0.7716  0.1866
18020TIP3    H175551   1.662   6.600  11.282  1.9770  0.1541  0.0300
18020TIP3    H275552   1.742   6.657  11.397  0.1239 -1.2880  2.1241
18021TIP3   OH275553   4.687   2.857  12.219  0.0908  0.5657  0.1171
18021TIP3    H175554   4.717   2.822  12.303 -1.7343 -2.4760 -0.3687
18021TIP3    H275555   4.621   2.923  12.243  0.7988  0.9463  1.0623
18022TIP3   OH275556   0.106   2.322   3.798  0.2269  0.5679  0.0456
18022TIP3    H175557   0.132   2.253   3.737 -0.8550  0.4060 -0.2702
18022TIP3    H275558   0.105   2.402   3.745 -0.8036  0.4118 -0.2009
18023TIP3   OH275559   0.948   5.705   4.484 -0.0654  0.4271 -0.3183
18023TIP3    H175560   0.893   5.672   4.413  0.8097  1.2066 -1.3832
18023TIP3    H275561   0.888   5.716   4.557 -0.6387 -2.3227 -0.2497
18024TIP3   OH275562   5.404   6.806   0.961 -0.1535 -0.0371 -0.1104
18024TIP3    H175563   5.480   6.851   0.998 -1.8573  0.7152  2.7396
18024TIP3    H275564   5.369   6.868   0.896 -0.1233  1.0122  0.8423
18025TIP3   OH275565   6.215   2.492  12.153 -0.5159 -0.5037  0.1344
18025TIP3    H175566   6.260   2.424  12.203 -2.6641 -0.6639  1.9650
18025TIP3    H275567   6.212   2.458  12.063  1.4949 -1.1883  0.2759
18026TIP3   OH275568   4.237   6.320  13.665 -0.3854 -0.1489  0.3311
18026TIP3    H175569   4.218   6.414  13.670  2.1927  0.4266  1.3272
18026TIP3    H275570   4.239   6.291  13.756 -1.3351 -1.2482  0.0194
18027TIP3   OH275571   2.658   5.812  13.793 -0.5660  0.1174 -0.2059
18027TIP3    H175572   2.704   5.850  13.868 -1.0205 -0.1037  0.1885
18027TIP3    H275573   2.724   5.807  13.724  0.4501 -1.6884  0.8347
18028TIP3   OH275574   3.000   0.609   5.380 -0.0279 -0.0847  0.0623
18028TIP3    H175575   2.984   0.515   5.384 -0.4462 -0.0052  0.3083
18028TIP3    H275576   2.954   0.638   5.301 -0.4020  0.0052  0.3080
18029TIP3   OH275577   2.873   1.626  15.467  0.2297 -0.8923  0.1119
18029TIP3    H175578   2.879   1.542  15.511 -0.2507 -1.9122 -1.6627
18029TIP3    H275579   2.808   1.613  15.398  1.2494  0.4355 -1.1913
18030TIP3   OH275580   1.505   6.725  12.687  0.2175  0.3940  0.4625
18030TIP3    H175581   1.462   6.806  12.657  1.6014  1.5271  1.3817
18030TIP3    H275582   1.534   6.746  12.776  0.3449 -1.2439  0.8287
18031TIP3   OH275583   4.046   2.797   4.067 -0.2203  0.3542  0.5430
18031TIP3    H175584   4.100   2.731   4.111  0.5096  0.5573 -0.0243
18031TIP3    H275585   4.033   2.763   3.979  0.0201  0.8782  0.2985
18032TIP3   OH275586   2.636   1.985  16.443 -0.1772  0.3425 -0.5763
18032TIP3    H175587   2.652   1.990  16.537  0.0505 -0.8872 -0.5415
18032TIP3    H275588   2.719   2.011  16.403  0.0575 -0.1632 -0.4270
18033TIP3   OH275589   0.116   3.741  13.857  0.4207 -0.5171 -0.6312
18033TIP3    H175590   0.167   3.821  13.859  1.2358 -1.0203  0.6326
18033TIP3    H275591   0.026   3.769  13.875  0.7850  0.0806  0.3600
18034TIP3   OH275592   6.001   4.757   1.238  0.2804  0.6235 -0.1929
18034TIP3    H175593   6.043   4.837   1.208 -1.1949  1.3739 -0.3829
18034TIP3    H275594   6.032   4.745   1.328  0.6779  1.2814 -0.2409
18035TIP3   OH275595   1.047   3.158   5.880  0.4279 -0.9457 -0.7838
18035TIP3    H175596   1.044   3.230   5.942  1.1956 -2.5890  1.2740
18035TIP3    H275597   0.958   3.154   5.843 -0.3583 -0.5451  0.9846
18036TIP3   OH275598   3.167   2.622   1.073  0.1640 -0.5181  0.3233
18036TIP3    H175599   3.260   2.640   1.067  0.0661  0.3370  1.1668
18036TIP3    H275600   3.161   2.535   1.113  0.5938 -0.5496  0.3196
18037TIP3   OH275601   2.462   3.053  11.950 -0.3847  0.0152  0.3294
18037TIP3    H175602   2.410   3.107  11.890 -2.8431 -2.1471  0.3289
18037TIP3    H275603   2.422   2.967  11.945  1.7531 -1.2080  2.2609
18038TIP3   OH275604   5.378   2.174   2.122  0.6158  0.3454 -0.9119
18038TIP3    H175605   5.334   2.213   2.047  1.1271 -0.0069 -1.4073
18038TIP3    H275606   5.320   2.192   2.196 -0.9702 -1.1507 -1.7280
18039TIP3   OH275607   2.587   5.213   2.020 -0.2246  0.5630  0.3040
18039TIP3    H175608   2.561   5.295   2.063  0.1944  1.4634 -1.0672
18039TIP3    H275609   2.512   5.189   1.965 -0.2577  0.1516  0.5272
18040TIP3   OH275610   5.904   1.323  13.708  0.2386 -0.3548  0.7014
18040TIP3    H175611   5.946   1.240  13.729  0.4664  0.0115  1.7756
18040TIP3    H275612   5.903   1.371  13.791 -1.5453 -0.0120  0.5237
18041TIP3   OH275613   3.971   2.770   1.038  0.2027 -0.1091  0.2249
18041TIP3    H175614   4.056   2.802   1.009  0.8039 -0.2522  1.7158
18041TIP3    H275615   3.988   2.681   1.071 -0.6704 -0.4310 -0.1447
18042TIP3   OH275616   5.687   1.693  14.346 -0.1719  0.3844 -0.0256
18042TIP3    H175617   5.591   1.698  14.343 -0.4059 -0.6787  2.7925
18042TIP3    H275618   5.706   1.605  14.378  1.7593  0.6224 -0.3783
18043TIP3   OH275619   0.778   6.038  14.071  0.6186  0.3871 -0.2714
18043TIP3    H175620   0.779   6.110  14.008  1.4555  0.9600  0.3731
18043TIP3    H275621   0.737   6.075  14.150 -0.0317 -0.1965 -0.3235
18044TIP3   OH275622   2.852   4.266   3.049 -0.2820 -0.2203  0.1044
18044TIP3    H175623   2.789   4.323   3.093 -0.9815 -0.5148 -0.4991
18044TIP3    H275624   2.926   4.323   3.029 -1.3603  0.7408 -1.3549
18045TIP3   OH275625   0.408   4.698   4.309 -1.2059 -0.1302  0.8157
18045TIP3    H175626   0.421   4.763   4.377 -1.0074  1.0581 -0.3145
18045TIP3    H275627   0.469   4.722   4.240 -1.6619 -1.0727  0.0473
18046TIP3   OH275628   2.618   3.933  16.541 -0.8984  0.4913  0.2057
18046TIP3    H175629   2.586   3.899  16.625 -0.6269  1.1823  0.5948
18046TIP3    H275630   2.562   4.008  16.522 -1.5358 -0.1925 -0.6826
18047TIP3   OH275631   1.150   6.452   2.621  0.5815 -0.4169  0.4645
18047TIP3    H175632   1.191   6.423   2.540 -1.8219 -0.0387 -1.0024
18047TIP3    H275633   1.164   6.546   2.623 -0.3903 -0.2477 -0.1793
18048TIP3   OH275634   4.016   0.721   2.044 -0.1684  0.5280 -0.5149
18048TIP3    H175635   4.015   0.722   1.949  0.1586  1.0787 -0.5160
18048TIP3    H275636   4.082   0.786   2.068  1.4020 -1.1862  0.0533
18049TIP3   OH275637   1.483   5.633  11.987  0.4845 -0.2707 -0.4051
18049TIP3    H175638   1.546   5.684  12.039 -0.2146 -1.2185  1.4735
18049TIP3    H275639   1.429   5.698  11.943  0.7623  0.5931  0.5035
18050TIP3   OH275640   3.327   2.179   1.818 -0.4859  0.4968  0.4387
18050TIP3    H175641   3.365   2.225   1.743  1.5777 -0.0555  1.0792
18050TIP3    H275642   3.391   2.112   1.840 -1.0862  0.5787  2.6473
18051TIP3   OH275643   1.500   3.060  15.249 -0.3285 -0.3409 -0.2162
18051TIP3    H175644   1.526   3.140  15.203  0.1666 -0.7420 -0.6468
18051TIP3    H275645   1.417   3.082  15.291  0.7043  1.0206  1.2739
18052TIP3   OH275646   5.010   4.974  16.331  0.0939  0.4173  0.9605
18052TIP3    H175647   4.956   5.052  16.343 -0.9887 -0.3127  0.9485
18052TIP3    H275648   5.015   4.962  16.236  3.5619  2.6775  0.6635
18053TIP3   OH275649   5.920   3.092   3.237 -0.0732  0.1841  0.3976
18053TIP3    H175650   5.903   3.129   3.324 -1.7931 -1.3270  0.7743
18053TIP3    H275651   5.868   3.145   3.178  0.5644  0.7906  0.3687
18054TIP3   OH275652   6.654   3.028   3.763  0.3590 -0.4845  0.2885
18054TIP3    H175653   6.602   2.950   3.741 -2.0108  1.0783 -0.0394
18054TIP3    H275654   6.634   3.044   3.856 -1.3298  1.1497 -0.2860
18055TIP3   OH275655   3.684   5.924   4.962 -0.2455 -0.0952  0.0670
18055TIP3    H175656   3.761   5.952   4.911  0.4844  0.6091  1.4912
18055TIP3    H275657   3.659   5.841   4.923  0.9548 -0.1058 -0.7540
18056TIP3   OH275658   2.364   4.010  15.165  0.0205  0.0807 -0.4801
18056TIP3    H175659   2.308   3.940  15.198 -2.0442  0.9945 -1.8609
18056TIP3    H275660   2.377   3.988  15.073  3.0333 -0.7402  0.0427
18057TIP3   OH275661   2.778   5.988   0.982  0.1288 -0.6126  0.0338
18057TIP3    H175662   2.782   5.900   1.020 -0.5802 -1.0046 -0.7780
18057TIP3    H275663   2.693   5.992   0.939  0.0786  0.5454  0.2102
18058TIP3   OH275664   0.444   0.893   3.866  0.1755  0.2594 -0.4903
18058TIP3    H175665   0.525   0.846   3.888  0.6593  0.0095 -2.6590
18058TIP3    H275666   0.405   0.914   3.952  1.9030 -0.6742  0.5806
18059TIP3   OH275667   0.396   2.815  11.135 -0.7058  0.3878  0.1129
18059TIP3    H175668   0.384   2.897  11.087 -1.4094  0.2264  0.0030
18059TIP3    H275669   0.307   2.787  11.158 -0.4145  0.2508  1.1481
18060TIP3   OH275670   6.617   2.748  10.990  0.0276 -0.4001  0.3148
18060TIP3    H175671   6.544   2.687  10.981  0.1829 -0.6641  0.8165
18060TIP3    H275672   6.693   2.693  11.008 -0.3430 -0.0000  3.9747
18061TIP3   OH275673   3.386   4.430  13.827 -0.2980 -0.2171  0.2081
18061TIP3    H175674   3.478   4.449  13.846 -0.3621 -0.0077  0.3112
18061TIP3    H275675   3.388   4.347  13.780  0.0059  0.1334 -0.4195
18062TIP3   OH275676   5.986   4.133  15.251 -0.4013 -0.0201 -0.5270
18062TIP3    H175677   6.059   4.160  15.307  0.5606 -0.7327 -1.3959
18062TIP3    H275678   5.991   4.038  15.248 -1.0463 -0.0525 -1.0219
18063TIP3   OH275679   1.120   6.024  12.879  0.0753  0.4393  0.0820
18063TIP3    H175680   1.149   6.110  12.848  1.1849 -0.3308 -1.1280
18063TIP3    H275681   1.080   5.983  12.803 -2.0580  0.5117  1.0984
18064TIP3   OH275682   2.218   6.345   2.995  0.1647  0.2727  0.0737
18064TIP3    H175683   2.213   6.343   2.900  0.4319  0.2170  0.0597
18064TIP3    H275684   2.140   6.394   3.022  0.7767  1.4309 -0.2330
18065TIP3   OH275685   3.832   0.146   4.485 -0.5081  0.3440  0.6486
18065TIP3    H175686   3.837   0.197   4.405  2.8276 -0.5102  0.1594
18065TIP3    H275687   3.742   0.158   4.516 -1.9057  0.7964 -3.0874
18066TIP3   OH275688   0.527   5.545  14.837 -0.3100 -0.4741  0.3302
18066TIP3    H175689   0.604   5.578  14.882 -1.0674 -0.1899  1.4682
18066TIP3    H275690   0.495   5.619  14.785  0.0272 -0.5233  0.0443
18067TIP3   OH275691   0.883   6.601   1.833 -0.3208 -0.6717  0.1651
18067TIP3    H175692   0.860   6.522   1.881  1.1692 -0.6369  0.9788
18067TIP3    H275693   0.799   6.647   1.819 -0.8630 -1.0158  2.1200
18068TIP3   OH275694   0.171   6.363  11.024  0.8797  0.0441  0.7069
18068TIP3    H175695   0.117   6.418  10.968 -0.5917 -1.6783  0.3214
18068TIP3    H275696   0.193   6.419  11.099  1.9678  2.0361 -1.0052
18069TIP3   OH275697   5.526   1.874  15.566 -0.2045  0.2147 -1.0380
18069TIP3    H175698   5.488   1.936  15.503 -3.0229 -1.3122 -0.9864
18069TIP3    H275699   5.461   1.869  15.636  2.6590  1.5830  1.9731
18070TIP3   OH275700   6.468   3.863  11.340 -0.1850 -0.4039  0.1806
18070TIP3    H175701   6.474   3.778  11.296 -1.0468 -0.9593  1.0861
18070TIP3    H275702   6.399   3.851  11.405  0.5506  0.6178  1.1792
18071TIP3   OH275703   5.521   3.663  10.998 -0.4904  0.1841  0.4808
18071TIP3    H175704   5.521   3.632  11.089  1.5087 -1.1885  0.0832
18071TIP3    H275705   5.608   3.701  10.986 -0.6047  0.0187 -0.9549
18072TIP3   OH275706   0.856   5.320  10.195  0.6690 -0.1282 -0.1144
18072TIP3    H175707   0.856   5.410  10.164  0.5056  0.0928  0.5138
18072TIP3    H275708   0.940   5.310  10.239  1.7172 -0.9975 -2.1511
18073TIP3   OH275709   4.149   6.239  14.602 -0.4489  0.3533 -0.4387
18073TIP3    H175710   4.111   6.184  14.534 -1.0632  1.0265 -0.6540
18073TIP3    H275711   4.078   6.300  14.626 -0.3073  0.0203  0.9209
18074TIP3   OH275712   2.270   0.440  11.657 -0.3669 -0.3907  0.5551
18074TIP3    H175713   2.347   0.495  11.671 -0.3936 -0.3821  0.6692
18074TIP3    H275714   2.217   0.489  11.595 -0.1344 -0.5388  0.2369
18075TIP3   OH275715   5.753   3.060  15.677 -0.0242  0.5192  0.5268
18075TIP3    H175716   5.801   3.051  15.759  0.8301  3.3183  0.4355
18075TIP3    H275717   5.820   3.085  15.613 -1.0495  0.8235 -0.4620
18076TIP3   OH275718   3.325   2.528  16.372 -0.3802  0.1682 -0.0214
18076TIP3    H175719   3.391   2.591  16.344 -1.4314  1.2060 -0.2740
18076TIP3    H275720   3.291   2.491  16.290 -1.9878  1.6557 -0.0737
18077TIP3   OH275721   2.118   6.589  13.477 -0.5706  0.4148  0.7123
18077TIP3    H175722   2.080   6.557  13.559 -1.7529  0.9931  0.3985
18077TIP3    H275723   2.201   6.629  13.504  0.5594 -2.0557  1.2349
18078TIP3   OH275724   6.532   6.437   3.017 -0.6939  0.5081  0.5149
18078TIP3    H175725   6.624   6.419   3.033 -1.0063 -1.2878  0.4886
18078TIP3    H275726   6.530   6.482   2.932  0.0403 -1.3837 -0.5702
18079TIP3   OH275727   5.798   3.262   2.497  0.6121  0.6237  0.2469
18079TIP3    H175728   5.830   3.177   2.527 -1.8403  0.0145  1.4240
18079TIP3    H275729   5.801   3.257   2.402  0.2246 -0.9362  0.2913
18080TIP3   OH275730   2.741   1.478   1.189 -0.3229 -0.2139 -0.2654
18080TIP3    H175731   2.763   1.513   1.102  2.3153  0.0737  0.4399
18080TIP3    H275732   2.823   1.480   1.237 -1.0872 -3.0674  1.3606
18081TIP3   OH275733   1.246   1.424   1.527  0.3680  0.3924 -0.5922
18081TIP3    H175734   1.284   1.502   1.567 -0.2955 -0.4045  1.8220
18081TIP3    H275735   1.193   1.385   1.597  0.9033 -2.3729 -1.5688
18082TIP3   OH275736   6.389   4.802   0.529 -0.2770  0.0481  0.6981
18082TIP3    H175737   6.342   4.786   0.447  0.9546 -1.8794  0.3004
18082TIP3    H275738   6.358   4.887   0.558 -3.4964 -0.7984  0.1367
18083TIP3   OH275739   5.493   4.570  11.745 -0.0086 -0.4425 -0.4703
18083TIP3    H175740   5.578   4.610  11.725  0.1939 -0.1007  0.9591
18083TIP3    H275741   5.442   4.580  11.664  0.4203  1.7442 -0.5334
18084TIP3   OH275742   6.317   4.494   5.344 -0.7514 -0.0745  0.3530
18084TIP3    H175743   6.258   4.464   5.274 -1.0512  0.1123  0.5226
18084TIP3    H275744   6.266   4.483   5.424  0.3338 -2.3665  0.8178
18085TIP3   OH275745   6.640   2.751  12.959  0.0316  0.1293 -0.2793
18085TIP3    H175746   6.670   2.842  12.961  1.3172 -0.2707 -0.2866
18085TIP3    H275747   6.544   2.757  12.961  0.1121  1.4272  1.4702
18086TIP3   OH275748   4.412   2.584  16.695  0.3435 -0.0028  0.0063
18086TIP3    H175749   4.464   2.663  16.709 -0.6944  0.7869 -0.4308
18086TIP3    H275750   4.389   2.554  16.783 -1.5905  1.8081  0.1906
18087TIP3   OH275751   6.687   1.592  11.335 -0.3031  0.4367 -0.4435
18087TIP3    H175752   6.701   1.685  11.351  2.6151  0.1178 -0.6191
18087TIP3    H275753   6.715   1.549  11.416  1.9685 -0.4261 -1.6030
18088TIP3   OH275754   1.052   5.661   5.292  0.4781  0.5001 -0.0381
18088TIP3    H175755   1.100   5.699   5.366  1.0508 -1.4856  0.6735
18088TIP3    H275756   0.975   5.620   5.332  0.2288  0.3084 -0.6977
18089TIP3   OH275757   4.844   6.809  16.546 -0.1177  0.1700 -0.0790
18089TIP3    H175758   4.886   6.888  16.582 -1.1274 -0.0863  1.8057
18089TIP3    H275759   4.758   6.839  16.517 -0.5974 -0.2405  0.8624
18090TIP3   OH275760   4.454   0.525  15.209  0.4032 -0.2009 -0.6490
18090TIP3    H175761   4.549   0.512  15.204  0.4703  0.2022 -0.4617
18090TIP3    H275762   4.418   0.436  15.213  0.5735 -0.5222 -3.8034
18091TIP3   OH275763   2.100   3.950  14.970 -0.0067  0.2776  0.0310
18091TIP3    H175764   2.125   3.913  15.054 -1.2265  0.2832  0.4053
18091TIP3    H275765   2.087   4.043  14.988  1.2140  0.5790 -0.5094
18092TIP3   OH275766   6.116   1.966  14.724 -0.3915 -0.6701 -0.1096
18092TIP3    H175767   6.118   2.033  14.656  0.6028  0.6687  1.1887
18092TIP3    H275768   6.033   1.982  14.770 -2.0283 -2.7734 -2.0532
18093TIP3   OH275769   3.985   0.988   4.931  0.2946 -0.4679 -0.5071
18093TIP3    H175770   4.002   0.939   4.851  0.3594 -1.3369  0.0242
18093TIP3    H275771   3.889   0.992   4.937  0.1360 -3.6342  1.2222
18094TIP3   OH275772   2.935   5.161  14.417  0.0964  0.9101 -0.2543
18094TIP3    H175773   2.848   5.168  14.457  0.1334  2.4450 -0.3627
18094TIP3    H275774   2.938   5.234  14.355  0.7507 -0.2995 -1.7139
18095TIP3   OH275775   1.405   0.246  14.379 -0.4126 -1.1459 -0.2658
18095TIP3    H175776   1.426   0.156  14.405  0.2599 -0.7932  0.4697
18095TIP3    H275777   1.480   0.297  14.408 -1.9995  0.1054  1.9753
18096TIP3   OH275778   6.687   0.048   2.914  0.0073  0.0489 -0.0218
18096TIP3    H175779   6.654   0.129   2.875 -1.8465 -0.3204  0.6376
18096TIP3    H275780   6.755   0.076   2.974 -2.1075  1.4347  1.8808
18097TIP3   OH275781   1.983   3.087   3.271  0.2432  0.6975 -0.7652
18097TIP3    H175782   1.906   3.113   3.221 -0.3679  0.2921 -0.0572
18097TIP3    H275783   1.969   2.994   3.290  0.1989  0.9573  0.5922
18098TIP3   OH275784   0.127   3.796   5.430 -0.1989 -0.2278  0.3611
18098TIP3    H175785   0.212   3.828   5.460  0.7042 -0.8799 -1.3837
18098TIP3    H275786   0.083   3.874   5.397  0.5203 -0.1715 -0.5051
18099TIP3   OH275787   0.993   4.326   3.172  0.5527  0.0980  0.6778
18099TIP3    H175788   0.943   4.285   3.242 -1.0947 -0.7135 -0.8928
18099TIP3    H275789   0.933   4.389   3.133  1.4401  0.5508  0.0097
18100TIP3   OH275790   5.646   5.637   6.543  0.5025 -0.1864 -0.4444
18100TIP3    H175791   5.578   5.643   6.610  1.4092 -0.9164  0.5808
18100TIP3    H275792   5.627   5.708   6.482 -0.9783 -0.1872 -0.0122
18101TIP3   OH275793   4.232   5.586  13.933 -0.1487 -0.0308  0.3091
18101TIP3    H175794   4.255   5.551  13.847 -1.4546  1.8051 -0.8528
18101TIP3    H275795   4.188   5.513  13.977 -0.2200 -0.7406 -0.8955
18102TIP3   OH275796   4.499   6.224   1.115 -0.3408  0.2226  0.5626
18102TIP3    H175797   4.485   6.199   1.207 -1.2977  0.1373  0.3993
18102TIP3    H275798   4.436   6.171   1.066 -1.5925  2.0505  0.0858
18103TIP3   OH275799   2.037   6.572   2.873  0.6502 -0.3895 -0.3117
18103TIP3    H175800   2.119   6.619   2.860  0.5670  0.5297  2.0409
18103TIP3    H275801   1.972   6.623   2.823  0.9092  0.9359  0.6623
18104TIP3   OH275802   4.419   3.890  16.804 -0.4864  0.0181 -0.0726
18104TIP3    H175803   4.429   3.984  16.792 -0.8802  0.1255  0.3899
18104TIP3    H275804   4.335   3.880  16.848  1.3873 -0.2019  3.9155
18105TIP3   OH275805   5.347   3.507  13.738  0.6753 -0.0107 -0.1515
18105TIP3    H175806   5.256   3.538  13.746  0.6236 -0.1167 -0.3248
18105TIP3    H275807   5.392   3.578  13.692  0.3084 -0.6401 -1.5481
18106TIP3   OH275808   0.674   0.852  14.975 -0.0820 -0.1095 -0.1070
18106TIP3    H175809   0.667   0.875  15.068  2.0959 -0.8445  0.2772
18106TIP3    H275810   0.640   0.762  14.970 -0.2590 -0.0474 -0.0570
18107TIP3   OH275811   3.353   4.273  13.167 -0.5580  0.3366  0.0416
18107TIP3    H175812   3.449   4.267  13.175 -0.7413 -0.4237  3.4732
18107TIP3    H275813   3.338   4.307  13.079  2.8891  1.1068 -0.4017
18108TIP3   OH275814   3.618   1.313  12.599  0.4425  0.1347 -0.5625
18108TIP3    H175815   3.592   1.271  12.681 -2.0900  0.1928 -1.2700
18108TIP3    H275816   3.654   1.398  12.626 -2.6370  1.2670  0.4972
18109TIP3   OH275817   3.697   2.935  11.081  0.7563  0.2652 -0.0211
18109TIP3    H175818   3.675   2.947  10.989  0.6688  1.9036  0.1961
18109TIP3    H275819   3.624   2.974  11.129 -0.4735 -2.7682  0.8290
18110TIP3   OH275820   3.843   5.396   1.205 -0.4109 -0.0195 -0.8728
18110TIP3    H175821   3.754   5.423   1.227 -0.4294  0.0450 -1.0267
18110TIP3    H275822   3.888   5.391   1.290  0.0055  1.9448 -0.9274
18111TIP3   OH275823   0.913   4.356  12.630 -0.1949 -0.1588  0.2882
18111TIP3    H175824   0.849   4.291  12.599 -1.0560 -0.7050  2.9511
18111TIP3    H275825   0.994   4.332  12.586 -1.4071 -0.4368 -1.9654
18112TIP3   OH275826   3.350   5.401  15.610 -0.5712  0.4631  0.1435
18112TIP3    H175827   3.378   5.310  15.609  0.0689  0.6479  0.3189
18112TIP3    H275828   3.431   5.450  15.627 -1.2154  0.9302  2.1231
18113TIP3   OH275829   1.524   0.815  11.046 -0.5035  0.2031  0.4708
18113TIP3    H175830   1.556   0.827  11.135 -0.4253  0.2714  0.4340
18113TIP3    H275831   1.455   0.750  11.054 -1.8732  1.6460  0.8866
18114TIP3   OH275832   1.761   5.004   2.587 -0.6422 -0.4538  0.5355
18114TIP3    H175833   1.809   4.947   2.527 -1.8269  0.8282 -1.7231
18114TIP3    H275834   1.805   5.089   2.581 -1.1803 -0.1334  1.0083
18115TIP3   OH275835   0.100   3.225  12.677 -0.1315  0.1795  0.0564
18115TIP3    H175836   0.147   3.299  12.716 -1.2065  1.2282 -0.5602
18115TIP3    H275837   0.007   3.250  12.683 -0.5636 -1.4465  0.4676
18116TIP3   OH275838   5.730   4.101  14.612  0.2250  0.2944 -0.2134
18116TIP3    H175839   5.755   4.121  14.522  0.9491 -0.0449 -0.0927
18116TIP3    H275840   5.799   4.138  14.666 -0.1154  0.3432  0.1984
18117TIP3   OH275841   5.217   4.490   0.311 -0.0151  0.3311 -0.1503
18117TIP3    H175842   5.259   4.524   0.232 -0.5064  0.8032 -0.2131
18117TIP3    H275843   5.250   4.401   0.319  0.7275  0.5737 -0.3933
18118TIP3   OH275844   4.805   5.761  16.566 -0.0801 -0.1366  0.2749
18118TIP3    H175845   4.828   5.840  16.615 -0.7232 -0.9174  1.9001
18118TIP3    H275846   4.729   5.726  16.612 -1.2013 -0.5209 -1.7454
18119TIP3   OH275847   4.332   3.309  15.288  0.5965  0.2233 -0.2543
18119TIP3    H175848   4.291   3.333  15.371 -1.1396  0.1510 -1.0507
18119TIP3    H275849   4.414   3.268  15.314 -0.6020 -1.2466  1.5207
18120TIP3   OH275850   6.444   1.295   5.976 -0.1555 -0.0944 -0.2952
18120TIP3    H175851   6.493   1.215   5.960  1.2187  0.9276 -1.5620
18120TIP3    H275852   6.506   1.365   5.955 -1.5705  1.2907 -0.0394
18121TIP3   OH275853   0.664   2.614   4.612  0.0317 -0.3989 -0.1460
18121TIP3    H175854   0.651   2.523   4.586 -1.3262 -0.5110  0.8054
18121TIP3    H275855   0.589   2.634   4.669 -0.3781  1.6857 -1.3104
18122TIP3   OH275856   0.545   0.560  10.648  0.1562  0.6049 -0.5475
18122TIP3    H175857   0.471   0.599  10.602  0.4106  0.5418 -1.0106
18122TIP3    H275858   0.556   0.615  10.726 -2.9115 -1.6567  1.7348
18123TIP3   OH275859   1.120   2.234   0.077  0.4471  0.4154 -0.1558
18123TIP3    H175860   1.177   2.233  -0.000 -0.6606  0.9478 -1.0133
18123TIP3    H275861   1.034   2.209   0.043 -0.0271  0.4989  0.9514
18124TIP3   OH275862   3.746   0.667   0.399 -0.4112  0.2005 -0.2057
18124TIP3    H175863   3.837   0.662   0.369  0.3255  0.0556  1.9211
18124TIP3    H275864   3.722   0.759   0.387  0.0542  0.2717 -0.6505
18125TIP3   OH275865   5.553   2.081   4.932 -0.2515  0.6016 -0.0766
18125TIP3    H175866   5.459   2.101   4.937 -0.7057 -0.8163 -1.9965
18125TIP3    H275867   5.589   2.151   4.877 -0.8991 -0.7529 -2.3688
18126TIP3   OH275868   2.764   1.747   1.787 -0.0531  0.2769 -0.1468
18126TIP3    H175869   2.724   1.764   1.872  1.4707 -2.0714  1.1682
18126TIP3    H275870   2.692   1.721   1.730 -1.0793  1.7698  0.4254
18127TIP3   OH275871   4.936   1.106  14.427  0.3395  0.7534  0.3010
18127TIP3    H175872   4.952   1.093  14.520  0.9525 -0.5008  0.0474
18127TIP3    H275873   4.940   1.018  14.390  0.8489  1.3051 -1.0237
18128TIP3   OH275874   3.546   2.021  15.754  0.2404 -0.1764 -0.4216
18128TIP3    H175875   3.632   2.026  15.713  0.5049  0.2239  0.1670
18128TIP3    H275876   3.484   2.026  15.681  0.7146 -1.4349 -0.9327
18129TIP3   OH275877   5.272   1.931  13.570  0.2340 -0.4927  0.5657
18129TIP3    H175878   5.339   1.959  13.508  0.7710 -1.0058  0.9039
18129TIP3    H275879   5.231   2.012  13.601  2.1744  0.0078  2.0054
18130TIP3   OH275880   4.897   4.634  16.195 -0.2406 -0.1246  0.4873
18130TIP3    H175881   4.902   4.656  16.102  0.6061 -0.7405  0.3803
18130TIP3    H275882   4.988   4.635  16.225 -0.1898 -2.7757  0.6284
18131TIP3   OH275883   6.416   0.830  12.088 -0.2369 -0.7554  0.2937
18131TIP3    H175884   6.419   0.899  12.155 -0.2138  1.0066 -1.4326
18131TIP3    H275885   6.322   0.813  12.077 -0.3083 -0.1551 -0.0735
18132TIP3   OH275886   6.127   6.062   0.250 -0.2168  0.4294  0.3110
18132TIP3    H175887   6.160   6.151   0.252 -1.1134  0.7706  0.6099
18132TIP3    H275888   6.036   6.069   0.280 -0.3539 -0.5579  0.1859
18133TIP3   OH275889   5.346   0.340  15.002 -0.0056  0.3249  0.2788
18133TIP3    H175890   5.372   0.430  15.021  1.1461  0.2018 -0.5936
18133TIP3    H275891   5.321   0.341  14.909  0.0464 -0.2487  0.2500
18134TIP3   OH275892   6.239   5.600   3.364  0.7550 -0.1856  0.2068
18134TIP3    H175893   6.184   5.617   3.440 -1.2282 -1.2552 -0.9115
18134TIP3    H275894   6.255   5.686   3.326 -0.3189  0.1405  0.4676
18135TIP3   OH275895   5.315   2.295  14.769  0.1810  0.2789  0.3102
18135TIP3    H175896   5.307   2.371  14.712  2.2813  0.2328 -0.1152
18135TIP3    H275897   5.296   2.220  14.712  0.8489  0.3312  0.0023
18136TIP3   OH275898   0.302   3.425  16.644 -0.7160 -0.3030 -0.4568
18136TIP3    H175899   0.347   3.378  16.574 -2.5435 -1.5892 -0.8591
18136TIP3    H275900   0.283   3.511  16.607  1.7013  0.4443 -0.1093
18137TIP3   OH275901   4.069   6.113  13.506  0.2692  0.1949  0.3749
18137TIP3    H175902   4.125   6.167  13.561  0.4014  0.1757  0.2612
18137TIP3    H275903   4.091   6.023  13.530  2.0951  0.0854 -1.3739
18138TIP3   OH275904   0.793   6.200   5.805 -0.6243  0.1102 -0.0513
18138TIP3    H175905   0.746   6.270   5.850  0.9950  0.2720  1.5085
18138TIP3    H275906   0.834   6.150   5.875  1.8932  0.2854 -1.2776
18139TIP3   OH275907   1.859   6.679   4.324 -0.1840 -0.2263  0.1107
18139TIP3    H175908   1.953   6.675   4.307 -0.1715 -0.4543  0.2285
18139TIP3    H275909   1.818   6.684   4.238  0.0249  2.0587  0.0822
18140TIP3   OH275910   4.276   4.391   0.823  0.7726  0.1404 -0.5765
18140TIP3    H175911   4.322   4.309   0.842  0.9134 -0.2485 -2.4614
18140TIP3    H275912   4.346   4.455   0.807  0.6793  0.0296 -1.4810
18141TIP3   OH275913   1.582   5.246  11.649 -0.0735  0.3189  0.8833
18141TIP3    H175914   1.577   5.219  11.558  2.3590 -0.3274  0.8584
18141TIP3    H275915   1.588   5.163  11.698  0.1273  0.6803  1.4826
18142TIP3   OH275916   5.078   5.671  16.628  0.1586  0.2134  0.0343
18142TIP3    H175917   4.996   5.691  16.582  0.2066 -0.7661 -0.5058
18142TIP3    H275918   5.050   5.629  16.710  0.1009  0.7742  0.3042
18143TIP3   OH275919   1.976   1.033   6.005  0.5510  0.0537  0.3202
18143TIP3    H175920   1.892   0.996   5.978  1.2212 -0.2209 -1.5508
18143TIP3    H275921   2.006   1.082   5.928  2.1937 -0.0507  0.8621
18144TIP3   OH275922   2.513   2.333   4.243 -0.0214  0.5283 -0.0937
18144TIP3    H175923   2.479   2.260   4.296 -0.0961 -0.6538 -1.7042
18144TIP3    H275924   2.515   2.407   4.304 -1.0425 -0.5175  1.2931
18145TIP3   OH275925   1.714   4.208   3.058 -0.2515  0.9542 -0.1745
18145TIP3    H175926   1.717   4.289   3.109  2.6140  0.2598  0.9961
18145TIP3    H275927   1.798   4.207   3.012 -0.0486 -1.5019  0.1438
18146TIP3   OH275928   4.303   2.858   3.187  0.5747 -0.0432  0.0974
18146TIP3    H175929   4.301   2.828   3.278  1.0923 -1.1795 -0.2501
18146TIP3    H275930   4.360   2.795   3.142  0.6926  0.7668 -0.9207
18147TIP3   OH275931   4.601   4.607   3.720  0.0872  0.2928  0.1250
18147TIP3    H175932   4.548   4.666   3.773  0.7926  0.0214  1.1583
18147TIP3    H275933   4.664   4.570   3.781  2.1836  1.4048 -1.2459
18148TIP3   OH275934   4.564   4.658   2.757  0.1131 -0.2447  0.0336
18148TIP3    H175935   4.626   4.630   2.689 -1.1184 -0.9213 -0.8635
18148TIP3    H275936   4.492   4.595   2.751 -1.2916  1.2750  0.1268
18149TIP3   OH275937   0.831   1.994  16.640  0.3020 -0.2052 -0.1031
18149TIP3    H175938   0.781   1.912  16.638  0.5018 -0.3101 -1.0953
18149TIP3    H275939   0.879   1.995  16.558 -0.8984  1.6696 -0.8418
18150TIP3   OH275940   2.726   0.939   4.329  0.3881  0.0653 -0.0839
18150TIP3    H175941   2.690   0.866   4.278  0.3150  0.9359 -1.3489
18150TIP3    H275942   2.808   0.906   4.364  0.7034 -0.4083 -1.2285
18151TIP3   OH275943   4.635   3.758  15.821 -0.2164  0.3083  0.0854
18151TIP3    H175944   4.579   3.823  15.862 -4.1500 -2.7236  0.0851
18151TIP3    H275945   4.671   3.707  15.893  0.7461  0.8381 -0.0027
18152TIP3   OH275946   3.614   4.919  11.086  0.5131 -0.3636  0.2583
18152TIP3    H175947   3.699   4.887  11.056  0.1926 -0.6781 -0.3367
18152TIP3    H275948   3.552   4.888  11.020  0.1155  1.0096 -0.0589
18153TIP3   OH275949   4.402   4.903   2.771  0.6249 -0.3328  0.0792
18153TIP3    H175950   4.441   4.817   2.788 -0.8886 -0.8506  1.1585
18153TIP3    H275951   4.378   4.936   2.858  1.4888  1.3625 -0.2741
18154TIP3   OH275952   3.753   4.938   2.752 -0.1914  0.3310  0.1075
18154TIP3    H175953   3.669   4.939   2.797 -0.0628 -1.5789  0.4766
18154TIP3    H275954   3.816   4.914   2.819  0.6664  1.7440 -0.1723
18155TIP3   OH275955   5.299   2.805   4.862 -0.1618 -0.2866 -0.4741
18155TIP3    H175956   5.298   2.792   4.957 -0.1761 -0.0807 -0.4444
18155TIP3    H275957   5.390   2.826   4.841  0.0795 -1.4674 -0.6711
18156TIP3   OH275958   6.460   2.887   4.172  0.0753  0.0850  0.1970
18156TIP3    H175959   6.375   2.861   4.137 -0.2207  1.4561 -0.1638
18156TIP3    H275960   6.497   2.806   4.207 -0.6778 -0.8539 -1.0838
18157TIP3   OH275961   4.037   2.090  13.126 -0.3557 -0.4694  0.4283
18157TIP3    H175962   3.943   2.106  13.120 -0.0282  1.7480  0.3906
18157TIP3    H275963   4.072   2.117  13.041  0.4396 -0.3694  0.7781
18158TIP3   OH275964   2.317   6.015  11.893 -0.5341 -0.3081 -0.0102
18158TIP3    H175965   2.366   5.992  11.813  1.0436 -1.5326  1.2484
18158TIP3    H275966   2.276   5.934  11.920 -4.4670  0.8904 -1.6532
18159TIP3   OH275967   3.115   3.916   2.631  0.4652 -0.6148 -0.3817
18159TIP3    H175968   3.181   3.947   2.692 -0.3345 -0.2869  0.3404
18159TIP3    H275969   3.144   3.948   2.546  0.9664 -0.0350 -0.0006
18160TIP3   OH275970   3.723   1.452   6.262 -0.3845  0.1879 -0.4726
18160TIP3    H175971   3.649   1.448   6.322  0.0751  0.6981  0.1432
18160TIP3    H275972   3.728   1.543   6.235  1.0533  0.5462  0.8507
18161TIP3   OH275973   2.138   2.692  14.534 -0.0293 -0.0070  0.3424
18161TIP3    H175974   2.049   2.714  14.508 -0.6861 -2.3704  0.3931
18161TIP3    H275975   2.133   2.601  14.563  2.8511 -1.0805 -2.0249
18162TIP3   OH275976   2.626   1.288   5.641  0.3655 -0.6046  0.1567
18162TIP3    H175977   2.647   1.254   5.728  0.4490  0.8263  0.7241
18162TIP3    H275978   2.577   1.369   5.658 -1.3598 -1.3055 -1.1347
18163TIP3   OH275979   1.003   1.802   4.447 -0.0984  0.2941 -0.0579
18163TIP3    H175980   0.991   1.786   4.353  0.4030 -0.3889 -0.0107
18163TIP3    H275981   1.091   1.769   4.466  0.4229  1.8492  0.3507
18164TIP3   OH275982   0.129   4.587   6.175 -0.3597  0.6342  0.3338
18164TIP3    H175983   0.098   4.671   6.141 -3.1935  0.2797  1.7030
18164TIP3    H275984   0.214   4.606   6.214  1.9191  1.5728 -4.3443
18165TIP3   OH275985   0.668   6.749  16.986  0.3374 -0.4118 -0.7720
18165TIP3    H175986   0.658   6.823  16.927  1.4131 -0.9394 -1.6657
18165TIP3    H275987   0.669   6.673  16.929 -2.1063 -1.2970  0.2173
18166TIP3   OH275988   5.486   2.035   5.885  0.0231  0.7076  0.1511
18166TIP3    H175989   5.482   2.130   5.877 -0.6479  0.6666 -0.1096
18166TIP3    H275990   5.405   2.011   5.929  0.6949  0.3380  1.2324
18167TIP3   OH275991   0.464   1.229   3.928 -0.1055  0.3005  0.3591
18167TIP3    H175992   0.449   1.318   3.961  1.0690  0.6611 -0.0355
18167TIP3    H275993   0.496   1.242   3.838 -1.5209 -0.5945 -0.3185
18168TIP3   OH275994   4.042   3.555  14.833  0.2653 -1.3847  0.1772
18168TIP3    H175995   4.018   3.525  14.745 -0.4536 -1.1410  0.2831
18168TIP3    H275996   4.104   3.626  14.819 -1.2994 -0.0244 -0.2143
18169TIP3   OH275997   2.203   6.060  12.184  0.0274 -0.3545 -0.2969
18169TIP3    H175998   2.144   6.020  12.120  0.3934 -0.2214 -0.7285
18169TIP3    H275999   2.267   6.107  12.130 -1.2368  2.1018  0.1895
18170TIP3   OH276000   5.400   5.790   6.626  0.2871  0.2473 -0.0327
18170TIP3    H176001   5.340   5.748   6.564 -0.1901 -1.0136  1.2363
18170TIP3    H276002   5.353   5.866   6.658  0.2964  0.5642 -0.7393
18171TIP3   OH276003   2.610   6.288   3.861  0.1946  0.6101 -0.1700
18171TIP3    H176004   2.532   6.344   3.867  0.4294  0.7511  2.0881
18171TIP3    H276005   2.663   6.311   3.937  1.3847 -1.1085 -0.4227
18172TIP3   OH276006   4.077   4.981  15.081  0.5493 -0.4340 -0.5365
18172TIP3    H176007   4.005   4.932  15.118 -0.9192  1.1481 -1.1527
18172TIP3    H276008   4.086   4.947  14.992  0.8623 -0.9330 -0.3156
18173TIP3   OH276009   2.708   5.311  12.634 -0.1927 -0.1512 -0.4988
18173TIP3    H176010   2.684   5.355  12.716 -0.0739  0.4770 -0.7936
18173TIP3    H276011   2.666   5.364  12.566 -0.5865 -0.8764 -0.8237
18174TIP3   OH276012   4.397   5.757  11.134 -0.1434 -0.5136 -0.3249
18174TIP3    H176013   4.388   5.848  11.163  2.2115 -0.5953  0.8718
18174TIP3    H276014   4.415   5.763  11.041  2.1923  0.4569  0.1208
18175TIP3   OH276015   5.330   5.663  13.640 -0.3857 -0.6391  0.1245
18175TIP3    H176016   5.414   5.648  13.684  0.0996  0.9697 -0.1704
18175TIP3    H276017   5.278   5.586  13.661  0.5683 -0.9000  1.7406
18176TIP3   OH276018   5.286   0.945  16.463  0.2254 -0.6054  0.4548
18176TIP3    H176019   5.201   0.908  16.483  0.4709 -1.3103  0.2189
18176TIP3    H276020   5.348   0.874  16.478  0.6580 -0.4478 -0.4544
18177TIP3   OH276021   6.426   3.888   5.275  0.4111  0.0406  0.0206
18177TIP3    H176022   6.341   3.915   5.240  1.2954  0.5444 -1.8694
18177TIP3    H276023   6.454   3.962   5.328  0.2638  0.4625 -0.4789
18178TIP3   OH276024   1.344   2.082  16.070 -0.1752  0.1053 -0.1472
18178TIP3    H176025   1.434   2.065  16.099 -0.2344 -0.7899 -0.4461
18178TIP3    H276026   1.335   2.031  15.990 -0.9275  0.2480 -0.1603
18179TIP3   OH276027   0.699   3.006   1.694  0.6450 -0.2512  0.3045
18179TIP3    H176028   0.778   3.043   1.654  1.1273 -0.8793  0.6448
18179TIP3    H276029   0.704   3.033   1.786  1.2381 -1.4890  0.6618
18180TIP3   OH276030   3.950   0.376  12.975 -0.0867  0.2454 -0.1198
18180TIP3    H176031   4.013   0.367  13.045  0.5454 -0.5158 -0.7647
18180TIP3    H276032   3.997   0.422  12.905  0.0212 -0.9492 -0.8775
18181TIP3   OH276033   6.512   5.013  15.381 -0.2705  0.1676  0.0069
18181TIP3    H176034   6.566   4.956  15.327  1.0768  0.0817  1.3913
18181TIP3    H276035   6.571   5.082  15.411 -1.2654  0.8697  0.4167
18182TIP3   OH276036   0.101   4.519  15.510 -0.5724  0.9587  0.4031
18182TIP3    H176037   0.129   4.428  15.519 -2.7128  0.2651  0.4831
18182TIP3    H276038   0.138   4.563  15.586  0.1338  0.0878  0.5816
18183TIP3   OH276039   1.029   0.816   3.447  0.3245  1.2799 -0.1088
18183TIP3    H176040   1.029   0.722   3.464  1.2134  1.6156  2.0166
18183TIP3    H276041   1.067   0.825   3.359 -1.0642 -0.3902 -0.9437
18184TIP3   OH276042   0.227   5.152   1.021  0.4445  0.2905  0.3777
18184TIP3    H176043   0.313   5.139   0.982 -0.2617  1.1271 -1.5759
18184TIP3    H276044   0.219   5.247   1.028 -1.0368  0.3317 -1.2761
18185TIP3   OH276045   0.254   4.338   5.079 -0.5656 -0.1474  0.2047
18185TIP3    H176046   0.265   4.343   4.984 -0.1218  0.1201  0.2642
18185TIP3    H276047   0.234   4.428   5.106  0.1242 -0.0571  0.4501
18186TIP3   OH276048   5.285   1.862   6.015 -0.0351 -0.6469 -0.6171
18186TIP3    H176049   5.223   1.885   5.946  0.8348  0.0067 -1.2001
18186TIP3    H276050   5.241   1.889   6.096 -0.2261  0.4772 -1.0811
18187TIP3   OH276051   4.014   0.814  16.201  0.3111 -0.1336 -0.0637
18187TIP3    H176052   3.977   0.900  16.221  0.4761 -0.1438  0.2924
18187TIP3    H276053   4.108   0.826  16.210  0.2473 -0.8599  2.0987
18188TIP3   OH276054   2.590   3.444  10.689  0.4467 -0.0576 -0.5735
18188TIP3    H176055   2.580   3.538  10.676  0.1795  0.0883  0.6152
18188TIP3    H276056   2.622   3.434  10.778 -0.4983 -1.1410 -0.3273
18189TIP3   OH276057   2.236   5.048   2.576  0.0463  0.1601 -0.7617
18189TIP3    H176058   2.205   4.980   2.517 -0.5938 -0.0042 -0.2443
18189TIP3    H276059   2.184   5.125   2.555  0.2789  0.2902 -0.8649
18190TIP3   OH276060   5.575   2.431   4.301 -0.3597 -0.6071 -0.2548
18190TIP3    H176061   5.624   2.416   4.220  0.5774  0.1526  0.1484
18190TIP3    H276062   5.643   2.439   4.369 -0.6178  4.5823 -0.2435
18191TIP3   OH276063   3.840   4.977  14.731  0.1731  0.1038  0.2361
18191TIP3    H176064   3.898   5.018  14.667  1.0475  1.1662  1.6572
18191TIP3    H276065   3.895   4.914  14.777  0.1669  0.9309  1.4234
18192TIP3   OH276066   4.661   1.191  16.297 -0.4897 -0.4728  0.0566
18192TIP3    H176067   4.720   1.175  16.371  0.9521  1.1925 -0.6652
18192TIP3    H276068   4.697   1.268  16.254 -1.4346 -1.2386 -2.2494
18193TIP3   OH276069   3.668   2.767  13.309 -0.6880 -0.2744  0.6125
18193TIP3    H176070   3.734   2.825  13.349 -1.1044  1.7473 -1.4262
18193TIP3    H276071   3.585   2.812  13.324 -1.0574 -0.4675 -0.7538
18194TIP3   OH276072   5.491   0.431   3.532 -0.2046  0.6160 -0.2784
18194TIP3    H176073   5.479   0.348   3.578  1.8932 -0.2932 -1.2296
18194TIP3    H276074   5.404   0.471   3.531 -1.1596 -1.3045  0.6716
18195TIP3   OH276075   1.116   2.805  15.965 -0.2539 -0.3032  0.1878
18195TIP3    H176076   1.070   2.857  16.032  0.3001 -0.5916  0.8131
18195TIP3    H276077   1.059   2.806  15.889 -0.9698 -0.0864  0.7241
18196TIP3   OH276078   4.101   5.969   0.811 -0.2194 -0.8633 -0.0005
18196TIP3    H176079   4.197   5.967   0.815 -0.1993  0.1287  0.1887
18196TIP3    H276080   4.079   6.062   0.804 -1.1448 -1.1221 -0.7331
18197TIP3   OH276081   6.344   2.756   3.314 -0.4311  0.5258  0.3755
18197TIP3    H176082   6.317   2.731   3.226 -0.3992  0.1925  0.4605
18197TIP3    H276083   6.264   2.792   3.354 -0.3047  1.2340  0.0149
18198TIP3   OH276084   2.244   4.497   2.836 -0.8324 -0.1030  0.2649
18198TIP3    H176085   2.227   4.589   2.817  0.3010 -0.1917 -1.5150
18198TIP3    H276086   2.170   4.450   2.797 -1.2771  0.0338  0.9387
18199TIP3   OH276087   1.249   2.325   3.206 -0.2238  0.4352 -0.6781
18199TIP3    H176088   1.254   2.397   3.268  1.5924  1.3668 -1.8077
18199TIP3    H276089   1.173   2.345   3.151 -0.3325  0.9516 -0.3415
18200TIP3   OH276090   6.292   5.366  16.922 -0.4277  0.0885 -0.7603
18200TIP3    H176091   6.232   5.348  16.994 -0.0230 -0.9173 -0.6584
18200TIP3    H276092   6.303   5.282  16.878 -0.1862  0.5617 -1.6259
18201TIP3   OH276093   4.084   6.576   5.240 -0.3520 -0.2702  0.2640
18201TIP3    H176094   4.140   6.654   5.233 -1.3152  0.7319  2.5113
18201TIP3    H276095   4.114   6.518   5.170  0.9670  1.7649 -0.9682
18202TIP3   OH276096   2.643   3.411   0.098  0.1210 -0.3767  0.0022
18202TIP3    H176097   2.665   3.466   0.173 -1.5837  2.3607 -1.3184
18202TIP3    H276098   2.710   3.433   0.032  0.9128 -1.8703  0.2628
18203TIP3   OH276099   3.407   6.312  13.240 -0.4472 -0.3079  0.1880
18203TIP3    H176100   3.420   6.261  13.320  2.9218  1.2614  0.8160
18203TIP3    H276101   3.439   6.255  13.170  0.4689 -0.2025  0.5082
18204TIP3   OH276102   2.820   5.610   4.710 -0.1629 -0.4221  0.2028
18204TIP3    H176103   2.905   5.578   4.680  0.2970 -0.5234  1.5315
18204TIP3    H276104   2.812   5.697   4.672  0.1407 -0.7472 -0.6261
18205TIP3   OH276105   6.243   0.102  17.008 -0.4035 -0.3594 -0.1035
18205TIP3    H176106   6.294   0.183  17.014 -3.2045  1.4996  1.4754
18205TIP3    H276107   6.256   0.071  16.919  2.2262  0.7600 -0.1958
18206TIP3   OH276108   0.970   1.965  15.019  0.2805  0.5361 -0.5184
18206TIP3    H176109   0.995   2.051  14.984  2.8711 -0.1836 -0.5980
18206TIP3    H276110   0.986   1.905  14.946 -1.0725 -0.1292 -0.3066
18207TIP3   OH276111   0.786   6.216   3.760 -0.5455  0.1523  0.0499
18207TIP3    H176112   0.801   6.154   3.831  0.5174  0.1774 -0.1437
18207TIP3    H276113   0.835   6.181   3.686  0.7527  1.6204  0.1636
18208TIP3   OH276114   0.630   3.645   0.101 -0.4829 -0.1216 -0.2939
18208TIP3    H176115   0.555   3.702   0.120 -1.0041 -0.3176 -1.6053
18208TIP3    H276116   0.698   3.705   0.069 -0.3373 -0.0203  0.2081
18209TIP3   OH276117   2.830   4.885  11.683  0.0538  0.0373  0.0687
18209TIP3    H176118   2.800   4.795  11.692  2.1517 -0.8191 -0.8865
18209TIP3    H276119   2.894   4.897  11.753 -0.0105  0.6931  0.0253
18210TIP3   OH276120   1.925   2.999   3.644  0.8405  0.2618  0.1579
18210TIP3    H176121   1.905   3.071   3.704  0.2674 -0.6912  1.1459
18210TIP3    H276122   1.846   2.945   3.644  0.7806  0.2810 -1.5606
18211TIP3   OH276123   2.044   3.743   5.280 -0.2047  0.0759 -1.3081
18211TIP3    H176124   1.969   3.719   5.335 -1.3050  0.4076 -2.6187
18211TIP3    H276125   2.014   3.729   5.191  1.7098 -0.8961 -1.8518
18212TIP3   OH276126   2.215   6.370   0.673  0.0017  0.1021  0.0353
18212TIP3    H176127   2.147   6.314   0.710 -0.1808 -0.9397 -1.7819
18212TIP3    H276128   2.181   6.459   0.686 -1.2781 -0.3542  0.0050
18213TIP3   OH276129   4.643   0.371  16.967  0.0944 -0.3668 -1.4111
18213TIP3    H176130   4.550   0.352  16.976  0.4207 -1.3156  0.4816
18213TIP3    H276131   4.647   0.466  16.953 -1.0840 -0.0127  0.3845
18214TIP3   OH276132   3.672   6.496   0.335  0.1071 -1.0712 -0.7015
18214TIP3    H176133   3.596   6.545   0.365  0.4234 -0.5899 -0.6807
18214TIP3    H276134   3.636   6.413   0.302 -0.2938 -1.3716  0.4582
18215TIP3   OH276135   4.301   0.563  12.016 -0.0107 -0.3468 -0.1087
18215TIP3    H176136   4.323   0.626  12.084 -0.1664  0.4406 -0.7788
18215TIP3    H276137   4.206   0.570  12.007  0.2222  1.0615 -1.8365
18216TIP3   OH276138   1.035   1.486  15.368  0.0941 -0.3047 -0.3906
18216TIP3    H176139   1.114   1.439  15.341  0.4408 -0.0437  0.1597
18216TIP3    H276140   1.003   1.526  15.287  0.5442 -0.3826 -0.6134
18217TIP3   OH276141   3.329   5.757  12.176 -0.3383  0.3505 -0.3557
18217TIP3    H176142   3.373   5.697  12.115  1.8762  0.6625  0.8146
18217TIP3    H276143   3.381   5.837  12.173 -3.6047  2.6271 -2.3784
18218TIP3   OH276144   5.195   0.063  10.931 -0.3392  0.2732 -0.3435
18218TIP3    H176145   5.127   0.005  10.895 -1.4174  0.6778  0.9500
18218TIP3    H276146   5.177   0.148  10.891  0.1591  0.1161 -0.9113
18219TIP3   OH276147   6.211   5.330   5.057  0.1832 -0.2603  0.2213
18219TIP3    H176148   6.173   5.274   5.125 -0.1142  1.0770  1.2005
18219TIP3    H276149   6.200   5.419   5.090  0.0357  0.4412 -1.5999
18220TIP3   OH276150   2.327   0.328  11.406 -0.3188  0.0185 -0.2635
18220TIP3    H176151   2.309   0.330  11.500 -0.2931 -0.0592 -0.2575
18220TIP3    H276152   2.344   0.419  11.383  1.2409 -0.1547  0.1034
18221TIP3   OH276153   1.210   2.399  11.573 -0.3143 -0.5603 -0.2855
18221TIP3    H176154   1.163   2.461  11.517 -0.9758 -0.7436  0.0487
18221TIP3    H276155   1.148   2.380  11.643  0.1153 -1.1328 -0.0596
18222TIP3   OH276156   2.286   4.096   0.167  0.2946  0.7155  0.1264
18222TIP3    H176157   2.381   4.088   0.174  0.3068  1.2422  0.6406
18222TIP3    H276158   2.257   4.115   0.257 -0.2698  0.7716 -0.0665
18223TIP3   OH276159   4.732   4.317   0.090  0.0830 -0.0232 -0.1448
18223TIP3    H176160   4.765   4.405   0.077 -1.4374  0.6122  0.0987
18223TIP3    H276161   4.692   4.318   0.177  1.5059 -1.4509  0.5800
18224TIP3   OH276162   1.178   0.193  11.935 -0.9951  0.3548  0.3357
18224TIP3    H176163   1.232   0.151  11.867  1.1678  2.3240  0.7147
18224TIP3    H276164   1.116   0.247  11.886 -1.2051 -0.2447 -0.0822
18225TIP3   OH276165   5.804   2.686  13.406 -0.4545  0.3922 -0.3009
18225TIP3    H176166   5.740   2.655  13.470  1.2872 -0.1926  1.2508
18225TIP3    H276167   5.844   2.764  13.447 -0.4221  0.9718 -1.3977
18226TIP3   OH276168   0.191   3.701  12.459  0.8610  0.5397 -0.0434
18226TIP3    H176169   0.269   3.654  12.489  0.5152  0.2179  0.3703
18226TIP3    H276170   0.160   3.748  12.536 -0.5062 -0.9477  0.3704
18227TIP3   OH276171   5.544   3.197  10.992 -0.5035  0.6084  0.6895
18227TIP3    H176172   5.628   3.225  10.955 -1.1276  3.1175  0.9959
18227TIP3    H276173   5.531   3.109  10.957  1.9891  0.3613  0.2066
18228TIP3   OH276174   3.662   2.639   1.853  0.4495  0.1142  0.3026
18228TIP3    H176175   3.681   2.574   1.920 -0.2947 -0.4384 -0.0122
18228TIP3    H276176   3.580   2.680   1.880  1.0850  1.1965  0.6864
18229TIP3   OH276177   5.131   4.029  13.736 -0.3352  0.0332 -0.3301
18229TIP3    H176178   5.147   4.004  13.645 -0.1594  3.1252 -1.2466
18229TIP3    H276179   5.186   3.970  13.787  1.2561 -0.3426 -2.3746
18230TIP3   OH276180   4.984   6.630  13.698  0.1392  0.1993  0.1422
18230TIP3    H176181   5.021   6.667  13.778 -0.7035 -0.4340  0.8437
18230TIP3    H276182   4.990   6.700  13.633  0.7591  0.7398  0.7754
18231TIP3   OH276183   4.488   5.726  14.851 -0.0706 -0.7390 -0.0936
18231TIP3    H176184   4.452   5.728  14.762  0.4468  1.1694 -0.2968
18231TIP3    H276185   4.582   5.734  14.838 -0.0628  0.6037  0.6310
18232TIP3   OH276186   0.126   5.530   4.144  0.2170  0.4325 -0.0423
18232TIP3    H176187   0.077   5.478   4.208 -0.1286  0.0960 -0.5725
18232TIP3    H276188   0.202   5.476   4.123 -0.9667 -0.6298 -1.8116
18233TIP3   OH276189   6.267   6.341  15.453  0.0706  0.4741 -0.6188
18233TIP3    H176190   6.237   6.384  15.372 -2.2470  2.2506  1.0313
18233TIP3    H276191   6.222   6.388  15.523  1.7230 -1.2030  1.7380
18234TIP3   OH276192   4.010   3.206  12.516 -0.1295 -0.7471  0.0593
18234TIP3    H176193   3.919   3.209  12.487  0.0067  0.8894 -0.2967
18234TIP3    H276194   4.005   3.180  12.608 -0.8338 -2.0848 -0.3246
18235TIP3   OH276195   4.148   4.659   0.136 -0.9734  0.5255 -0.1810
18235TIP3    H176196   4.186   4.578   0.104  0.8193  0.9684  0.6736
18235TIP3    H276197   4.223   4.717   0.150 -2.1200  1.9997  0.1427
18236TIP3   OH276198   2.203   0.119  14.301  0.1220 -0.1431 -0.4185
18236TIP3    H176199   2.151   0.073  14.236  1.6634 -1.0397 -1.0817
18236TIP3    H276200   2.259   0.178  14.250  1.7004 -1.2086 -0.0057
18237TIP3   OH276201   1.093   0.999   1.832  0.3697  0.1887 -0.8014
18237TIP3    H176202   1.025   1.043   1.781 -0.3208  0.9216  0.6782
18237TIP3    H276203   1.133   0.937   1.771 -1.1321  0.2678 -1.9221
18238TIP3   OH276204   1.803   2.934  12.183 -0.3394  0.1965  0.3132
18238TIP3    H176205   1.726   2.952  12.128  0.0172  0.4352 -0.1094
18238TIP3    H276206   1.782   2.976  12.266  0.2284  2.1374 -0.4722
18239TIP3   OH276207   6.795   4.747  13.576 -0.4041  0.1054 -0.5255
18239TIP3    H176208   6.799   4.760  13.481  0.2077  0.6984 -0.4257
18239TIP3    H276209   6.735   4.814  13.607 -0.3464  0.1234 -0.4535
18240TIP3   OH276210   5.852   1.591   0.979 -0.1006 -0.1016 -0.0489
18240TIP3    H176211   5.945   1.592   1.004 -0.7354  1.6293  2.7222
18240TIP3    H276212   5.851   1.558   0.889  3.0497 -1.5039  0.3149
18241TIP3   OH276213   3.741   6.556  14.484 -0.2919 -0.4822 -0.1916
18241TIP3    H176214   3.823   6.602  14.472  1.3958 -2.7758  1.6410
18241TIP3    H276215   3.741   6.488  14.417 -1.5226  0.4867 -1.2227
18242TIP3   OH276216   5.329   4.409   4.442  0.0620 -0.0565 -0.0722
18242TIP3    H176217   5.255   4.397   4.501 -0.5329 -0.6046 -0.9028
18242TIP3    H276218   5.353   4.502   4.451 -1.9290  0.6123 -1.1483
18243TIP3   OH276219   4.922   5.348  13.554 -0.4087  0.1848  0.1676
18243TIP3    H176220   4.921   5.431  13.602 -0.8137  0.2899 -0.0210
18243TIP3    H276221   4.895   5.282  13.619  2.4220 -0.2219  1.0671
18244TIP3   OH276222   5.723   1.290  12.052 -0.2712 -0.4070  0.1792
18244TIP3    H176223   5.749   1.380  12.071 -0.8998 -0.3653  0.8525
18244TIP3    H276224   5.777   1.266  11.977 -0.0692  0.5175  0.0107
18245TIP3   OH276225   5.460   4.083   3.347  0.4165  0.0570  0.7263
18245TIP3    H176226   5.408   4.027   3.405 -1.4470  0.7069 -0.2171
18245TIP3    H276227   5.394   4.134   3.298  2.0002  2.0950  0.5995
18246TIP3   OH276228   3.988   5.635  15.061 -0.4425  0.3673  0.5679
18246TIP3    H176229   4.004   5.618  14.968 -0.3745  1.9902  0.2482
18246TIP3    H276230   4.008   5.552  15.105  1.4419  0.1198 -0.6559
18247TIP3   OH276231   4.400   1.528   3.466  0.7241 -0.5415  0.3306
18247TIP3    H176232   4.318   1.484   3.488  1.0759 -1.1438  0.4672
18247TIP3    H276233   4.466   1.458   3.467  0.8164 -0.6165 -2.5016
18248TIP3   OH276234   6.526   1.031   5.902 -0.3470 -0.9926 -0.2578
18248TIP3    H176235   6.531   1.057   5.811 -1.1901 -2.1860 -0.6712
18248TIP3    H276236   6.577   0.949   5.906  1.2781  0.0075  0.7524
18249TIP3   OH276237   4.911   5.451   2.259  0.0373  0.2515 -0.1733
18249TIP3    H176238   4.986   5.423   2.206  0.9907  1.4394  0.5036
18249TIP3    H276239   4.871   5.522   2.209 -0.5708 -0.2863 -0.4657
18250TIP3   OH276240   3.477   0.304   3.969 -0.2683 -0.2662 -0.7556
18250TIP3    H176241   3.485   0.237   3.902  1.9520 -0.6611 -0.1709
18250TIP3    H276242   3.538   0.278   4.038 -1.9624  0.4768  1.1518
18251TIP3   OH276243   1.152   2.537   0.366  0.7023 -0.6347  0.2119
18251TIP3    H176244   1.165   2.629   0.345 -0.3155 -0.9667 -2.3472
18251TIP3    H276245   1.057   2.528   0.377  0.2564 -1.8537 -3.1612
18252TIP3   OH276246   1.640   2.697  10.682  0.5074  0.0770  0.4214
18252TIP3    H176247   1.544   2.699  10.680  0.2975 -3.3684  0.8706
18252TIP3    H276248   1.664   2.770  10.739 -2.0119 -0.4127  2.2986
18253TIP3   OH276249   5.941   3.875   0.596  1.1755  0.3541  0.3915
18253TIP3    H176250   6.015   3.881   0.536  0.2474  1.7621 -0.6480
18253TIP3    H276251   5.864   3.871   0.540  0.4278 -1.2128  1.4498
18254TIP3   OH276252   2.624   2.518   4.428  0.3255 -0.5803 -0.0852
18254TIP3    H176253   2.544   2.485   4.470 -0.7639 -0.1880 -1.7304
18254TIP3    H276254   2.619   2.613   4.438 -0.2434 -0.4339 -1.5165
18255TIP3   OH276255   0.788   0.002   6.083  0.0686 -0.2514  0.1079
18255TIP3    H176256   0.830  -0.002   6.169  0.4783  2.5503  0.1214
18255TIP3    H276257   0.696   0.020   6.103  0.2356  0.7880 -0.0234
18256TIP3   OH276258   5.163   0.488   0.210 -0.1092  0.4651 -0.2100
18256TIP3    H176259   5.239   0.531   0.169 -0.4769  2.0615  0.7049
18256TIP3    H276260   5.090   0.508   0.152  0.2792 -2.0174 -1.6988
18257TIP3   OH276261   2.436   5.191   5.101  0.2953 -0.4104  0.1442
18257TIP3    H176262   2.438   5.286   5.092 -1.2964 -0.4800 -1.5884
18257TIP3    H276263   2.522   5.169   5.138  1.1650  1.5849 -0.5071
18258TIP3   OH276264   4.230   0.088  12.284  0.2147 -0.1003  0.1499
18258TIP3    H176265   4.301   0.076  12.221 -0.7361  0.7864 -1.1395
18258TIP3    H276266   4.255   0.032  12.358  1.8254 -0.4582 -0.6023
18259TIP3   OH276267   3.566   2.851  12.122 -0.2420 -0.1065 -0.2270
18259TIP3    H176268   3.556   2.894  12.036 -0.1046  1.2291  0.4020
18259TIP3    H276269   3.657   2.824  12.125  0.0437  0.8299 -0.0795
18260TIP3   OH276270   6.017   5.446  16.202  0.2651 -0.3214  0.4235
18260TIP3    H176271   5.967   5.517  16.162 -1.3589 -0.3022  2.3771
18260TIP3    H276272   6.109   5.471  16.189 -0.2614  1.4215 -0.1295
18261TIP3   OH276273   6.503   6.130   1.289 -0.1216  0.3471 -0.1459
18261TIP3    H176274   6.449   6.114   1.367  0.4131  1.0575  0.3917
18261TIP3    H276275   6.574   6.066   1.296 -0.4043 -0.0003 -0.3875
18262TIP3   OH276276   4.268   1.048   0.685  0.1166 -0.1438  0.1259
18262TIP3    H176277   4.290   0.962   0.649 -2.2880 -1.6800  1.9628
18262TIP3    H276278   4.200   1.082   0.627  0.2670 -0.0247  0.0219
18263TIP3   OH276279   1.674   4.058   4.800 -0.4274  0.3245  0.0519
18263TIP3    H176280   1.712   4.124   4.743  0.9670 -0.8471 -0.4378
18263TIP3    H276281   1.621   4.003   4.741  1.6833 -1.3951 -0.3841
18264TIP3   OH276282   4.260   5.088  12.931  0.3505  0.3021  0.0939
18264TIP3    H176283   4.340   5.116  12.976  0.4265  0.6998 -0.2790
18264TIP3    H276284   4.290   5.033  12.859  0.1952 -0.8416  0.8800
18265TIP3   OH276285   1.599   0.748   1.099  0.0497  0.1547 -0.0622
18265TIP3    H176286   1.578   0.661   1.135  2.1165  0.2606  1.5685
18265TIP3    H276287   1.536   0.760   1.028 -1.3279 -2.0001  0.6913
18266TIP3   OH276288   2.629   3.849   2.766 -0.2174  0.0209  0.1610
18266TIP3    H176289   2.537   3.877   2.765  0.4018  2.1516 -0.8937
18266TIP3    H276290   2.657   3.854   2.675  1.6759  2.0549  0.7790
18267TIP3   OH276291   4.377   1.545   2.130  0.3465  0.8470 -0.1687
18267TIP3    H176292   4.332   1.608   2.073 -1.3226  1.1084  1.3325
18267TIP3    H276293   4.330   1.550   2.213  1.2505 -1.1645  0.5403
18268TIP3   OH276294   4.973   4.600   5.648  0.3783 -0.0295  0.5076
18268TIP3    H176295   5.028   4.655   5.705 -3.1706  1.1884  3.1625
18268TIP3    H276296   4.953   4.523   5.702 -0.5435 -0.4122 -0.3599
18269TIP3   OH276297   0.300   6.355   4.675  0.3457 -0.4355 -0.0111
18269TIP3    H176298   0.364   6.289   4.701 -1.1831 -2.2589 -0.6548
18269TIP3    H276299   0.222   6.335   4.726 -0.2076  0.8211 -0.3149
18270TIP3   OH276300   2.405   3.631  13.135  0.2933 -0.2970 -0.0819
18270TIP3    H176301   2.371   3.579  13.062  1.0977  0.9064 -1.3594
18270TIP3    H276302   2.416   3.568  13.206  0.0553 -1.6250 -1.1841
18271TIP3   OH276303   3.972   2.192  13.656  0.1585  0.1935  0.4193
18271TIP3    H176304   3.956   2.161  13.567  1.4974  1.0367 -0.1523
18271TIP3    H276305   3.922   2.132  13.712 -1.0927 -0.0560 -0.9141
18272TIP3   OH276306   5.399   6.031  15.733 -0.3414 -0.1091 -0.2993
18272TIP3    H176307   5.438   5.952  15.695 -1.9490 -0.7947 -0.5965
18272TIP3    H276308   5.348   5.998  15.807  0.3921  0.8808  0.6744
18273TIP3   OH276309   2.387   4.262   5.276 -0.3487  0.5879  0.4075
18273TIP3    H176310   2.326   4.312   5.331  1.7223  0.7963  2.6740
18273TIP3    H276311   2.397   4.316   5.197 -4.3035 -0.2861 -0.8852
18274TIP3   OH276312   0.180   0.251  12.624  0.4829 -0.2480  0.0308
18274TIP3    H176313   0.088   0.262  12.647  0.5461 -0.8157  0.5959
18274TIP3    H276314   0.197   0.319  12.558 -0.4711 -0.4769 -0.4734
18275TIP3   OH276315   4.021   0.449   0.577  0.5146  0.1475  0.2366
18275TIP3    H176316   4.109   0.411   0.582  0.4615  0.1516  1.4545
18275TIP3    H276317   3.972   0.389   0.521  0.2973 -1.9209  2.4541
18276TIP3   OH276318   3.594   4.875   4.818  0.4440  0.1878  0.0079
18276TIP3    H176319   3.544   4.860   4.737 -0.3136 -0.0087  0.5066
18276TIP3    H276320   3.563   4.808   4.878 -0.1725  1.3333  1.0059
18277TIP3   OH276321   5.232   4.548   1.979  0.6305 -0.1046  0.4887
18277TIP3    H176322   5.217   4.583   2.067 -0.3479  3.7264 -1.0259
18277TIP3    H276323   5.327   4.551   1.967  0.6102  2.5088  0.3875
18278TIP3   OH276324   3.590   2.293  11.438 -0.2134 -0.4987  0.4468
18278TIP3    H176325   3.532   2.230  11.395  0.8050 -1.3500  0.2688
18278TIP3    H276326   3.546   2.315  11.520 -1.3153 -0.2502 -0.2039
18279TIP3   OH276327   1.447   3.211   3.915 -0.1968 -0.4053  1.1251
18279TIP3    H176328   1.482   3.297   3.938 -0.3523 -0.0365  0.0277
18279TIP3    H276329   1.379   3.194   3.980  0.6523 -0.2577  2.0915
18280TIP3   OH276330   3.058   5.843  14.159  0.1531  0.4273 -0.1444
18280TIP3    H176331   3.006   5.784  14.214 -0.7884  1.9814  0.6737
18280TIP3    H276332   3.145   5.802  14.156  0.0064 -0.1299  1.8144
18281TIP3   OH276333   0.652   4.222   3.039 -0.4416  0.1051 -0.2419
18281TIP3    H176334   0.686   4.291   2.982 -0.1397 -0.1738 -0.4019
18281TIP3    H276335   0.646   4.263   3.125  1.1318 -0.0817 -0.0175
18282TIP3   OH276336   2.330   0.701  14.812 -0.4545 -0.1503  0.0259
18282TIP3    H176337   2.254   0.730  14.761 -1.0278  1.3037  1.5812
18282TIP3    H276338   2.300   0.621  14.856 -1.4431  0.8235  1.2359
18283TIP3   OH276339   2.848   5.914  15.708 -0.4678  0.3561 -0.2100
18283TIP3    H176340   2.817   5.856  15.778  1.1539 -1.8832 -1.2104
18283TIP3    H276341   2.927   5.954  15.744  0.7882 -1.3651 -0.9242
18284TIP3   OH276342   5.157   0.490  13.481 -0.1325 -0.1981  0.2433
18284TIP3    H176343   5.132   0.560  13.540  0.1292  0.1203 -0.0198
18284TIP3    H276344   5.249   0.474  13.500  0.0987  0.2665 -0.4322
18285TIP3   OH276345   4.334   3.312  11.549 -0.0596 -0.0311  0.1126
18285TIP3    H176346   4.402   3.258  11.591 -0.6943  0.1465  1.4286
18285TIP3    H276347   4.252   3.279  11.586 -0.8223 -0.9608 -2.2490
18286TIP3   OH276348   5.945   0.588   1.874 -0.3784  0.4339  0.3928
18286TIP3    H176349   6.022   0.645   1.868 -2.0991  2.8529 -0.1342
18286TIP3    H276350   5.961   0.519   1.810  0.3623  2.2056 -1.4395
18287TIP3   OH276351   0.477   1.212   1.859  0.6759  0.2318  0.3851
18287TIP3    H176352   0.459   1.306   1.860  1.8137  0.4632  0.7548
18287TIP3    H276353   0.510   1.195   1.771 -1.3967 -0.2294 -0.3590
18288TIP3   OH276354   1.453   1.772  11.632  0.3929 -0.1479 -0.6102
18288TIP3    H176355   1.400   1.836  11.679  0.4929 -1.6862  1.8133
18288TIP3    H276356   1.533   1.764  11.685  0.5702 -1.9040 -1.0788
18289TIP3   OH276357   6.116   3.687  16.749  0.2345  0.1758 -0.3143
18289TIP3    H176358   6.194   3.650  16.706  1.0702  1.4482  0.0467
18289TIP3    H276359   6.124   3.660  16.841  1.4489  2.0642  0.2029
18290TIP3   OH276360   4.182   2.766  16.902 -0.7970  0.3273  0.4709
18290TIP3    H176361   4.165   2.822  16.977  1.6293  0.9529  0.6155
18290TIP3    H276362   4.222   2.824  16.837 -1.3450 -0.5491 -0.6935
18291TIP3   OH276363   5.376   3.837  16.905 -0.0499  0.4586 -0.0440
18291TIP3    H176364   5.401   3.804  16.819 -1.3685  0.2589 -0.3855
18291TIP3    H276365   5.281   3.850  16.898 -0.1737  0.4604  1.3701
18292TIP3   OH276366   3.061   3.800   1.876  0.1728 -0.4371 -0.0339
18292TIP3    H176367   3.053   3.718   1.926 -0.4329  1.7701  3.9031
18292TIP3    H276368   3.016   3.782   1.794 -0.4469 -3.8533  0.8724
18293TIP3   OH276369   0.534   5.453   2.467  0.3383  0.3580  0.6439
18293TIP3    H176370   0.458   5.510   2.481  1.3261  1.6828  0.7416
18293TIP3    H276371   0.568   5.436   2.554  0.4834  0.2132  0.5591
18294TIP3   OH276372   6.307   6.740  12.936  0.6660  0.1782 -0.1215
18294TIP3    H176373   6.301   6.785  13.020  1.0725 -0.2463  0.1406
18294TIP3    H276374   6.386   6.685  12.943 -0.4621 -1.5094  0.0364
18295TIP3   OH276375   0.625   0.709  14.094 -0.0582  0.2345  0.3530
18295TIP3    H176376   0.682   0.643  14.133  2.1271  1.5809 -0.4181
18295TIP3    H276377   0.571   0.659  14.031 -0.7242 -1.2584  2.0205
18296TIP3   OH276378   3.416   4.165  17.083  0.1608  0.3341 -0.4265
18296TIP3    H176379   3.486   4.224  17.056  1.9043 -0.6002  1.7619
18296TIP3    H276380   3.435   4.082  17.038 -0.0368  0.3074 -0.4645
18297TIP3   OH276381   1.584   2.280   2.671  0.1894 -0.1595 -0.3007
18297TIP3    H176382   1.610   2.358   2.721 -1.3709  0.9266 -1.0813
18297TIP3    H276383   1.539   2.225   2.735 -0.7880  0.6915 -0.2232
18298TIP3   OH276384   3.679   4.535   5.654 -0.3828 -0.1773 -0.2893
18298TIP3    H176385   3.689   4.478   5.578  2.4175 -0.2679  0.0256
18298TIP3    H276386   3.694   4.478   5.729 -3.5242 -0.1830  0.4781
18299TIP3   OH276387   3.767   1.279  12.999 -0.8890 -0.2379 -0.0760
18299TIP3    H176388   3.682   1.261  12.959 -1.4727  1.4291  0.3382
18299TIP3    H276389   3.830   1.269  12.927 -1.4460 -1.1912 -0.4540
18300TIP3   OH276390   0.844   5.560   5.431 -0.2326  0.3537 -0.3255
18300TIP3    H176391   0.754   5.552   5.400 -1.1000  1.6730  1.6646
18300TIP3    H276392   0.840   5.537   5.524  1.4324  0.7576 -0.1088
18301TIP3   OH276393   4.114   1.516   0.175 -0.2710  0.7989 -0.0696
18301TIP3    H176394   4.152   1.468   0.102 -0.7197  0.2832  0.0324
18301TIP3    H276395   4.179   1.584   0.195  0.2098  0.4574 -0.4372
18302TIP3   OH276396   2.169   3.200   1.227 -0.3628 -0.2087 -0.3576
18302TIP3    H176397   2.204   3.235   1.145  0.4153  0.6272  0.3124
18302TIP3    H276398   2.226   3.126   1.248 -0.5055 -0.3654 -0.5184
18303TIP3   OH276399   4.406   0.184   0.358  0.4105  0.1626  0.7723
18303TIP3    H176400   4.357   0.262   0.382  1.3874  1.0229  0.0669
18303TIP3    H276401   4.381   0.166   0.268  2.6456  1.6795 -0.2317
18304TIP3   OH276402   3.050   6.337   4.862 -0.0152 -0.1191 -0.0246
18304TIP3    H176403   3.121   6.306   4.805  0.5541  0.9098  0.1028
18304TIP3    H276404   3.086   6.414   4.906 -0.1855 -1.3342  2.3380
18305TIP3   OH276405   0.852   0.166   2.620  0.3353 -0.2300 -0.9449
18305TIP3    H176406   0.762   0.151   2.649 -0.1345 -0.6836 -2.5159
18305TIP3    H276407   0.903   0.098   2.665 -0.1847 -0.3178 -0.4682
18306TIP3   OH276408   2.903   2.442  12.938 -0.3740  0.6312  0.3973
18306TIP3    H176409   2.963   2.417  13.008  1.7015 -0.1396 -1.5174
18306TIP3    H276410   2.857   2.361  12.915  0.4691  0.3863 -0.4758
18307TIP3   OH276411   2.154   0.191  11.072  0.7904 -0.4549  0.1229
18307TIP3    H176412   2.156   0.095  11.078 -0.0001 -0.5803 -1.0911
18307TIP3    H276413   2.177   0.209  10.981  1.9609  0.5801  0.6062
18308TIP3   OH276414   3.297   3.768   5.609 -0.1571 -0.4053  0.0917
18308TIP3    H176415   3.350   3.835   5.566 -1.0366 -0.3005 -0.8893
18308TIP3    H276416   3.360   3.712   5.654  0.5640  1.4283  1.4770
18309TIP3   OH276417   6.006   2.563   0.712 -0.8028 -0.1928 -0.5644
18309TIP3    H176418   5.983   2.656   0.713  0.3728  0.1287 -1.6492
18309TIP3    H276419   6.101   2.561   0.700 -0.5782 -1.5272  0.9777
18310TIP3   OH276420   5.787   1.553  16.375  0.0999  0.0684  0.9312
18310TIP3    H176421   5.740   1.575  16.456 -2.2240 -0.6524 -0.1375
18310TIP3    H276422   5.724   1.571  16.306  2.3173  1.5097 -0.8650
18311TIP3   OH276423   6.564   0.433   5.293  0.2280 -0.1352 -0.1824
18311TIP3    H176424   6.483   0.387   5.315 -0.6879  1.5633  0.1691
18311TIP3    H276425   6.631   0.365   5.296 -1.1330 -1.5513 -0.2591
18312TIP3   OH276426   1.007   5.888   5.098 -0.1663 -0.1040 -0.0980
18312TIP3    H176427   1.075   5.954   5.110 -0.4483 -0.1969  2.8435
18312TIP3    H276428   1.034   5.814   5.152 -1.8835 -0.7147  0.0110
18313TIP3   OH276429   2.058   0.695  11.216  0.2020 -0.5876  0.3908
18313TIP3    H176430   1.990   0.667  11.277 -2.6079  1.3904 -1.5803
18313TIP3    H276431   2.046   0.790  11.209  2.6703 -0.2881 -0.7179
18314TIP3   OH276432   0.160   5.008   1.483 -0.1923 -0.4457 -0.1870
18314TIP3    H176433   0.110   5.089   1.474 -0.3056 -0.2899  1.4891
18314TIP3    H276434   0.221   5.009   1.409 -0.9810  0.5849 -0.8502
18315TIP3   OH276435   2.035   1.722   0.444 -0.1276 -0.4942 -0.1909
18315TIP3    H176436   1.952   1.693   0.483  0.4544 -0.1830  1.3432
18315TIP3    H276437   2.021   1.814   0.424 -0.8593 -0.9520 -1.9893
18316TIP3   OH276438   4.923   1.689   2.103  0.4330 -0.0227 -0.3042
18316TIP3    H176439   4.929   1.657   2.013 -0.4697  1.2943 -0.8637
18316TIP3    H276440   4.848   1.643   2.139  1.6122 -1.5886  0.2580
18317TIP3   OH276441   4.834   4.937   6.048 -0.1569 -0.1223 -0.3731
18317TIP3    H176442   4.763   4.947   6.111 -0.5685  0.9549 -0.9688
18317TIP3    H276443   4.904   4.993   6.082 -0.7260  1.2275 -1.3060
18318TIP3   OH276444   2.978   6.404  12.153 -0.8984  0.2219 -0.7251
18318TIP3    H176445   2.964   6.494  12.184  2.9053  0.9008 -0.4758
18318TIP3    H276446   2.982   6.413  12.057  0.7728  0.6274 -0.6464
18319TIP3   OH276447   0.319   2.283   3.362 -0.0401 -0.2781 -0.6205
18319TIP3    H176448   0.341   2.248   3.449  2.4528  0.9916 -0.6436
18319TIP3    H276449   0.357   2.220   3.301  0.0492 -0.1132 -0.7366
18320TIP3   OH276450   2.562   2.893  16.506 -0.1627  0.0699  0.3876
18320TIP3    H176451   2.582   2.813  16.457 -0.2486  0.4650 -0.3161
18320TIP3    H276452   2.549   2.864  16.596  0.0034 -0.6797  0.1774
18321TIP3   OH276453   3.574   6.752  14.333  0.4260 -0.9916 -0.6134
18321TIP3    H176454   3.619   6.673  14.362  2.3649  0.4398  0.5178
18321TIP3    H276455   3.600   6.819  14.396 -0.6586  0.7044 -1.8833
18322TIP3   OH276456   3.783   5.152  15.116  0.4770  0.5027 -1.1371
18322TIP3    H176457   3.869   5.111  15.121 -0.3724 -1.3182 -0.4627
18322TIP3    H276458   3.781   5.215  15.188  1.1075  0.2756 -0.9228
18323TIP3   OH276459   1.852   0.172   0.101 -0.4225  0.3851  0.1675
18323TIP3    H176460   1.806   0.208   0.177  0.1860 -1.5546  1.5534
18323TIP3    H276461   1.902   0.246   0.066 -0.1749  1.2070  2.1064
18324TIP3   OH276462   4.328   3.670  14.561  0.4824 -0.8074 -0.5176
18324TIP3    H176463   4.421   3.681  14.577  0.6449 -0.7524 -1.4445
18324TIP3    H276464   4.308   3.731  14.490  0.1431 -2.1709 -1.6345
18325TIP3   OH276465   6.012   6.175  14.931 -0.1471  0.3764  0.5985
18325TIP3    H176466   6.018   6.180  14.835  1.2184  0.2466  0.6568
18325TIP3    H276467   5.968   6.091  14.948 -1.3465  0.8775  0.0843
18326TIP3   OH276468   1.044   0.830  12.074 -0.0009  0.2038  0.1118
18326TIP3    H176469   0.986   0.764  12.036  2.2487 -0.7700 -1.9560
18326TIP3    H276470   1.100   0.857  12.001  0.2372  3.2473  1.2960
18327TIP3   OH276471   1.917   5.549  13.213  1.2364 -0.6261  0.3095
18327TIP3    H176472   2.007   5.541  13.180  1.2629 -0.1315  0.2576
18327TIP3    H276473   1.898   5.462  13.250  2.3353 -0.2837  1.8062
18328TIP3   OH276474   4.144   2.744  13.385 -0.3762  0.4313 -0.6864
18328TIP3    H176475   4.224   2.741  13.438 -0.1375 -2.1444 -1.0651
18328TIP3    H276476   4.160   2.682  13.313 -3.3633 -1.7261  0.2948
18329TIP3   OH276477   0.873   6.837   6.339  0.0591 -0.0783 -0.1909
18329TIP3    H176478   0.875   6.916   6.393 -0.1774 -0.9112  1.0843
18329TIP3    H276479   0.784   6.803   6.348  0.8856 -1.9942  1.5932
18330TIP3   OH276480   4.548   3.690  11.437  0.3554  0.5514  0.1547
18330TIP3    H176481   4.569   3.597  11.443  1.7974  0.9280  1.6932
18330TIP3    H276482   4.498   3.698  11.356 -0.7148 -1.7041  0.5137
18331TIP3   OH276483   4.833   4.966  11.372 -0.1205 -0.1044 -0.3342
18331TIP3    H176484   4.911   4.992  11.421 -0.5734  1.2351 -0.2744
18331TIP3    H276485   4.863   4.957  11.282  0.2762 -0.4533 -0.1697
18332TIP3   OH276486   2.316   2.063  14.775  0.0142  0.2238 -0.7783
18332TIP3    H176487   2.400   2.050  14.732  1.3234 -1.1594  1.9611
18332TIP3    H276488   2.337   2.066  14.868 -3.1500 -2.9542  0.2794
18333TIP3   OH276489   0.715   6.629   3.418  0.2956  0.3136 -0.1997
18333TIP3    H176490   0.764   6.556   3.380 -1.0637  0.6535 -2.8234
18333TIP3    H276491   0.642   6.589   3.463  2.2501 -0.1353  2.8840
18334TIP3   OH276492   6.595   0.573  15.615 -0.1229  0.2677  0.2608
18334TIP3    H176493   6.664   0.619  15.663  0.7670 -0.5454 -0.2106
18334TIP3    H276494   6.532   0.642  15.592  0.7667  1.1148  0.2863
18335TIP3   OH276495   6.083   3.522   4.517 -0.0647 -0.0279  0.1256
18335TIP3    H176496   6.103   3.556   4.605 -1.2305 -2.4809  1.4398
18335TIP3    H276497   6.159   3.469   4.494 -0.1226 -0.0730  0.0380
18336TIP3   OH276498   6.541   1.490   0.664  0.5137 -0.1137  1.0286
18336TIP3    H176499   6.558   1.397   0.673 -0.4117 -0.2635  1.2782
18336TIP3    H276500   6.455   1.503   0.702 -0.2854  0.4899 -0.8486
18337TIP3   OH276501   5.799   2.366   0.113 -0.4053  0.1000 -0.5984
18337TIP3    H176502   5.777   2.273   0.120 -0.4285  0.1499  0.0815
18337TIP3    H276503   5.845   2.385   0.194  1.1388  0.2780 -1.4752
18338TIP3   OH276504   2.045   1.831  11.709 -0.3010  0.2504 -0.7780
18338TIP3    H176505   2.090   1.846  11.792 -1.0064  1.4323 -0.5799
18338TIP3    H276506   2.106   1.862  11.643 -0.5109  1.1776 -0.5547
18339TIP3   OH276507   0.302   6.183   1.910 -0.1213 -0.0221 -0.0590
18339TIP3    H176508   0.236   6.243   1.944 -0.3039 -0.5152  0.4766
18339TIP3    H276509   0.350   6.155   1.988 -1.1871 -1.9573 -0.0507
18340TIP3   OH276510   0.212   4.203   0.361 -0.4689 -0.7492  0.2352
18340TIP3    H176511   0.241   4.200   0.452 -1.1715 -0.3585  0.4813
18340TIP3    H276512   0.223   4.295   0.335  2.5238 -1.3548 -1.0407
18341TIP3   OH276513   2.175   2.944  12.507  1.0558 -0.3441 -0.5339
18341TIP3    H176514   2.230   2.866  12.515  0.5165 -0.8238 -1.3771
18341TIP3    H276515   2.109   2.920  12.441 -0.9386 -0.2435  1.3018
18342TIP3   OH276516   5.971   3.800  14.550  0.5258 -0.4306  0.0057
18342TIP3    H176517   6.054   3.768  14.515  0.6171  0.4407 -0.6127
18342TIP3    H276518   5.948   3.873  14.492  0.1059  0.3215  1.1017
18343TIP3   OH276519   6.555   0.671  16.532 -0.1364 -0.0611  0.4970
18343TIP3    H176520   6.530   0.601  16.471  0.1023  0.8486 -0.6833
18343TIP3    H276521   6.622   0.721  16.485 -0.8875  1.4520  0.9493
18344TIP3   OH276522   3.186   1.625  15.378  0.1288  0.2084  0.0962
18344TIP3    H176523   3.127   1.678  15.325  0.5152  3.2476  2.3958
18344TIP3    H276524   3.163   1.646  15.469  1.4110 -2.4387  1.1502
18345TIP3   OH276525   4.205   3.599  14.044  0.4440  0.4557 -0.3657
18345TIP3    H176526   4.211   3.679  14.096 -0.5073  1.6879 -2.0313
18345TIP3    H276527   4.203   3.528  14.108  0.4765  1.8086  1.1952
18346TIP3   OH276528   1.904   5.150  12.759 -0.3224 -0.0256 -0.0103
18346TIP3    H176529   1.889   5.230  12.808 -0.4423 -0.4772  0.7163
18346TIP3    H276530   1.843   5.087  12.798 -1.7030  0.0547 -1.9241
18347TIP3   OH276531   6.530   0.044   2.531  0.4204 -0.2445  1.2743
18347TIP3    H176532   6.499   0.012   2.616 -1.0453  0.0075  0.8595
18347TIP3    H276533   6.472   0.117   2.510  1.7482  0.7084  0.7590
18348TIP3   OH276534   0.366   0.009   4.883 -0.0758 -0.2648  0.5386
18348TIP3    H176535   0.409  -0.068   4.919 -2.8085 -1.4371  1.5786
18348TIP3    H276536   0.385   0.006   4.789  1.9000 -0.7585  0.9069
18349TIP3   OH276537   2.911   0.530   0.031 -0.0396  0.1258 -0.6043
18349TIP3    H176538   2.900   0.449  -0.017 -0.2885 -0.4352  0.3658
18349TIP3    H276539   2.961   0.587  -0.028 -1.5234 -0.0222 -2.0771
18350TIP3   OH276540   0.849   2.568  12.368 -0.1589  0.7391 -0.7949
18350TIP3    H176541   0.931   2.600  12.331 -0.5129  0.4156 -1.8728
18350TIP3    H276542   0.810   2.514  12.299 -0.5514 -0.3631  0.2394
18351TIP3   OH276543   0.185   2.864  11.372  0.0223 -0.1566  0.0262
18351TIP3    H176544   0.216   2.777  11.398 -0.5930 -0.8287 -1.3955
18351TIP3    H276545   0.124   2.889  11.441  0.4069 -0.7197  0.5900
18352TIP3   OH276546   2.063   4.355   4.453  0.1694  0.2996  0.6392
18352TIP3    H176547   2.096   4.275   4.493 -0.9254 -0.9918 -0.9069
18352TIP3    H276548   2.007   4.325   4.382  2.3626  2.4034 -2.2325
18353TIP3   OH276549   3.989   0.162   1.153 -0.3218 -0.6074  0.1591
18353TIP3    H176550   3.927   0.094   1.123  0.9538 -1.0296 -1.6798
18353TIP3    H276551   4.071   0.115   1.166 -0.1621  0.0810  1.8858
18354TIP3   OH276552   6.544   0.008  14.306  0.5510 -0.6532  0.0171
18354TIP3    H176553   6.551  -0.040  14.388 -0.7342 -1.0302 -0.0792
18354TIP3    H276554   6.626  -0.012  14.260  2.1054  0.9598  1.8994
18355TIP3   OH276555   1.651   5.765  15.806 -0.0827  0.4212 -0.5663
18355TIP3    H176556   1.607   5.849  15.795 -0.3155  0.3141 -0.4583
18355TIP3    H276557   1.739   5.779  15.771 -0.8673  0.0377 -2.8458
18356TIP3   OH276558   1.646   0.247   1.493 -0.0091  0.4770 -0.2829
18356TIP3    H176559   1.711   0.285   1.434  0.2631  0.9950  0.3340
18356TIP3    H276560   1.575   0.219   1.436  0.7143 -0.0194 -0.9630
18357TIP3   OH276561   0.619   2.938   3.274 -0.4144  0.2595 -0.4277
18357TIP3    H176562   0.660   2.852   3.267  0.3629  0.5670  0.1415
18357TIP3    H276563   0.693   2.999   3.285 -1.0368  0.7515  1.3883
18358TIP3   OH276564   4.902   2.849  15.550  0.1104 -0.1311 -0.5832
18358TIP3    H176565   4.941   2.762  15.558 -0.9334 -0.5381  0.3953
18358TIP3    H276566   4.853   2.861  15.632 -0.7912  0.8528 -1.2391
18359TIP3   OH276567   2.423   4.853  14.307  0.0530  0.3846 -0.9216
18359TIP3    H176568   2.458   4.766  14.327  0.3721  0.6342 -0.3634
18359TIP3    H276569   2.351   4.864  14.368  0.1239  0.5779 -0.8731
18360TIP3   OH276570   1.207   3.613  16.760 -0.1478  0.0658  0.1113
18360TIP3    H176571   1.225   3.528  16.718  1.3709  0.8795 -1.0000
18360TIP3    H276572   1.287   3.633  16.808 -0.1934  1.2190 -0.2756
18361TIP3   OH276573   5.085   0.497   4.934  0.7594 -0.0172  0.3273
18361TIP3    H176574   5.051   0.551   4.863  1.5243  0.1558  0.0939
18361TIP3    H276575   5.038   0.414   4.926 -1.4562  1.0182  1.5117
18362TIP3   OH276576   1.912   4.279  11.135  0.4702  0.4083  0.1434
18362TIP3    H176577   1.976   4.222  11.179  1.1069  0.7057 -0.3760
18362TIP3    H276578   1.836   4.279  11.192  0.3223 -1.2453  0.0052
18363TIP3   OH276579   2.403   5.343  11.803  0.3921  0.0683  0.1835
18363TIP3    H176580   2.401   5.248  11.788  0.6798  0.0917 -0.0248
18363TIP3    H276581   2.327   5.376  11.756  0.8507  0.0480 -0.6028
18364TIP3   OH276582   1.576   5.906   1.165 -0.2335 -0.1477 -0.3754
18364TIP3    H176583   1.647   5.862   1.212 -0.6614  1.0314  1.5008
18364TIP3    H276584   1.496   5.876   1.209 -0.6616  0.9883 -0.3624
18365TIP3   OH276585   5.443   1.745  14.655  0.1236  0.0474  0.2754
18365TIP3    H176586   5.402   1.750  14.569  0.1844 -1.7891  0.0936
18365TIP3    H276587   5.370   1.748  14.717 -0.0456 -0.0989  0.0833
18366TIP3   OH276588   5.779   1.926   4.924 -0.5358  0.1303 -0.1516
18366TIP3    H176589   5.705   1.983   4.943 -0.2327  0.7961 -0.9376
18366TIP3    H276590   5.745   1.863   4.860 -0.3136  0.6842 -0.8162
18367TIP3   OH276591   5.828   3.298   4.376  0.3999 -0.1676 -0.0534
18367TIP3    H176592   5.918   3.272   4.353  1.4955  1.6397  1.8168
18367TIP3    H276593   5.819   3.386   4.340 -0.8106 -0.4896 -0.5788
18368TIP3   OH276594   3.527   1.547   0.938 -0.5743 -0.2145 -0.0077
18368TIP3    H176595   3.557   1.472   0.887 -1.4602  0.1396 -1.1031
18368TIP3    H276596   3.607   1.589   0.969  0.0646  0.0445 -1.8455
18369TIP3   OH276597   1.482   3.828   5.037 -0.1753  0.5343 -0.2216
18369TIP3    H176598   1.460   3.831   5.130 -0.5057  2.8358 -0.3008
18369TIP3    H276599   1.410   3.781   4.996  1.2235 -2.9119  0.8860
18370TIP3   OH276600   6.617   5.687   1.728 -0.4220  1.1495  0.2142
18370TIP3    H176601   6.668   5.646   1.797  0.1737  1.3319 -0.1123
18370TIP3    H276602   6.661   5.770   1.712  2.0105 -0.5491 -3.1985
18371TIP3   OH276603   5.170   6.023   4.718  0.3026 -0.2562  0.3041
18371TIP3    H176604   5.159   5.945   4.663  0.3705 -0.4087  0.5057
18371TIP3    H276605   5.166   6.096   4.657 -1.2582 -0.3275  0.2720
18372TIP3   OH276606   6.339   6.040   1.478 -0.0013 -0.0274  0.3751
18372TIP3    H176607   6.370   6.043   1.569  1.2447  0.2263 -0.0437
18372TIP3    H276608   6.244   6.053   1.485 -0.1666 -1.5687  1.7553
18373TIP3   OH276609   1.762   3.103   0.840  0.1636  0.5680 -0.2726
18373TIP3    H176610   1.690   3.044   0.860  1.4669 -1.4177 -1.1256
18373TIP3    H276611   1.825   3.089   0.910 -0.0254  1.9285  0.2057
18374TIP3   OH276612   4.440   5.730  14.572  0.0623  0.0674  0.1796
18374TIP3    H176613   4.357   5.732  14.524 -0.3785 -0.9033  0.8600
18374TIP3    H276614   4.485   5.810  14.546 -0.4277 -0.1225 -1.3730
18375TIP3   OH276615   3.819   3.990  13.413  0.3878  0.4349  0.3863
18375TIP3    H176616   3.776   3.951  13.490  2.4442 -1.3126  0.7451
18375TIP3    H276617   3.892   3.931  13.394 -0.7426  0.0659 -3.7343
18376TIP3   OH276618   5.913   1.551  16.842  0.0897  0.3630 -0.8333
18376TIP3    H176619   5.833   1.591  16.873 -0.5848 -1.2507 -0.3994
18376TIP3    H276620   5.965   1.534  16.921 -0.0628 -0.4799 -0.9024
18377TIP3   OH276621   2.247   2.418   3.270  0.3055 -0.2221 -0.2426
18377TIP3    H176622   2.184   2.353   3.302  0.7698  0.2526  1.7443
18377TIP3    H276623   2.245   2.487   3.335  1.8499  0.4742 -0.9009
18378TIP3   OH276624   0.861   4.242   1.179  0.2723 -0.5036  0.6997
18378TIP3    H176625   0.876   4.186   1.255 -0.8595 -0.3988  1.0145
18378TIP3    H276626   0.778   4.286   1.197  0.0740 -0.3375 -0.5050
18379TIP3   OH276627   2.140   5.620  13.898  0.0522 -0.3826  0.0522
18379TIP3    H176628   2.219   5.657  13.859 -0.5554  0.5420 -0.3503
18379TIP3    H276629   2.103   5.691  13.951  0.2467 -1.2616  1.4068
18380TIP3   OH276630   0.255   3.863   0.993 -0.6432  0.1292 -0.0724
18380TIP3    H176631   0.164   3.888   0.977 -0.3948  0.7402 -0.5689
18380TIP3    H276632   0.277   3.904   1.077 -0.7386  0.2216 -0.0923
18381TIP3   OH276633   3.808   0.440   2.461 -0.3634  0.4513 -0.3183
18381TIP3    H176634   3.859   0.492   2.399 -0.2094  0.2658 -0.3476
18381TIP3    H276635   3.765   0.505   2.517  0.5514  0.5971  0.2350
18382TIP3   OH276636   1.618   6.079   3.545 -0.1667 -0.4197  0.1556
18382TIP3    H176637   1.701   6.120   3.571  0.5449 -1.7697  0.0671
18382TIP3    H276638   1.632   6.052   3.455 -0.1678 -1.9378  0.5783
18383TIP3   OH276639   5.830   6.114   3.144 -0.1130  0.0715 -0.2766
18383TIP3    H176640   5.766   6.126   3.074  1.3278  1.4182 -1.4324
18383TIP3    H276641   5.866   6.202   3.158  1.9755 -0.7716 -0.1573
18384TIP3   OH276642   6.619   6.563  12.273  0.0069  0.0032  0.1838
18384TIP3    H176643   6.596   6.471  12.290  1.4427 -0.2602  0.9181
18384TIP3    H276644   6.680   6.559  12.199  0.5120  0.2933  0.5747
18385TIP3   OH276645   3.303   0.122  11.811 -0.4985 -0.4066  0.0470
18385TIP3    H176646   3.337   0.085  11.729  1.6799  0.7646  0.3692
18385TIP3    H276647   3.345   0.208  11.818 -3.0617  0.8902  0.8602
18386TIP3   OH276648   0.768   4.480  12.821  0.5196 -0.3719 -0.5464
18386TIP3    H176649   0.795   4.438  12.739 -0.8903  0.7073 -1.5975
18386TIP3    H276650   0.805   4.568  12.816 -0.7059  0.1523 -0.6664
18387TIP3   OH276651   2.490   5.152  12.604 -0.1451 -0.4517 -0.5252
18387TIP3    H176652   2.548   5.228  12.600 -0.5396  0.3931  4.1321
18387TIP3    H276653   2.402   5.189  12.615 -0.4239 -1.5152  1.1570
18388TIP3   OH276654   0.457   6.185  11.657 -0.1088  0.3805 -0.0700
18388TIP3    H176655   0.538   6.136  11.669  0.2537  1.2539  1.1951
18388TIP3    H276656   0.435   6.217  11.744 -2.2051 -0.4154 -0.2544
18389TIP3   OH276657   4.254   1.673  13.494  0.2626  0.1513 -0.5040
18389TIP3    H176658   4.184   1.719  13.541  0.4559  1.6598 -1.6283
18389TIP3    H276659   4.332   1.689  13.547  0.4225  1.5930 -1.1317
18390TIP3   OH276660   6.357   6.737  11.403  0.3306  0.4702  0.5613
18390TIP3    H176661   6.368   6.646  11.377  2.1025  1.0889 -1.1268
18390TIP3    H276662   6.280   6.767  11.356  0.2600  0.0815  0.4300
18391TIP3   OH276663   5.979   4.229  14.712  0.2501 -0.1722  0.0046
18391TIP3    H176664   6.025   4.153  14.747  1.3540 -0.4648 -1.9756
18391TIP3    H276665   6.046   4.297  14.705 -0.3044  0.3787 -0.0853
18392TIP3   OH276666   6.796   0.137  11.978  0.4019 -0.0823  0.0642
18392TIP3    H176667   6.808   0.135  11.883 -0.8126  0.4294 -0.1093
18392TIP3    H276668   6.740   0.213  11.993  0.1880 -0.4505  1.1513
18393TIP3   OH276669   0.436   1.724  13.591  0.4684  0.6960 -0.3520
18393TIP3    H176670   0.479   1.684  13.516 -0.4175  0.5253 -0.7800
18393TIP3    H276671   0.396   1.804  13.556  1.9655  1.8273  0.4282
18394TIP3   OH276672   0.789   0.192  12.262 -0.4651  0.1761  1.1302
18394TIP3    H176673   0.868   0.179  12.209  0.2068  1.6607  1.7099
18394TIP3    H276674   0.719   0.154  12.209  0.4853 -0.3121  0.1611
18395TIP3   OH276675   4.151   1.087  15.027 -0.2275 -0.1653 -0.3195
18395TIP3    H176676   4.196   1.157  15.075 -1.0064 -0.2812  0.6013
18395TIP3    H276677   4.216   1.057  14.962  1.0023 -0.2841  0.9193
18396TIP3   OH276678   4.755   3.792   6.189 -0.3880 -0.7491  0.4513
18396TIP3    H176679   4.667   3.811   6.222  0.1537  1.7397  0.6002
18396TIP3    H276680   4.814   3.819   6.258  0.6219  1.3236 -1.1152
18397TIP3   OH276681   3.069   6.848   0.558 -0.3323 -0.0331 -0.3114
18397TIP3    H176682   3.035   6.768   0.597 -0.2510 -0.2168 -0.6110
18397TIP3    H276683   3.106   6.898   0.631 -0.9036 -0.0042 -0.0420
18398TIP3   OH276684   1.122   1.554   2.833 -0.0488 -0.0954 -0.2202
18398TIP3    H176685   1.166   1.626   2.789 -1.0715  0.0366 -1.0718
18398TIP3    H276686   1.111   1.487   2.765 -0.2038 -0.5600  0.2493
18399TIP3   OH276687   4.058   2.665  14.674  0.3963 -0.2566  0.2226
18399TIP3    H176688   4.035   2.627  14.589  1.8627 -0.7957  0.0424
18399TIP3    H276689   4.150   2.643  14.686  0.4775  0.6762  1.5079
18400TIP3   OH276690   2.212   0.868   4.717 -0.0865  0.3552 -0.4534
18400TIP3    H176691   2.231   0.875   4.811  1.4070 -1.0534 -0.6094
18400TIP3    H276692   2.260   0.790   4.689 -2.2701 -0.5436 -1.9573
18401TIP3   OH276693   0.540   6.617  13.597  0.4706 -0.2781 -0.0984
18401TIP3    H176694   0.482   6.661  13.660  0.3111 -0.3309 -0.2081
18401TIP3    H276695   0.604   6.684  13.574 -0.9658  0.6043 -1.8475
18402TIP3   OH276696   5.003   1.222  13.129  0.0205 -0.0551  0.7753
18402TIP3    H176697   5.020   1.296  13.070  0.4001  0.9958  2.1601
18402TIP3    H276698   4.967   1.262  13.208  1.1991 -1.2166  1.9535
18403TIP3   OH276699   4.271   5.044  16.226 -0.3351  0.2695  0.4527
18403TIP3    H176700   4.344   5.105  16.228  0.1681 -0.3431  1.3249
18403TIP3    H276701   4.212   5.080  16.159 -0.5173  2.2214  1.5885
18404TIP3   OH276702   6.111   3.312   1.038  0.3845 -0.0676 -0.1194
18404TIP3    H176703   6.084   3.321   1.129  0.3324 -0.1579 -0.1255
18404TIP3    H276704   6.187   3.255   1.041  0.0550 -0.5177 -0.1809
18405TIP3   OH276705   5.522   3.811  14.677  0.0434 -0.0114 -0.8612
18405TIP3    H176706   5.472   3.885  14.713  1.7208  0.2370  1.1176
18405TIP3    H276707   5.605   3.813  14.723  0.1675 -3.1678 -0.7378
18406TIP3   OH276708   4.055   1.862   5.076  1.0208  0.1803 -0.3368
18406TIP3    H176709   4.015   1.941   5.041  0.1273 -0.0584  0.1193
18406TIP3    H276710   4.113   1.892   5.145 -0.7735  0.3419  1.1838
18407TIP3   OH276711   3.527   5.840  14.850 -0.5039 -0.6293  0.1361
18407TIP3    H176712   3.540   5.777  14.779  0.7920  0.5240 -0.6992
18407TIP3    H276713   3.615   5.857  14.884 -0.3770  2.7503 -1.5043
18408TIP3   OH276714   1.134   2.948   4.303  0.3837 -0.0666 -0.7913
18408TIP3    H176715   1.162   2.955   4.394  1.1434  0.9123 -1.0760
18408TIP3    H276716   1.108   2.856   4.292 -0.7225  0.0364  0.6717
18409TIP3   OH276717   0.939   3.319   4.551 -0.5431  0.4552  0.1898
18409TIP3    H176718   0.883   3.352   4.621 -1.6055 -0.7565 -0.0547
18409TIP3    H276719   0.923   3.224   4.550  1.6889  0.0196  0.2554
18410TIP3   OH276720   6.081   1.821   5.083  0.1075 -0.0692  0.5107
18410TIP3    H176721   5.990   1.826   5.055 -0.2490 -0.6295  1.5327
18410TIP3    H276722   6.109   1.734   5.056  0.7099  0.5070 -0.8229
18411TIP3   OH276723   2.171   0.704   0.194 -0.4843 -0.2859 -0.1413
18411TIP3    H176724   2.127   0.779   0.234 -1.7734 -0.5802 -0.9647
18411TIP3    H276725   2.213   0.660   0.268 -0.2929  0.8405  0.4538
18412TIP3   OH276726   4.369   5.260  13.952  0.0481 -0.2864  0.3857
18412TIP3    H176727   4.409   5.208  14.022 -0.4886  1.7485  2.3358
18412TIP3    H276728   4.286   5.290  13.989 -1.3561 -0.9573 -2.0037
18413TIP3   OH276729   5.301   6.052  10.656 -0.2933 -0.2031 -0.1088
18413TIP3    H176730   5.252   6.089  10.730  2.6456 -0.7999  2.3068
18413TIP3    H276731   5.339   6.129  10.612 -1.6550  0.1252 -0.7622
18414TIP3   OH276732   2.775   5.199  15.861  0.1630 -0.4687  0.5079
18414TIP3    H176733   2.865   5.231  15.858  0.5715 -1.6615 -1.1454
18414TIP3    H276734   2.727   5.253  15.798  0.0551 -0.7779  0.3208
18415TIP3   OH276735   2.409   2.994  14.483 -0.3103 -0.0145 -0.0111
18415TIP3    H176736   2.434   3.041  14.403 -0.1801  2.5157  1.4201
18415TIP3    H276737   2.401   2.902  14.455 -0.1805  0.7480 -2.8791
18416TIP3   OH276738   5.246   6.396   1.832 -0.0087 -0.2774  0.3198
18416TIP3    H176739   5.289   6.333   1.774  1.4261  0.1981  0.8172
18416TIP3    H276740   5.303   6.401   1.908 -1.5100 -0.3814  1.4999
18417TIP3   OH276741   2.481   5.869  16.179 -0.0555  0.3003 -0.4501
18417TIP3    H176742   2.504   5.950  16.132 -0.0087 -0.2171 -1.3519
18417TIP3    H276743   2.551   5.857  16.242  0.4545  0.4598 -0.9712
18418TIP3   OH276744   6.732   6.220  15.159 -0.1969  0.4207  0.8572
18418TIP3    H176745   6.739   6.315  15.155 -0.1309  0.4332  1.2285
18418TIP3    H276746   6.663   6.198  15.096  1.1438  0.5398 -0.7169
18419TIP3   OH276747   6.110   1.633  14.492  0.0072 -0.2175  0.1783
18419TIP3    H176748   6.203   1.640  14.513 -0.0774  0.2901  0.3991
18419TIP3    H276749   6.107   1.629  14.397  0.2395  0.0193  0.1599
18420TIP3   OH276750   3.908   4.313  13.929  0.3468  0.1195  0.2398
18420TIP3    H176751   3.947   4.245  13.874  1.2048  0.2743  0.6359
18420TIP3    H276752   3.917   4.393  13.877  2.7068  0.5839  1.2276
18421TIP3   OH276753   4.107   4.308  16.974 -0.9606  0.4184 -0.2804
18421TIP3    H176754   4.052   4.236  17.004 -1.0537  0.5918 -0.0279
18421TIP3    H276755   4.193   4.291  17.011 -0.5659 -0.4048 -1.5166
18422TIP3   OH276756   4.609   5.610   4.189  0.4119 -0.1263  0.3965
18422TIP3    H176757   4.699   5.606   4.157 -0.0010  1.9801 -1.2922
18422TIP3    H276758   4.563   5.541   4.141  0.8206 -0.2341  0.1557
18423TIP3   OH276759   1.087   2.366  12.062  0.0350 -0.4234 -0.3477
18423TIP3    H176760   0.994   2.349  12.051 -0.0475  0.0957 -0.4901
18423TIP3    H276761   1.094   2.461  12.067  0.5089 -0.4735  0.1174
18424TIP3   OH276762   6.266   1.429  13.203 -0.2274  0.1782 -0.0207
18424TIP3    H176763   6.345   1.383  13.173 -0.9699 -0.3112 -1.2641
18424TIP3    H276764   6.232   1.374  13.273  0.0008 -0.1042 -0.1280
18425TIP3   OH276765   5.504   4.609  13.295 -0.9543  0.2350  0.2401
18425TIP3    H176766   5.443   4.613  13.220 -1.9658  0.0004  1.0245
18425TIP3    H276767   5.457   4.652  13.366 -1.1764 -1.9482  1.5181
18426TIP3   OH276768   1.529   2.405   0.507  0.6111  0.2962  0.5768
18426TIP3    H176769   1.456   2.452   0.547  0.8280  0.9348  0.2292
18426TIP3    H276770   1.488   2.332   0.461  0.2477  0.2966  0.8898
18427TIP3   OH276771   1.332   6.191   2.561  0.4385  0.3029 -0.4433
18427TIP3    H176772   1.261   6.131   2.537  0.9035  0.6175 -2.9362
18427TIP3    H276773   1.370   6.154   2.641 -0.8473 -1.3312 -0.5356
18428TIP3   OH276774   6.182   1.973  12.106  0.1487  0.1931 -0.0415
18428TIP3    H176775   6.127   1.996  12.031 -0.5466 -0.8914  0.1104
18428TIP3    H276776   6.221   1.889  12.081  1.0665  0.5228  0.2264
18429TIP3   OH276777   4.724   0.185  15.386 -0.3405 -0.4246  0.0595
18429TIP3    H176778   4.779   0.174  15.309 -1.2727 -0.6339 -0.5927
18429TIP3    H276779   4.709   0.096  15.418 -1.5528 -0.5063 -0.6806
18430TIP3   OH276780   1.229   3.409  12.693  0.4205  0.2555  0.1658
18430TIP3    H176781   1.146   3.366  12.673  0.1837  0.4620  0.6841
18430TIP3    H276782   1.278   3.404  12.611 -0.5656  1.1722 -0.5183
18431TIP3   OH276783   2.882   1.862  14.581 -0.3684 -0.2956 -0.0330
18431TIP3    H176784   2.903   1.895  14.668 -1.0885  1.1997 -0.3784
18431TIP3    H276785   2.841   1.777  14.596 -0.0667 -0.2647  1.0467
18432TIP3   OH276786   3.299   6.175  11.555  0.5000 -0.2174 -0.5681
18432TIP3    H176787   3.387   6.154  11.587  0.3144 -0.1168  0.0248
18432TIP3    H276788   3.246   6.101  11.583  0.1963  0.1988 -0.0232
18433TIP3   OH276789   2.717   6.029   2.498 -0.4763 -0.1494 -0.0043
18433TIP3    H176790   2.686   6.092   2.433 -1.1153 -0.0996  0.3483
18433TIP3    H276791   2.756   6.084   2.567  2.1103 -0.2432 -1.2614
18434TIP3   OH276792   5.713   4.676  12.493 -0.5343 -0.4286 -0.5504
18434TIP3    H176793   5.649   4.716  12.552  0.5905  0.1646  0.3127
18434TIP3    H276794   5.661   4.644  12.420 -1.5118  3.0131 -1.5425
18435TIP3   OH276795   4.206   2.074  12.842 -0.5475 -0.0334 -0.3914
18435TIP3    H176796   4.290   2.103  12.878 -0.0937 -0.5277 -1.0383
18435TIP3    H276797   4.210   2.097  12.749  0.5541 -3.6289 -1.3877
18436TIP3   OH276798   4.405   2.438   1.207  0.1050  0.6928 -0.2614
18436TIP3    H176799   4.464   2.477   1.142  0.2618 -1.6120 -1.6081
18436TIP3    H276800   4.454   2.444   1.289  1.5626  0.2473 -1.0647
18437TIP3   OH276801   4.119   6.431   2.745  0.5507 -0.3567  0.0477
18437TIP3    H176802   4.087   6.409   2.833 -1.3691  0.2813 -0.4569
18437TIP3    H276803   4.119   6.527   2.744  3.3872 -0.2598  0.2947
18438TIP3   OH276804   2.834   1.855   3.429  0.1021  0.6493  0.0547
18438TIP3    H176805   2.913   1.858   3.376  0.1543  0.8783  0.1459
18438TIP3    H276806   2.771   1.806   3.376 -0.8817  3.4914 -1.6052
18439TIP3   OH276807   2.888   3.116  13.631  0.3306 -0.2055 -0.4922
18439TIP3    H176808   2.948   3.098  13.559 -0.1990 -0.5307 -0.8579
18439TIP3    H276809   2.907   3.206  13.656  1.5697 -0.5784 -0.0222
18440TIP3   OH276810   2.947   5.448  14.328  0.1796 -0.4061  0.7115
18440TIP3    H176811   2.939   5.540  14.305  1.5201 -0.1113  1.3464
18440TIP3    H276812   3.023   5.417  14.278  0.5238 -0.8293  1.4839
18441TIP3   OH276813   0.437   2.460  16.044  0.4718  0.2210  0.3463
18441TIP3    H176814   0.386   2.540  16.060  0.6331  0.2447  0.7620
18441TIP3    H276815   0.423   2.440  15.952 -1.7232 -0.7574  0.8259
18442TIP3   OH276816   1.466   1.108   0.690 -0.1378  0.1518  0.0626
18442TIP3    H176817   1.439   1.156   0.612  1.8647  1.1703 -0.0619
18442TIP3    H276818   1.447   1.016   0.669  1.0190  0.3255 -1.9301
18443TIP3   OH276819   2.216   3.878  13.548 -0.2372  0.2355  0.5947
18443TIP3    H176820   2.292   3.859  13.603 -0.1581  0.2768  0.4988
18443TIP3    H276821   2.142   3.880  13.609 -0.5016 -1.8993  0.4307
18444TIP3   OH276822   5.576   2.862   4.703 -0.0066  0.3197 -0.1071
18444TIP3    H176823   5.669   2.845   4.689 -0.1253 -0.8338  0.3442
18444TIP3    H276824   5.533   2.827   4.625 -0.2817 -1.9419  0.9602
18445TIP3   OH276825   4.171   5.238   5.632  0.7228  0.2067  1.1675
18445TIP3    H176826   4.259   5.273   5.616  1.0066 -1.1495 -0.7434
18445TIP3    H276827   4.112   5.307   5.602  1.1421  0.7944  1.6674
18446TIP3   OH276828   1.281   3.849  16.593 -0.4230 -0.0605  0.0309
18446TIP3    H176829   1.193   3.842  16.556 -0.8913  0.9410  0.9012
18446TIP3    H276830   1.273   3.815  16.682 -0.1360  0.7704  0.3904
18447TIP3   OH276831   4.776   5.118   4.089  0.0457  0.5811 -0.1707
18447TIP3    H176832   4.699   5.097   4.036 -0.5817  1.2398  0.4628
18447TIP3    H276833   4.847   5.069   4.047 -1.1754 -2.2785  0.8317
18448TIP3   OH276834   0.798   3.089  13.436 -0.1286 -0.4214  0.2389
18448TIP3    H176835   0.809   3.183  13.452 -0.3118 -0.5504  1.1284
18448TIP3    H276836   0.712   3.068  13.471  0.0044 -0.9704  0.2449
18449TIP3   OH276837   0.379   3.898  11.817  0.4877  0.2291  0.5451
18449TIP3    H176838   0.320   3.823  11.808 -0.1971  0.6572  1.3745
18449TIP3    H276839   0.451   3.865  11.870 -0.2313  0.3657  1.6497
18450TIP3   OH276840   3.549   6.728  14.957 -0.3808 -0.6787 -0.1504
18450TIP3    H176841   3.508   6.791  15.016 -0.7909  0.0075 -1.1377
18450TIP3    H276842   3.590   6.782  14.889 -0.6579 -1.4703 -0.9681
18451TIP3   OH276843   5.477   3.220  14.133  0.0312  0.5805  0.4505
18451TIP3    H176844   5.401   3.276  14.147  1.5553  3.3898 -1.4574
18451TIP3    H276845   5.546   3.262  14.185  0.9758 -0.1527 -0.1906
18452TIP3   OH276846   1.206   1.473  11.380 -0.5759  0.4264 -0.1832
18452TIP3    H176847   1.142   1.498  11.313 -3.5914 -0.7521  2.0078
18452TIP3    H276848   1.184   1.526  11.456 -1.0373 -2.1037  1.5912
18453TIP3   OH276849   2.763   1.020  15.249  0.7427 -0.3989 -0.4077
18453TIP3    H176850   2.682   1.064  15.278  0.4892 -1.6827  0.9828
18453TIP3    H276851   2.739   0.978  15.166  0.6793  1.1347 -1.1970
18454TIP3   OH276852   4.156   3.573   2.690 -0.7759 -0.6355  0.3932
18454TIP3    H176853   4.241   3.593   2.729 -0.1125  0.2069 -1.4040
18454TIP3    H276854   4.108   3.528   2.760  1.4207 -1.8774  1.1838
18455TIP3   OH276855   0.715   0.392  16.308 -0.0544  0.1763 -0.0826
18455TIP3    H176856   0.665   0.433  16.237  1.1205  1.5734 -0.1595
18455TIP3    H276857   0.713   0.299  16.288 -0.6508  0.4387 -1.3684
18456TIP3   OH276858   5.960   2.993  10.979  0.6005  0.1972  0.0878
18456TIP3    H176859   5.991   3.066  10.924  0.2510  1.5221  1.5690
18456TIP3    H276860   5.938   3.034  11.063 -0.7361 -1.4535  0.5940
18457TIP3   OH276861   5.480   2.718   4.498 -0.4722 -0.0701 -0.3425
18457TIP3    H176862   5.546   2.723   4.428 -0.9701  0.0844 -0.8065
18457TIP3    H276863   5.398   2.701   4.452 -0.7759 -0.1535  0.2258
18458TIP3   OH276864   0.599   1.424   0.962 -0.1683 -0.4073  1.2710
18458TIP3    H176865   0.685   1.397   0.930 -0.0170 -1.0331  2.1549
18458TIP3    H276866   0.537   1.365   0.919 -0.1294 -0.1381  0.8459
18459TIP3   OH276867   6.372   0.004   5.666  0.4711  0.1464  0.0823
18459TIP3    H176868   6.371   0.094   5.634  1.7846 -0.0781 -0.6706
18459TIP3    H276869   6.280  -0.020   5.674  0.0453  0.6710 -2.3066
18460TIP3   OH276870   1.930   3.566   1.128 -0.0273  0.2737 -0.3856
18460TIP3    H176871   1.965   3.519   1.204 -1.9248 -2.4614 -1.0414
18460TIP3    H276872   1.989   3.544   1.057  0.5150  1.0238 -0.1760
18461TIP3   OH276873   4.320   2.334   5.832 -0.2992  0.4347  0.3838
18461TIP3    H176874   4.414   2.348   5.843 -0.5473  1.7490  0.9571
18461TIP3    H276875   4.307   2.328   5.737  0.5607 -1.4606  0.3280
18462TIP3   OH276876   1.667   1.999  12.851 -0.5096 -0.0723  0.1182
18462TIP3    H176877   1.642   1.952  12.772 -0.4904 -1.1913  0.7632
18462TIP3    H276878   1.612   2.078  12.851  0.6548  0.8130 -1.8435
18463TIP3   OH276879   1.741   6.506  11.140  0.2328  0.4016 -0.1284
18463TIP3    H176880   1.821   6.554  11.161  1.7520 -1.8828 -0.4236
18463TIP3    H276881   1.736   6.509  11.044  0.0978  0.3100 -0.1239
18464TIP3   OH276882   5.864   1.735  14.565  0.3593 -0.1687 -0.1815
18464TIP3    H176883   5.829   1.716  14.478 -0.8730 -1.1961  0.5106
18464TIP3    H276884   5.959   1.724  14.555  0.1571 -1.2156 -1.1807
18465TIP3   OH276885   3.013   3.487   1.932  0.2687  0.1839  0.1343
18465TIP3    H176886   3.088   3.428   1.935 -0.4705 -0.7594  0.6383
18465TIP3    H276887   2.947   3.440   1.881 -0.0743  0.8872 -0.0837
18466TIP3   OH276888   4.541   3.753   0.141  0.1700  0.0759 -0.5089
18466TIP3    H176889   4.520   3.776   0.050 -0.3210  0.1944 -0.3687
18466TIP3    H276890   4.597   3.676   0.134 -0.9163 -0.7197 -0.8874
18467TIP3   OH276891   4.369   4.319   3.793 -0.1783 -0.4521 -0.0361
18467TIP3    H176892   4.418   4.394   3.759  0.8731 -1.5129 -0.9756
18467TIP3    H276893   4.289   4.356   3.829  0.7187  1.2071  0.3341
18468TIP3   OH276894   4.549   2.899   1.693  0.6129  0.6837  0.2545
18468TIP3    H176895   4.623   2.925   1.638  0.9572 -0.0435  0.3641
18468TIP3    H276896   4.589   2.870   1.775  0.3343 -0.9876 -0.1554
18469TIP3   OH276897   2.638   1.584  11.343 -0.4905 -0.1460 -0.4182
18469TIP3    H176898   2.636   1.521  11.270  0.7860  1.0413 -1.5419
18469TIP3    H276899   2.731   1.600  11.358 -0.5976 -1.6238  2.6853
18470TIP3   OH276900   2.914   2.503  13.294  0.6581  0.2670  0.3234
18470TIP3    H176901   2.860   2.540  13.223  1.3236  1.9326  0.6226
18470TIP3    H276902   2.869   2.423  13.319  0.5050 -0.5125 -2.1260
18471TIP3   OH276903   3.890   2.830   1.471 -0.3353 -0.2112 -0.0230
18471TIP3    H176904   3.909   2.918   1.504 -1.3997  0.0019  0.0608
18471TIP3    H276905   3.929   2.771   1.536  0.1061  0.1994  0.0892
18472TIP3   OH276906   1.132   1.157  13.222 -0.1087  0.1898 -0.6293
18472TIP3    H176907   1.202   1.112  13.270 -0.9233 -0.3453  0.0973
18472TIP3    H276908   1.101   1.224  13.284 -0.2239  0.4450 -0.9611
18473TIP3   OH276909   0.093   6.632   0.414  0.0571  0.6006 -0.1682
18473TIP3    H176910   0.109   6.631   0.319 -1.3811  0.7554 -0.4428
18473TIP3    H276911   0.169   6.676   0.451  0.3523  1.1029 -1.3241
18474TIP3   OH276912   3.569   3.657   2.023  0.4271 -0.3315 -0.4227
18474TIP3    H176913   3.590   3.654   1.929 -1.2448 -1.0036 -0.8195
18474TIP3    H276914   3.603   3.575   2.058 -0.0036 -0.6233 -0.6887
18475TIP3   OH276915   4.792   3.338   6.220 -0.1609  0.1916 -0.5000
18475TIP3    H176916   4.758   3.249   6.234  0.6033  0.0027  0.2720
18475TIP3    H276917   4.767   3.359   6.130 -1.5692 -0.2496 -0.2436
18476TIP3   OH276918   1.341   6.182   3.231 -0.2689  0.0915  0.2178
18476TIP3    H176919   1.293   6.259   3.203 -1.8879 -1.7509 -2.5805
18476TIP3    H276920   1.281   6.136   3.290  0.7498  0.9692  2.0058
18477TIP3   OH276921   1.465   1.751  14.904  0.1414  0.0903  0.4956
18477TIP3    H176922   1.482   1.672  14.853 -0.5263 -0.9132  1.7370
18477TIP3    H276923   1.459   1.821  14.840  0.9670 -0.8309 -0.6255
18478TIP3   OH276924   1.741   4.095   0.997  0.2708  0.5884  0.0776
18478TIP3    H176925   1.651   4.072   1.019 -0.0717 -0.3311 -2.0397
18478TIP3    H276926   1.772   4.146   1.071 -1.9199  0.7381  0.9461
18479TIP3   OH276927   2.518   0.808  12.859 -0.4160 -0.2966  0.3823
18479TIP3    H176928   2.581   0.880  12.856 -0.7814  0.0707  1.2711
18479TIP3    H276929   2.570   0.732  12.884 -0.2818 -0.0376  0.8994
18480TIP3   OH276930   3.976   6.440  14.713  0.1385 -0.7828 -0.2387
18480TIP3    H176931   3.884   6.451  14.689  0.0178 -1.9810 -0.3762
18480TIP3    H276932   3.977   6.454  14.808 -0.5701 -2.7397  0.1220
18481TIP3   OH276933   5.036   0.119  14.001 -0.0198  0.1771  0.3106
18481TIP3    H176934   5.082   0.152  14.078  1.1654  0.1106 -0.3464
18481TIP3    H276935   5.083   0.157  13.927 -0.2917 -0.8423 -0.4037
18482TIP3   OH276936   0.132   0.922  15.800 -0.3273  0.0534 -0.2202
18482TIP3    H176937   0.155   0.833  15.828  0.2760  0.1111 -0.5259
18482TIP3    H276938   0.216   0.966  15.791 -0.6141  0.5679 -0.3691
18483TIP3   OH276939   5.467   1.875   3.185 -0.1624 -0.3966  0.0333
18483TIP3    H176940   5.552   1.852   3.146  0.5727  1.5270  0.3823
18483TIP3    H276941   5.449   1.964   3.154 -0.4538  0.4843  2.5010
18484TIP3   OH276942   0.467   3.324  12.436 -0.2635  0.1239  0.3199
18484TIP3    H176943   0.402   3.254  12.438 -1.5364  1.2019 -0.8601
18484TIP3    H276944   0.458   3.362  12.348  0.9376  1.2469  0.6558
18485TIP3   OH276945   3.704   1.348   1.737  0.5030  0.2529  0.3420
18485TIP3    H176946   3.733   1.410   1.803  0.7826  0.1250  0.3445
18485TIP3    H276947   3.785   1.319   1.694  0.3921 -0.2264  0.4454
18486TIP3   OH276948   2.821   0.458   1.232 -0.1192  0.0734 -0.0631
18486TIP3    H176949   2.785   0.532   1.183 -0.4249 -1.8809 -3.0609
18486TIP3    H276950   2.752   0.434   1.294 -0.7977  1.1147 -0.3885
18487TIP3   OH276951   2.381   2.512  10.745 -0.2781  0.0057  0.0718
18487TIP3    H176952   2.386   2.458  10.666 -4.2338  1.4730 -1.4312
18487TIP3    H276953   2.446   2.581  10.731  1.7694 -1.8320  0.0107
18488TIP3   OH276954   0.642   5.722   3.305  0.7957  0.0488  0.0220
18488TIP3    H176955   0.709   5.761   3.250  0.0374  0.1490 -0.8587
18488TIP3    H276956   0.612   5.644   3.256 -0.0946  0.3081  0.1315
18489TIP3   OH276957   6.709   4.606  11.159 -0.3920  0.3761 -0.0494
18489TIP3    H176958   6.777   4.551  11.198  0.2288  0.6881 -0.6813
18489TIP3    H276959   6.743   4.695  11.167 -1.7378  0.7956  1.6980
18490TIP3   OH276960   0.365   0.453   1.735 -0.5222 -0.1028 -0.1047
18490TIP3    H176961   0.296   0.508   1.701 -0.8559 -0.0907  0.5741
18490TIP3    H276962   0.441   0.511   1.744 -1.0125  0.3670  1.0745
18491TIP3   OH276963   6.808   5.642  15.981 -0.0424 -0.7065 -0.0472
18491TIP3    H176964   6.713   5.626  15.983  0.3068 -3.5185 -1.0917
18491TIP3    H276965   6.845   5.565  16.025  1.7920  0.0612 -0.1910
18492TIP3   OH276966   3.135   4.892  16.815 -0.1666 -0.4122 -0.1590
18492TIP3    H176967   3.193   4.907  16.890 -0.4232  2.6310 -0.4338
18492TIP3    H276968   3.056   4.855  16.853  0.8385 -1.8954  0.6002
18493TIP3   OH276969   0.399   3.958   2.509 -0.5260 -0.1334 -0.4197
18493TIP3    H176970   0.375   3.960   2.602  0.6062  0.7702 -0.1068
18493TIP3    H276971   0.343   4.025   2.468 -0.9218 -0.4282 -0.3623
18494TIP3   OH276972   6.543   2.317  13.878 -0.0862 -0.4365 -0.1688
18494TIP3    H176973   6.586   2.337  13.962 -1.9506 -1.3111  1.0556
18494TIP3    H276974   6.505   2.401  13.851  1.5671  0.1438 -0.8301
18495TIP3   OH276975   0.719   6.732  15.873  0.1968 -0.7462  0.2531
18495TIP3    H176976   0.815   6.727  15.879  0.3270  0.1097 -0.7754
18495TIP3    H276977   0.694   6.655  15.821  0.5108 -0.0693 -0.9382
18496TIP3   OH276978   2.086   3.528   1.358  0.0465 -0.3455  0.5301
18496TIP3    H176979   2.106   3.514   1.451  1.8566 -1.4701  0.0187
18496TIP3    H276980   2.062   3.620   1.353  1.1514  0.0642  1.9395
18497TIP3   OH276981   2.642   3.360   2.757 -0.1474  0.2775 -0.4864
18497TIP3    H176982   2.675   3.271   2.747 -1.2603 -0.3052  0.8466
18497TIP3    H276983   2.643   3.377   2.851 -1.7047  0.9757 -0.5611
18498TIP3   OH276984   2.557   3.955  15.343 -0.0155  0.2410  0.0138
18498TIP3    H176985   2.587   3.871  15.308  1.0294 -0.0879  1.6036
18498TIP3    H276986   2.495   3.987  15.277  0.7458 -1.0176 -1.3883
18499TIP3   OH276987   6.166   0.781   1.868 -0.1588 -0.7702  0.6577
18499TIP3    H176988   6.224   0.836   1.920 -0.0847 -0.9302  0.7451
18499TIP3    H276989   6.210   0.772   1.783 -0.7048  0.2302  0.2485
18500TIP3   OH276990   6.374   5.272  14.527  0.0286  0.4307 -1.0438
18500TIP3    H176991   6.396   5.274  14.620 -0.5371 -1.0772 -0.8440
18500TIP3    H276992   6.416   5.350  14.490  0.2100  1.0827  0.4769
18501TIP3   OH276993   0.878   2.830  12.903 -0.0345  0.3755 -0.1734
18501TIP3    H176994   0.868   2.878  12.985 -0.6764 -0.1762  0.0867
18501TIP3    H276995   0.966   2.794  12.906  0.2695  1.1131 -0.1427
18502TIP3   OH276996   6.128   0.705   3.346 -0.2682 -0.1745 -0.7911
18502TIP3    H176997   6.041   0.679   3.316 -0.8510  0.9561 -0.1997
18502TIP3    H276998   6.124   0.801   3.348  0.8782 -0.1212 -0.4141
18503TIP3   OH276999   4.526   0.082  13.955  0.2120 -0.2600 -0.1408
18503TIP3    H177000   4.608   0.042  13.982 -0.1517 -1.9384 -1.3634
18503TIP3    H277001   4.550   0.138  13.881  0.0075 -2.5249 -2.0167
18504TIP3   OH277002   5.087   2.944  14.307 -0.3905  0.2986 -0.4123
18504TIP3    H177003   5.080   3.023  14.253 -1.6751 -0.2386 -1.0868
18504TIP3    H277004   5.089   2.872  14.244 -0.2967 -0.2599  0.2191
18505TIP3   OH277005   3.328   1.715   1.521  0.2740  0.2627 -0.5630
18505TIP3    H177006   3.286   1.699   1.437 -1.4370  0.3432  0.2451
18505TIP3    H277007   3.413   1.670   1.514 -0.5880 -1.2899 -1.6729
18506TIP3   OH277008   2.865   6.560   1.426  0.4445 -0.1384 -0.2880
18506TIP3    H177009   2.775   6.529   1.437  0.3252  0.6918  1.4805
18506TIP3    H277010   2.915   6.482   1.404 -0.6698 -0.6424 -1.1400
18507TIP3   OH277011   1.263   5.572   3.008 -0.4224 -0.4444  0.0986
18507TIP3    H177012   1.206   5.592   2.934  1.5622  1.3556 -1.0705
18507TIP3    H277013   1.274   5.655   3.054 -1.0624 -1.3832  2.0870
18508TIP3   OH277014   3.133   0.851   5.657 -0.1161  0.1069  0.0137
18508TIP3    H177015   3.097   0.940   5.651 -0.0456  0.1385  0.0587
18508TIP3    H277016   3.156   0.829   5.567 -2.8918 -1.0315 -0.5255
18509TIP3   OH277017   4.451   3.946  11.566  0.7315  0.3150  0.0416
18509TIP3    H177018   4.458   3.871  11.506  1.4622 -0.9376  1.6099
18509TIP3    H277019   4.372   3.929  11.617  0.0073  1.4687 -0.6591
18510TIP3   OH277020   2.151   1.141   3.674  0.5225 -0.3615  0.0444
18510TIP3    H177021   2.129   1.138   3.581 -3.3767  0.6056  0.7461
18510TIP3    H277022   2.108   1.221   3.706  0.8607 -1.1883  2.8352
18511TIP3   OH277023   0.216   6.809   3.602  0.1644  0.0812  0.4930
18511TIP3    H177024   0.278   6.875   3.632  0.5926 -0.2138  0.2624
18511TIP3    H277025   0.214   6.744   3.673  0.2773 -0.0131  0.4107
18512TIP3   OH277026   5.723   2.189   5.527  0.0431 -0.0370 -0.1047
18512TIP3    H177027   5.679   2.260   5.480 -3.3157 -0.2826  2.3151
18512TIP3    H277028   5.689   2.109   5.487  0.3488 -0.2620  0.0844
18513TIP3   OH277029   1.647   5.318   5.511  0.6544 -0.0007  0.6844
18513TIP3    H177030   1.603   5.234   5.497  1.6105 -0.6158  1.3152
18513TIP3    H277031   1.579   5.383   5.492 -0.3535 -0.9172  1.0418
18514TIP3   OH277032   1.391   3.951   6.191 -0.0348  0.3746  0.6147
18514TIP3    H177033   1.301   3.982   6.176 -0.3874  1.1083  3.6255
18514TIP3    H277034   1.380   3.858   6.214  0.1427  0.1105 -0.3431
18515TIP3   OH277035   2.944   3.296   4.533 -0.3366 -0.3040  0.0033
18515TIP3    H177036   2.883   3.364   4.563  0.0811  0.3560 -0.6024
18515TIP3    H277037   2.895   3.249   4.466 -0.2473  0.1012 -0.3473
18516TIP3   OH277038   5.945   4.603  12.609  0.7924  0.0852  0.3734
18516TIP3    H177039   5.864   4.623  12.561  1.3807 -0.4071 -0.8500
18516TIP3    H277040   5.957   4.678  12.667  0.0453  0.6946 -0.2283
18517TIP3   OH277041   3.106   0.037  16.100 -0.4741 -0.2983 -0.5134
18517TIP3    H177042   3.026   0.026  16.151 -0.7967  1.1585 -0.6714
18517TIP3    H277043   3.123  -0.050  16.063 -0.6929 -1.1964  1.3731
18518TIP3   OH277044   0.174   0.675  15.933  0.5666  0.1277 -0.5995
18518TIP3    H177045   0.116   0.615  15.979  0.7721  0.0726 -0.4082
18518TIP3    H277046   0.258   0.628  15.928  0.7648  0.4454 -0.3342
18519TIP3   OH277047   5.723   3.092   5.704 -0.3030 -0.2329 -0.2894
18519TIP3    H177048   5.729   3.031   5.777 -3.2026  0.2937  0.5288
18519TIP3    H277049   5.756   3.043   5.628  0.7780 -1.5136  0.9603
18520TIP3   OH277050   1.185   0.252   0.150 -0.1247  0.1408  0.0060
18520TIP3    H177051   1.244   0.231   0.077 -1.4564 -0.7949 -0.8610
18520TIP3    H277052   1.140   0.331   0.121  2.6305  2.5905  1.9015
18521TIP3   OH277053   1.544   0.322  11.674 -0.7285  0.6246 -0.3453
18521TIP3    H177054   1.494   0.363  11.745 -2.7293 -0.7942 -0.8578
18521TIP3    H277055   1.529   0.379  11.598 -1.2606  0.3996 -0.4084
18522TIP3   OH277056   3.490   1.907   4.903 -0.3879 -0.0995 -1.0018
18522TIP3    H177057   3.402   1.939   4.881 -0.7389  0.7804  1.3586
18522TIP3    H277058   3.539   1.986   4.925 -0.3030 -0.7999  1.7913
18523TIP3   OH277059   4.277   2.495  13.041  0.1386  0.2527  0.6495
18523TIP3    H177060   4.322   2.561  13.094  0.5689  0.5151 -0.0258
18523TIP3    H277061   4.348   2.443  13.003 -0.0285  1.5010 -1.5062
18524TIP3   OH277062   6.061   2.201  16.778 -0.4252 -0.3200 -0.0786
18524TIP3    H177063   6.063   2.176  16.870  0.0464  2.3977  0.7482
18524TIP3    H277064   6.131   2.151  16.737 -0.0152 -0.8603  1.2413
18525TIP3   OH277065   5.529   4.989  11.379  0.2437  0.3169 -0.5906
18525TIP3    H177066   5.552   4.908  11.334 -1.0699 -0.5890  0.2881
18525TIP3    H277067   5.475   4.961  11.453  0.4284  1.9376  0.2157
18526TIP3   OH277068   0.128   0.167  12.304  0.0219 -0.0884  1.0253
18526TIP3    H177069   0.062   0.107  12.268 -0.6379  0.1151  1.8621
18526TIP3    H277070   0.205   0.112  12.317 -1.1073 -1.2657  3.4732
18527TIP3   OH277071   3.999   6.553   5.481 -0.2536 -0.9908 -0.4152
18527TIP3    H177072   4.011   6.580   5.390 -0.3328 -0.9754 -0.4214
18527TIP3    H277073   4.087   6.531   5.512 -0.3505 -2.0344 -0.8281
18528TIP3   OH277074   0.009   2.560   4.357  0.0020  0.5522 -0.0586
18528TIP3    H177075   0.099   2.562   4.323 -0.4153 -0.7825 -1.3644
18528TIP3    H277076   0.018   2.525   4.446  0.8191  0.9625  0.0315
18529TIP3   OH277077   2.643   2.761  16.949  0.0964 -0.2481  0.6117
18529TIP3    H177078   2.654   2.845  16.992 -0.3751 -0.5266  1.3082
18529TIP3    H277079   2.679   2.697  17.011  0.3440 -0.5751  0.1435
18530TIP3   OH277080   4.167   3.815  14.809  0.1162  0.0550  0.4618
18530TIP3    H177081   4.220   3.826  14.730 -0.6093 -0.7554 -0.1495
18530TIP3    H277082   4.169   3.901  14.850  1.4052  0.2043  0.1428
18531TIP3   OH277083   0.371   0.090  14.678  1.1920 -0.5985  0.3452
18531TIP3    H177084   0.459   0.069  14.648  1.6028  1.1148  0.2362
18531TIP3    H277085   0.313   0.045  14.616  2.0194  1.2596 -1.9576
18532TIP3   OH277086   5.386   6.421   1.293  0.0848  0.6866  0.0641
18532TIP3    H177087   5.348   6.354   1.350  1.6058  0.6818  1.1326
18532TIP3    H277088   5.319   6.490   1.290  0.1423  0.9181  2.3142
18533TIP3   OH277089   5.313   0.328  17.019  0.3402  0.1597  0.1758
18533TIP3    H177090   5.233   0.380  17.023 -0.2325 -0.7653  1.9568
18533TIP3    H277091   5.292   0.254  16.963 -0.8256 -1.2022  2.2805
18534TIP3   OH277092   5.013   4.969  16.038 -0.3622 -0.0743  0.0683
18534TIP3    H177093   5.003   4.963  15.943  1.1810  1.9515 -0.3018
18534TIP3    H277094   5.105   4.947  16.053 -0.5045 -0.0444  1.0465
18535TIP3   OH277095   0.365   1.720  16.985 -0.5431  0.6121  0.2119
18535TIP3    H177096   0.289   1.727  17.044  0.4472  1.6043  1.4270
18535TIP3    H277097   0.359   1.631  16.950 -0.3438 -0.6348  3.0373
18536TIP3   OH277098   3.023   5.906  15.978  0.2317 -0.1437  0.2818
18536TIP3    H177099   3.088   5.975  15.987 -0.6144  0.9164 -1.3183
18536TIP3    H277100   3.055   5.835  16.034  3.1091  0.0582 -0.9566
18537TIP3   OH277101   6.230   1.400  11.042  0.1772 -0.5154 -0.3607
18537TIP3    H177102   6.235   1.320  11.094 -0.6005 -1.0227 -1.0357
18537TIP3    H277103   6.230   1.369  10.951  0.2582  0.2717 -0.6348
18538TIP3   OH277104   0.181   1.749  11.086 -0.0884 -0.5369 -0.6818
18538TIP3    H177105   0.173   1.699  11.004  1.2141  1.6146 -2.2300
18538TIP3    H277106   0.125   1.826  11.072 -1.2049 -0.9389  1.2067
18539TIP3   OH277107   0.611   5.572  15.191 -0.5597 -0.0373 -0.1931
18539TIP3    H177108   0.548   5.507  15.223 -0.3762  0.0595  0.3573
18539TIP3    H277109   0.665   5.524  15.128 -0.3524 -0.4536  0.2966
18540TIP3   OH277110   2.557   1.948   3.173 -0.2298  0.2590  0.1088
18540TIP3    H177111   2.627   2.014   3.182 -1.5498  1.6555  0.5017
18540TIP3    H277112   2.490   1.992   3.121 -0.7515 -1.1278 -0.4099
18541TIP3   OH277113   5.148   0.653  12.078 -0.5473 -0.0391 -0.2700
18541TIP3    H177114   5.229   0.626  12.035  0.3639  1.7935  0.1598
18541TIP3    H277115   5.115   0.574  12.120 -0.3088 -1.3950 -2.4590
18542TIP3   OH277116   3.535   3.516  14.039 -0.0564  0.1815 -0.1536
18542TIP3    H177117   3.574   3.588  14.088 -0.3960 -0.8466  1.7243
18542TIP3    H277118   3.595   3.501  13.966  1.9026  0.0964  1.3993
18543TIP3   OH277119   3.873   4.647  12.625  0.7465  0.7789  0.9628
18543TIP3    H177120   3.826   4.700  12.690 -0.2244 -0.0472  0.9512
18543TIP3    H277121   3.925   4.586  12.678 -1.4848 -1.1929  1.0771
18544TIP3   OH277122   6.831   4.275  13.930  0.3133  0.0940 -0.5835
18544TIP3    H177123   6.770   4.242  13.997  1.0003 -3.1033 -1.3723
18544TIP3    H277124   6.778   4.335  13.877 -0.5811  1.7584  1.9910
18545TIP3   OH277125   3.568   1.168   0.550  0.4173 -0.3296 -0.2460
18545TIP3    H177126   3.596   1.190   0.639 -0.5365  1.2816 -0.3149
18545TIP3    H277127   3.499   1.231   0.530 -1.7359 -2.7137 -0.9271
18546TIP3   OH277128   4.393   2.812   4.499 -0.0664 -0.0795 -0.2318
18546TIP3    H177129   4.386   2.890   4.444  1.5565 -0.1233 -0.5563
18546TIP3    H277130   4.488   2.800   4.511 -0.3108 -1.6552  0.2912
18547TIP3   OH277131   6.281   6.585   2.601 -0.0016  0.4883  0.1067
18547TIP3    H177132   6.200   6.600   2.552 -0.0964 -1.5209 -0.4228
18547TIP3    H277133   6.296   6.668   2.648 -3.7576  0.1823  2.2639
18548TIP3   OH277134   4.101   3.086  13.652 -0.2414 -0.2266  0.0945
18548TIP3    H177135   4.115   3.137  13.732  0.5605 -0.3729  0.0551
18548TIP3    H277136   4.009   3.101  13.630 -1.1224 -1.9199  2.2573
18549TIP3   OH277137   0.783   6.298   0.441  0.2509 -0.9200  0.9494
18549TIP3    H177138   0.692   6.281   0.416 -0.0181 -0.1996  1.4149
18549TIP3    H277139   0.786   6.392   0.458  1.3331 -0.7551 -0.0491
18550TIP3   OH277140   4.640   3.039  15.140 -0.3869 -1.0889 -0.1332
18550TIP3    H177141   4.683   3.032  15.226  1.5399  2.9639 -0.5025
18550TIP3    H277142   4.706   3.011  15.078  0.2973  1.0523 -0.4664
18551TIP3   OH277143   4.064   5.358   0.337 -0.0007 -0.0951  0.5261
18551TIP3    H177144   4.008   5.390   0.408 -1.1803  3.2645 -1.6871
18551TIP3    H277145   4.012   5.290   0.294 -0.0547 -0.7918  1.6320
18552TIP3   OH277146   3.213   3.915   2.115  0.4230  0.6453  0.3849
18552TIP3    H177147   3.304   3.892   2.093  0.9670  1.9585  1.1705
18552TIP3    H277148   3.193   3.991   2.060 -0.1587  0.4617  0.3329
18553TIP3   OH277149   5.782   5.373  16.368  0.1100  0.1782 -0.0119
18553TIP3    H177150   5.863   5.360  16.317 -0.2619  2.5169 -1.3525
18553TIP3    H277151   5.715   5.327  16.318  0.0834  0.9212 -0.6908
18554TIP3   OH277152   4.284   0.017   3.148 -0.0246  0.5697  0.4535
18554TIP3    H177153   4.278  -0.001   3.241 -0.5643  0.8902  0.4910
18554TIP3    H277154   4.346  -0.047   3.114 -0.2621  0.0804  0.9344
18555TIP3   OH277155   5.097   2.934  11.458 -0.5100  0.5400  0.2650
18555TIP3    H177156   5.009   2.971  11.458  0.2533  2.4707  0.9112
18555TIP3    H277157   5.091   2.857  11.516 -1.8116  0.4913  0.0861
18556TIP3   OH277158   0.418   6.800   1.858 -0.3503  0.2093 -0.7088
18556TIP3    H177159   0.401   6.723   1.912 -2.4032  0.7840 -0.4454
18556TIP3    H277160   0.336   6.815   1.811 -0.0780  2.3451 -0.6179
18557TIP3   OH277161   6.136   5.736   1.385 -0.3267  0.2938 -0.3578
18557TIP3    H177162   6.180   5.652   1.397 -0.3975  0.2712 -0.2540
18557TIP3    H277163   6.138   5.777   1.472 -0.2917  0.4000 -0.4076
18558TIP3   OH277164   4.685   3.010  13.628 -0.1795 -0.2341  0.1192
18558TIP3    H177165   4.696   2.938  13.566  0.6161 -0.0706  0.0684
18558TIP3    H277166   4.641   3.079  13.578 -0.2545 -0.3994 -0.0415
18559TIP3   OH277167   3.424   1.260   2.322 -0.0062  0.2137  0.1096
18559TIP3    H177168   3.448   1.349   2.348 -0.7038  1.2479 -2.4512
18559TIP3    H277169   3.486   1.203   2.369  2.4372  2.2488 -0.4341
18560TIP3   OH277170   1.235   4.628  11.377 -0.6194  0.1056  0.6461
18560TIP3    H177171   1.159   4.571  11.379  0.9242 -2.2255 -0.9251
18560TIP3    H277172   1.206   4.706  11.329 -2.7645  0.6999  2.7728
18561TIP3   OH277173   4.522   0.855  14.053 -0.8723  0.1129  0.1339
18561TIP3    H177174   4.588   0.897  14.108 -0.7395 -1.1322  0.9515
18561TIP3    H277175   4.548   0.877  13.963  1.3527 -1.3219  0.3572
18562TIP3   OH277176   0.046   4.182   1.983 -0.3740 -0.2184  0.2572
18562TIP3    H177177   0.120   4.241   1.994  0.1555 -1.1882  2.1564
18562TIP3    H277178  -0.028   4.230   2.020 -0.5907  0.4566 -0.9905
18563TIP3   OH277179   3.640   1.480  14.944 -0.0357  0.1697  0.7448
18563TIP3    H177180   3.672   1.437  14.865  1.0893  0.7841  0.8359
18563TIP3    H277181   3.664   1.421  15.015 -1.4292 -0.5870  0.6135
18564TIP3   OH277182   2.553   3.181   1.554  0.0924 -0.0289  0.6435
18564TIP3    H177183   2.543   3.092   1.587  1.7106 -1.0455 -1.3977
18564TIP3    H277184   2.640   3.207   1.583 -0.0858  0.6183  0.6102
18565TIP3   OH277185   2.025   1.052  12.982  0.1685 -0.8159  0.2399
18565TIP3    H177186   2.119   1.063  12.965  0.2352  0.6996  1.3574
18565TIP3    H277187   1.982   1.105  12.914  0.1850 -0.4935  0.4758
18566TIP3   OH277188   4.564   2.925   5.278  0.1892  0.2494 -0.0643
18566TIP3    H177189   4.547   3.002   5.222  1.1331  0.1988 -0.4318
18566TIP3    H277190   4.539   2.954   5.366 -1.9288  0.1258 -0.5710
18567TIP3   OH277191   4.170   4.151   0.419 -0.0477  0.2172 -0.6223
18567TIP3    H177192   4.095   4.196   0.382 -0.4644  0.1204  0.0873
18567TIP3    H277193   4.141   4.122   0.505  1.3726  1.8430  0.4929
18568TIP3   OH277194   5.242   3.563   3.050  0.1733  0.1562 -0.3666
18568TIP3    H177195   5.274   3.653   3.049 -0.0398  0.2296 -0.6639
18568TIP3    H277196   5.224   3.543   2.958  0.5305 -0.3036 -0.3432
18569TIP3   OH277197   2.377   2.693  14.041  0.0706 -0.5871  0.0364
18569TIP3    H177198   2.410   2.627  13.980  0.8929 -0.3952  0.2552
18569TIP3    H277199   2.439   2.766  14.033 -1.1062  0.3708 -0.5670
18570TIP3   OH277200   4.584   3.549  16.057  0.1550  0.0060 -0.4630
18570TIP3    H177201   4.562   3.553  16.150  1.1633  1.4060 -0.2540
18570TIP3    H277202   4.508   3.585  16.012 -0.3900 -0.7976 -0.2089
18571TIP3   OH277203   3.359   6.290  15.612 -0.0078  0.1594 -0.2865
18571TIP3    H177204   3.402   6.211  15.579 -0.6274 -0.1221 -0.4379
18571TIP3    H277205   3.324   6.333  15.534  1.5659  1.3601 -0.3797
18572TIP3   OH277206   4.082   0.110   0.120  0.0606  0.3153  0.5571
18572TIP3    H177207   4.051   0.200   0.108 -1.5924 -0.3283 -0.3133
18572TIP3    H277208   4.173   0.112   0.091 -0.0291  1.6487  0.3026
18573TIP3   OH277209   6.493   6.224   0.289 -0.0755 -0.5822 -0.8873
18573TIP3    H177210   6.500   6.132   0.262  0.0399 -0.7700 -0.2181
18573TIP3    H277211   6.479   6.221   0.383  2.1781  0.1390 -0.4668
18574TIP3   OH277212   3.372   0.493  15.598  0.3781 -0.1709  0.2200
18574TIP3    H177213   3.330   0.408  15.584 -0.1766  0.0387  0.5705
18574TIP3    H277214   3.323   0.554  15.543 -1.4219  0.5394  2.4514
18575TIP3   OH277215   3.617   0.479   5.199  0.3482  0.3831  0.4797
18575TIP3    H177216   3.571   0.537   5.259 -0.7131 -0.1152  0.1706
18575TIP3    H277217   3.641   0.403   5.251  3.0055  1.6323  1.2529
18576TIP3   OH277218   5.232   3.779  10.456  0.3740 -0.1292 -0.1536
18576TIP3    H177219   5.284   3.782  10.375 -1.5486 -0.6808 -1.4785
18576TIP3    H277220   5.237   3.687  10.483 -1.5678 -0.6978 -1.5023
18577TIP3   OH277221   0.335   0.267  13.315 -0.0139 -0.2943 -0.3441
18577TIP3    H177222   0.243   0.243  13.331 -0.1562  0.5002  0.0493
18577TIP3    H277223   0.345   0.259  13.220 -0.6100  0.0045 -0.4393
18578TIP3   OH277224   3.490   3.949  14.209 -0.6412 -0.1014  0.5089
18578TIP3    H177225   3.455   3.870  14.249  1.0654 -0.5599  1.1987
18578TIP3    H277226   3.447   4.021  14.254 -0.4861 -0.6395  1.5437
18579TIP3   OH277227   2.569   2.116  14.709  0.8791 -0.4222  0.7799
18579TIP3    H177228   2.592   2.076  14.626 -0.9240  2.0872 -1.1066
18579TIP3    H277229   2.637   2.181  14.725 -0.2736  1.1756 -0.4175
18580TIP3   OH277230   6.506   4.513  16.094  0.0829  0.7286  0.3409
18580TIP3    H177231   6.417   4.543  16.114 -0.4865 -1.0188  0.5797
18580TIP3    H277232   6.493   4.435  16.040  1.4467 -0.2796  1.4172
18581TIP3   OH277233   6.780   0.559  16.743 -0.1866 -0.7690 -0.4750
18581TIP3    H177234   6.758   0.517  16.660 -1.0464 -0.5615 -0.3626
18581TIP3    H277235   6.732   0.508  16.809 -2.5763  1.2856 -0.4858
18582TIP3   OH277236   1.244   3.810  14.953  0.1381  0.4647  0.8074
18582TIP3    H177237   1.329   3.795  14.993  0.9317  0.0799 -0.9029
18582TIP3    H277238   1.243   3.753  14.876 -0.2650  2.8550 -1.0939
18583TIP3   OH277239   3.298   6.122  12.231  0.2450  0.3578 -0.0280
18583TIP3    H177240   3.224   6.071  12.264  0.8127  0.2288  1.1202
18583TIP3    H277241   3.333   6.165  12.309  2.0433 -0.4600 -0.3324
18584TIP3   OH277242   5.212   3.901  12.389  0.1627  0.1339  0.0265
18584TIP3    H177243   5.230   3.939  12.303 -2.1474 -1.1464 -1.1345
18584TIP3    H277244   5.178   3.974  12.440  1.5152  0.9054 -0.1260
18585TIP3   OH277245   2.064   3.092   5.723  0.4427 -0.3799 -0.1850
18585TIP3    H177246   2.129   3.130   5.781 -1.7123  1.7075  1.0585
18585TIP3    H277247   2.087   3.126   5.636 -0.0233  1.9150  0.5352
18586TIP3   OH277248   3.075   1.874   2.502  0.0330 -0.3590  0.2191
18586TIP3    H177249   3.104   1.888   2.592  0.0971 -0.4810  0.2179
18586TIP3    H277250   3.156   1.856   2.454  0.1846  1.1244 -0.1386
18587TIP3   OH277251   5.281   2.998  13.991  0.3468 -0.1204 -0.0198
18587TIP3    H177252   5.306   2.965  13.904 -0.6146  2.1377 -1.2373
18587TIP3    H277253   5.358   3.044  14.022  0.8777 -1.3814  0.6274
18588TIP3   OH277254   0.584   6.645  14.487  0.0798  0.2675 -0.2144
18588TIP3    H177255   0.572   6.739  14.475 -0.5974  0.2688  0.4289
18588TIP3    H277256   0.634   6.637  14.568  1.5010  0.1211 -1.0760
18589TIP3   OH277257   5.471   0.735  16.518  0.5083  0.2012 -0.1718
18589TIP3    H177258   5.558   0.740  16.479  0.6398 -1.3597 -0.1508
18589TIP3    H277259   5.421   0.679  16.458 -0.5187  1.1414 -0.2258
18590TIP3   OH277260   2.924   1.108   5.894 -0.4753 -0.0165 -0.1002
18590TIP3    H177261   2.984   1.161   5.945 -1.4738  1.0664 -0.0131
18590TIP3    H277262   2.961   1.107   5.806 -0.9504  1.6739 -0.3399
18591TIP3   OH277263   3.833   3.490   2.701  0.0534 -0.0867 -0.0565
18591TIP3    H177264   3.879   3.441   2.769 -0.2605  2.5921  2.2679
18591TIP3    H277265   3.744   3.456   2.703  0.0762 -0.1190  0.8085
18592TIP3   OH277266   1.122   0.325   3.219  0.1322  0.3076 -0.0470
18592TIP3    H177267   1.087   0.349   3.304  1.8150  1.5315  0.3539
18592TIP3    H277268   1.124   0.229   3.220 -2.0602  0.2229  0.3193
18593TIP3   OH277269   0.940   0.522  16.197 -0.1880  0.7559 -0.3148
18593TIP3    H177270   0.875   0.495  16.262 -0.2548  0.0139 -0.6871
18593TIP3    H277271   0.959   0.613  16.219  2.2376 -0.3379  2.8472
18594TIP3   OH277272   5.718   4.790  13.285 -0.0208  0.6411  0.2419
18594TIP3    H177273   5.668   4.708  13.285  2.4267 -0.9451  0.3112
18594TIP3    H277274   5.750   4.798  13.375 -0.2613  1.7236  0.2427
18595TIP3   OH277275   4.934   2.122  11.946 -0.6395  0.1343  0.0273
18595TIP3    H177276   5.025   2.109  11.976 -0.4568  1.5390  0.1282
18595TIP3    H277277   4.941   2.132  11.852 -0.7848 -0.4572 -0.0523
18596TIP3   OH277278   5.466   5.859  13.239  0.2649 -0.4856  0.0405
18596TIP3    H177279   5.393   5.814  13.280 -0.8321 -0.5039 -1.8119
18596TIP3    H277280   5.430   5.942  13.208  0.6327 -1.0106 -2.0095
18597TIP3   OH277281   5.193   6.020  13.501  1.3193  0.4500 -0.3753
18597TIP3    H177282   5.246   5.964  13.557  0.4586 -0.2041 -0.1819
18597TIP3    H277283   5.249   6.095  13.481  2.2224 -0.1103 -0.0039
18598TIP3   OH277284   4.707   0.158  15.019 -0.2541  0.4222  0.4108
18598TIP3    H177285   4.767   0.220  15.060  0.5143 -0.1876  0.2593
18598TIP3    H277286   4.763   0.107  14.960 -1.0319  0.1965 -0.1472
18599TIP3   OH277287   2.995   5.731   0.699  0.3664  0.0990 -0.0497
18599TIP3    H177288   3.032   5.688   0.777 -2.0817 -2.9279 -0.3291
18599TIP3    H277289   3.058   5.714   0.630  1.4266  0.6693  0.7546
18600TIP3   OH277290   4.500   3.924   3.312 -0.1007 -0.0072 -0.0127
18600TIP3    H177291   4.593   3.940   3.298 -0.1655  0.2143 -0.1976
18600TIP3    H277292   4.493   3.895   3.403  0.2145 -0.5369 -0.1577
18601TIP3   OH277293   0.049   4.355   3.907  0.1968 -0.3443  0.2959
18601TIP3    H177294   0.061   4.450   3.905 -0.8474 -0.2170 -1.1599
18601TIP3    H277295   0.137   4.319   3.900  0.5689  0.5099  0.4780
18602TIP3   OH277296   2.493   1.778  14.897  0.2986 -0.4280 -0.6168
18602TIP3    H177297   2.449   1.734  14.969 -0.5955 -0.4563 -1.1515
18602TIP3    H277298   2.461   1.869  14.901  0.0533 -0.4842 -1.1001
18603TIP3   OH277299   6.802   5.787   5.165  0.1518 -0.0340 -0.0117
18603TIP3    H177300   6.883   5.769   5.214  1.6202 -0.2882 -2.3779
18603TIP3    H277301   6.743   5.717   5.190  1.5182 -1.2161  0.0357
18604TIP3   OH277302   5.950   5.116   0.822  0.0183 -0.0237  0.0339
18604TIP3    H177303   5.939   5.118   0.727 -0.0853 -0.4895  0.0335
18604TIP3    H277304   5.977   5.026   0.841  0.0695  0.0757  0.4429
18605TIP3   OH277305   0.463   6.396  14.455  0.4520  0.4963 -0.5231
18605TIP3    H177306   0.500   6.485  14.454  0.7121  0.4346  1.0339
18605TIP3    H277307   0.438   6.382  14.546  0.3643 -1.0199 -0.7657
18606TIP3   OH277308   6.337   3.954   4.280 -0.2125 -0.1361 -0.4650
18606TIP3    H177309   6.382   4.030   4.316 -0.3109 -0.7881  1.1290
18606TIP3    H277310   6.254   3.950   4.327 -0.3779 -0.9916 -0.7998
18607TIP3   OH277311   5.114   4.841  12.855  0.0402  0.1505  0.7587
18607TIP3    H177312   5.176   4.912  12.839  2.9137 -1.8518  2.0639
18607TIP3    H277313   5.109   4.835  12.951  0.3692 -1.7497  0.6969
18608TIP3   OH277314   1.082   5.659  10.941 -0.0559  0.1983 -0.0197
18608TIP3    H177315   1.086   5.712  11.020 -3.0064  1.5245 -0.6013
18608TIP3    H277316   1.091   5.722  10.869  1.3571 -0.8150 -0.7865
18609TIP3   OH277317   6.683   1.172   3.220  0.3609 -0.4475  0.2982
18609TIP3    H177318   6.677   1.096   3.161 -0.3277 -1.7621  1.9964
18609TIP3    H277319   6.718   1.136   3.301  1.9074  1.4542  0.5347
18610TIP3   OH277320   6.102   5.266  17.111 -0.2420  0.1880 -0.2679
18610TIP3    H177321   6.139   5.195  17.058 -1.9058 -0.5281 -0.5383
18610TIP3    H277322   6.015   5.233  17.136 -0.5999  1.6883  0.5370
18611TIP3   OH277323   4.220   5.473   5.866 -0.3676  0.5639 -0.5732
18611TIP3    H177324   4.311   5.477   5.895 -0.0976  2.1310 -1.5594
18611TIP3    H277325   4.225   5.477   5.771 -1.4979  1.5220 -0.6129
18612TIP3   OH277326   0.634   0.549  11.616 -0.3080  0.2098  0.8359
18612TIP3    H177327   0.654   0.509  11.532  0.0244 -0.1280  1.0720
18612TIP3    H277328   0.677   0.492  11.680 -1.6146 -0.2540  1.3191
18613TIP3   OH277329   6.250   5.329   2.044  0.4720 -0.3995 -0.8007
18613TIP3    H177330   6.192   5.279   1.986 -0.6413  0.9287 -0.8829
18613TIP3    H277331   6.217   5.310   2.132  0.8590 -0.8050 -0.7425
18614TIP3   OH277332   5.670   0.377   6.333  0.2860 -0.2954  0.5715
18614TIP3    H177333   5.694   0.373   6.426  3.8047  1.0482 -0.1263
18614TIP3    H277334   5.754   0.382   6.287 -1.3644  0.3690 -2.6264
18615TIP3   OH277335   5.039   2.520   1.000 -0.2909 -0.1810 -0.8997
18615TIP3    H177336   5.096   2.459   1.046  0.2224 -0.5959 -2.0367
18615TIP3    H277337   5.098   2.573   0.946 -0.6706  1.7114  0.4353
18616TIP3   OH277338   0.855   3.780  15.590 -0.3134  0.4333  0.3237
18616TIP3    H177339   0.803   3.773  15.510 -0.3946 -1.8205  0.5285
18616TIP3    H277340   0.938   3.736  15.568 -1.4002 -2.9252  2.2704
18617TIP3   OH277341   6.035   2.974   1.103  0.1626  0.2832  0.0337
18617TIP3    H177342   6.129   2.971   1.123 -0.0728 -0.0641  1.1541
18617TIP3    H277343   5.992   2.948   1.184 -0.8939 -0.2810 -0.6807
18618TIP3   OH277344   5.164   4.052  16.593 -0.3969  0.0879 -0.7464
18618TIP3    H177345   5.244   3.998  16.595 -1.4216 -1.4821  0.0325
18618TIP3    H277346   5.158   4.083  16.503  1.4480  0.8321 -0.6584
18619TIP3   OH277347   2.042   4.700   0.454  0.2253 -0.1832  0.2354
18619TIP3    H177348   2.047   4.629   0.390 -2.1151 -0.1354 -0.0744
18619TIP3    H277349   2.049   4.655   0.539 -1.4340 -0.8501  0.0523
18620TIP3   OH277350   5.473   3.223   2.570  0.1713  0.4718  0.6185
18620TIP3    H177351   5.391   3.208   2.523 -0.7147  2.6674  1.3190
18620TIP3    H277352   5.541   3.200   2.507 -0.9653 -0.7733 -0.2071
18621TIP3   OH277353   3.548   6.367  16.653  0.2712 -0.6037 -0.3386
18621TIP3    H177354   3.572   6.459  16.641 -0.2539 -0.4759 -0.4426
18621TIP3    H277355   3.526   6.336  16.565 -2.3140 -0.0316  0.0390
18622TIP3   OH277356   1.203   4.091   1.009  0.2926  0.1763  0.3175
18622TIP3    H177357   1.126   4.147   1.003 -0.8993 -1.2234  1.6918
18622TIP3    H277358   1.169   4.002   1.010  1.8751 -0.4772  1.3795
18623TIP3   OH277359   3.320   2.465   4.019  0.2582 -0.1776  0.1827
18623TIP3    H177360   3.263   2.414   4.076 -0.3375 -1.2290 -1.2866
18623TIP3    H277361   3.265   2.537   3.987 -0.3070 -1.1689 -1.2028
18624TIP3   OH277362   4.139   3.451  14.265 -0.1907  0.7297 -0.4334
18624TIP3    H177363   4.097   3.522  14.314 -1.6148  0.6297 -1.4351
18624TIP3    H277364   4.123   3.372  14.318 -2.1207  0.5460 -1.1814
18625TIP3   OH277365   0.749   3.156  15.850 -0.5265  0.0251  0.4777
18625TIP3    H177366   0.830   3.137  15.896 -1.3501 -1.9268  1.2288
18625TIP3    H277367   0.680   3.125  15.908 -1.7075 -0.3505 -1.0369
18626TIP3   OH277368   5.429   3.333   0.853  0.1406  0.1445 -0.4176
18626TIP3    H177369   5.434   3.407   0.913 -1.6403  0.1509 -0.2079
18626TIP3    H277370   5.386   3.369   0.775 -2.4936 -0.9786  0.3768
18627TIP3   OH277371   5.515   6.542  11.740 -0.1446  0.2369  0.0826
18627TIP3    H177372   5.514   6.636  11.757 -2.1979  0.2186  0.3946
18627TIP3    H277373   5.443   6.528  11.678  0.3351 -1.0760 -0.2037
18628TIP3   OH277374   2.587   6.281  14.688  0.3152 -0.0340 -0.0621
18628TIP3    H177375   2.612   6.324  14.770 -1.1578  0.6459  0.0737
18628TIP3    H277376   2.594   6.349  14.622 -0.6161  0.0355 -0.1042
18629TIP3   OH277377   4.046   2.059   2.621  0.3684  0.0308 -0.6651
18629TIP3    H177378   4.116   2.054   2.556 -0.2547  0.0423 -1.3499
18629TIP3    H277379   4.048   1.975   2.666  1.7840  0.5779  0.3488
18630TIP3   OH277380   3.511   3.768   2.647 -0.5372  0.2868  0.0949
18630TIP3    H177381   3.422   3.803   2.649 -1.2918 -1.5206  0.0931
18630TIP3    H277382   3.501   3.676   2.671  1.2899 -0.0469 -0.2838
18631TIP3   OH277383   2.044   2.652  11.279 -0.2666  0.3454 -0.1944
18631TIP3    H177384   2.015   2.743  11.269  1.7397  0.9256 -1.2073
18631TIP3    H277385   2.073   2.627  11.192  0.4161 -0.8450  0.3615
18632TIP3   OH277386   5.699   6.077  13.787  0.5009 -0.0459 -0.0826
18632TIP3    H177387   5.618   6.105  13.829  0.5091 -0.4984  0.2421
18632TIP3    H277388   5.671   6.046  13.700  0.4726  0.8010 -0.3786
18633TIP3   OH277389   5.388   2.270  12.250  0.0062  0.2852  0.0541
18633TIP3    H177390   5.397   2.327  12.173 -2.1894 -0.8260 -1.1435
18633TIP3    H277391   5.411   2.325  12.324  0.0239  2.0996 -1.2394
18634TIP3   OH277392   6.628   5.341  10.823  0.4573 -0.1906  0.1170
18634TIP3    H177393   6.567   5.374  10.757  0.7534 -0.0759 -0.1001
18634TIP3    H277394   6.578   5.274  10.870  1.2108 -2.6127 -2.2834
18635TIP3   OH277395   4.834   6.374  13.434  0.0952 -0.1603  0.2068
18635TIP3    H177396   4.759   6.366  13.494 -0.0679 -0.2508 -0.0055
18635TIP3    H277397   4.846   6.285  13.400 -1.2833  0.2906 -1.6427
18636TIP3   OH277398   0.583   1.445   6.217  0.1293  0.1509  0.5905
18636TIP3    H177399   0.514   1.448   6.150 -0.3760  0.1298  1.1011
18636TIP3    H277400   0.659   1.486   6.176 -0.9776  2.7234  0.9278
18637TIP3   OH277401   0.301   6.741   0.575  0.4686 -0.4190  0.7507
18637TIP3    H177402   0.347   6.766   0.495 -2.5659  1.7409 -0.5145
18637TIP3    H277403   0.338   6.798   0.643  1.7340 -0.9259  0.5227
18638TIP3   OH277404   2.026   3.374  12.017 -0.4083  0.3687  0.4050
18638TIP3    H177405   1.935   3.344  12.014 -0.5520  0.8523 -0.3648
18638TIP3    H277406   2.047   3.395  11.926  1.3752 -2.3522  0.0821
18639TIP3   OH277407   6.601   6.694  14.512 -0.4256  0.1357  0.5035
18639TIP3    H177408   6.555   6.763  14.559  0.1600  0.9573 -0.0940
18639TIP3    H277409   6.532   6.649  14.462 -1.0942 -0.9173  2.2940
18640TIP3   OH277410   2.452   1.422  16.278  0.4363  0.4765 -0.6094
18640TIP3    H177411   2.485   1.470  16.202  1.3343  1.6817  0.4997
18640TIP3    H277412   2.403   1.349  16.240  1.1238  0.8515 -2.3436
18641TIP3   OH277413   6.851   0.210   3.069 -0.6941  0.1005 -0.2885
18641TIP3    H177414   6.788   0.282   3.073 -0.1504  0.5347  1.1367
18641TIP3    H277415   6.865   0.186   3.160  2.7285  1.4007 -0.3190
18642TIP3   OH277416   5.433   0.809  15.648 -0.3197 -0.0381 -0.3028
18642TIP3    H177417   5.513   0.782  15.692  1.1051  0.0625 -2.6210
18642TIP3    H277418   5.364   0.757  15.688  1.3059 -2.1064 -0.0094
18643TIP3   OH277419   3.537   4.400  16.979 -0.4275  0.0394 -0.0945
18643TIP3    H177420   3.616   4.454  16.980 -1.3646  1.4349  1.2725
18643TIP3    H277421   3.544   4.351  16.897  0.6377  1.9676 -1.2401
18644TIP3   OH277422   6.853   2.733   3.249  0.4623  0.3178 -0.4308
18644TIP3    H177423   6.802   2.814   3.253 -2.3969 -1.2584 -1.5732
18644TIP3    H277424   6.886   2.730   3.159 -1.0854 -0.5976 -1.0177
18645TIP3   OH277425   0.560   5.904   1.784 -0.5013  0.2187 -0.5284
18645TIP3    H177426   0.528   5.921   1.872 -0.4104 -0.8791 -0.2677
18645TIP3    H277427   0.505   5.959   1.727 -3.1753 -1.8569 -0.1369
18646TIP3   OH277428   4.420   5.111   4.286  0.1027 -0.1637 -0.3332
18646TIP3    H177429   4.490   5.122   4.350 -0.0979  0.5300 -0.2224
18646TIP3    H277430   4.425   5.189   4.232 -0.8874  0.1245 -0.0279
18647TIP3   OH277431   5.592   3.097   2.336  0.0230 -0.4021 -0.6825
18647TIP3    H177432   5.520   3.133   2.285 -0.6558  2.4539  1.9688
18647TIP3    H277433   5.670   3.137   2.300 -0.2659  0.3142 -0.5181
18648TIP3   OH277434   2.954   3.055   0.025 -0.0132  0.6457  0.2470
18648TIP3    H177435   2.936   2.965   0.054 -1.4345  1.0835  0.7998
18648TIP3    H277436   2.934   3.053  -0.069  0.1640  0.3376  0.2130
18649TIP3   OH277437   1.697   1.931  14.659  0.0152  0.7407 -0.0665
18649TIP3    H177438   1.719   2.010  14.610 -1.0403  0.7139 -0.6114
18649TIP3    H277439   1.604   1.940  14.679 -0.3491 -0.7416 -0.8864
18650TIP3   OH277440   4.489   5.422   5.935 -0.4735  0.6974  0.1122
18650TIP3    H177441   4.548   5.363   5.889  1.8022  3.3404 -0.6331
18650TIP3    H277442   4.506   5.405   6.028  2.0717  1.7645 -0.0589
18651TIP3   OH277443   4.312   0.425  14.001 -0.2817 -0.2013 -0.1280
18651TIP3    H177444   4.296   0.355  13.938 -2.4146 -0.6863  0.8628
18651TIP3    H277445   4.341   0.499  13.948 -2.0572 -0.5769 -1.7117
18652TIP3   OH277446   1.162   4.888   2.202 -0.3256 -0.4518  0.1819
18652TIP3    H177447   1.083   4.868   2.253 -0.5443  1.7862  0.8012
18652TIP3    H277448   1.185   4.977   2.227  1.0061 -0.1792 -1.8278
18653TIP3   OH277449   2.790   0.528   2.812  0.1446 -0.2563 -0.4665
18653TIP3    H177450   2.725   0.520   2.742  0.0038 -0.4103 -0.3228
18653TIP3    H277451   2.865   0.570   2.772 -0.6453  1.4300 -0.2441
18654TIP3   OH277452   0.352   5.054   1.250  0.4186  0.2253 -0.2194
18654TIP3    H177453   0.288   5.081   1.184  1.2894  0.1029 -1.1422
18654TIP3    H277454   0.367   4.962   1.232  0.6583  0.1890  0.1665
18655TIP3   OH277455   2.065   4.589   3.131  0.0590  0.5413  0.4002
18655TIP3    H177456   1.974   4.618   3.120 -0.1898 -0.1791  0.5494
18655TIP3    H277457   2.107   4.662   3.177 -0.1605  1.3499 -0.6441
18656TIP3   OH277458   0.699   4.601  15.912  0.5883 -0.0635  0.8212
18656TIP3    H177459   0.688   4.636  16.001  0.5689  1.1655  0.3415
18656TIP3    H277460   0.684   4.676  15.854 -1.8641 -1.3261 -0.3522
18657TIP3   OH277461   0.255   1.671   3.892 -0.0258 -0.0337 -0.1116
18657TIP3    H177462   0.259   1.702   3.982  1.3238  1.6154 -0.6959
18657TIP3    H277463   0.202   1.591   3.897 -2.4082  1.4998  1.6850
18658TIP3   OH277464   3.803   3.677  14.999 -0.0405 -1.0011  0.7322
18658TIP3    H177465   3.730   3.614  15.001  0.2983 -1.4056  0.5376
18658TIP3    H277466   3.878   3.625  14.972  0.2723 -0.5321  0.6948
18659TIP3   OH277467   4.878   3.137  11.613  0.4154 -0.0887  0.6893
18659TIP3    H177468   4.848   3.097  11.532 -0.9602 -0.1332  1.1948
18659TIP3    H277469   4.941   3.203  11.585 -2.7212  2.5860 -0.8473
18660TIP3   OH277470   6.751   4.987   3.815 -0.2273 -0.5965  0.1519
18660TIP3    H177471   6.730   5.031   3.897 -0.5501  0.0034 -0.2460
18660TIP3    H277472   6.681   4.923   3.803 -0.2866 -0.5517  0.2576
18661TIP3   OH277473   3.113   5.999   0.831  0.6505  0.5559 -0.5349
18661TIP3    H177474   3.064   6.041   0.901 -0.0075 -0.7664 -0.1839
18661TIP3    H277475   3.122   5.908   0.858  1.5084  0.3067 -1.5649
18662TIP3   OH277476   5.107   4.007  10.252 -0.0238 -0.0678  0.0635
18662TIP3    H177477   5.110   4.099  10.225 -0.0556 -0.0778  0.0257
18662TIP3    H277478   5.180   3.966  10.205 -0.5719 -0.2555 -0.6474
18663TIP3   OH277479   1.662   3.273  15.186  0.6593  0.2790  0.2606
18663TIP3    H177480   1.688   3.223  15.108 -1.8391 -1.5279  0.4708
18663TIP3    H277481   1.697   3.361  15.171 -0.0815  0.1281 -3.1383
18664TIP3   OH277482   0.798   5.056  13.103  0.5091 -0.2955 -0.1961
18664TIP3    H177483   0.805   5.130  13.164 -0.6563  0.4494 -0.9278
18664TIP3    H277484   0.864   5.075  13.036  1.4654 -0.8751  0.5452
18665TIP3   OH277485   3.962   3.316  13.165  0.1171  0.4216 -0.2113
18665TIP3    H177486   3.975   3.224  13.190  0.3872  0.0905 -1.4790
18665TIP3    H277487   3.876   3.317  13.124  0.5966  0.4934 -1.2337
18666TIP3   OH277488   0.105   2.522  16.301 -0.3391  0.8274  0.0003
18666TIP3    H177489   0.122   2.587  16.370 -1.7308  0.2152  0.9672
18666TIP3    H277490   0.011   2.506  16.306 -0.0179 -1.4230 -0.0630
18667TIP3   OH277491   1.594   3.272  14.342 -0.1803  0.1426  0.0571
18667TIP3    H177492   1.616   3.286  14.250 -1.9043 -0.7258 -0.5265
18667TIP3    H277493   1.585   3.177  14.350 -0.3751  0.2369  1.0434
18668TIP3   OH277494   0.810   3.977   2.955 -0.6080 -0.0861 -0.2043
18668TIP3    H177495   0.766   4.053   2.994  0.8888  0.4939  0.4474
18668TIP3    H277496   0.836   3.923   3.031  1.4713  0.5594 -0.3975
18669TIP3   OH277497   2.939   4.463   1.753 -0.6809 -0.5721 -0.4078
18669TIP3    H177498   2.942   4.534   1.689  0.4586 -0.7559 -0.5638
18669TIP3    H277499   2.848   4.433   1.750 -1.5985  1.8268  0.7274
18670TIP3   OH277500   0.838   0.943   2.879 -0.1767  0.3125  0.0815
18670TIP3    H177501   0.846   1.032   2.913  0.1012  0.0563  0.6993
18670TIP3    H277502   0.892   0.942   2.800 -1.2941  1.0819 -0.7233
18671TIP3   OH277503   0.889   5.299  13.642  0.0485 -0.8974 -0.1037
18671TIP3    H177504   0.800   5.268  13.630  0.3286 -2.1270  0.8042
18671TIP3    H277505   0.916   5.331  13.555 -1.1305 -0.8585 -0.4651
18672TIP3   OH277506   5.767   3.423  11.562 -0.1370  0.1591 -0.0357
18672TIP3    H177507   5.686   3.388  11.526 -0.3367  1.2150 -0.6247
18672TIP3    H277508   5.755   3.418  11.657  0.3541 -2.5386 -0.0136
18673TIP3   OH277509   4.502   5.444   1.161 -0.1887 -0.1225 -0.4116
18673TIP3    H177510   4.460   5.361   1.184  0.9947 -0.7856 -0.5322
18673TIP3    H277511   4.509   5.491   1.244 -0.1334 -0.5024 -0.1978
18674TIP3   OH277512   6.162   4.762  14.598  0.0994 -0.4105  0.1218
18674TIP3    H177513   6.186   4.833  14.658  0.2656  1.4325 -1.9831
18674TIP3    H277514   6.246   4.728  14.566  0.0568  0.9491 -1.5738
18675TIP3   OH277515   5.544   3.402   0.369 -0.1465  0.5934 -0.5739
18675TIP3    H177516   5.509   3.342   0.303  0.5056  0.3267 -0.6802
18675TIP3    H277517   5.483   3.396   0.442  0.0230 -0.3476 -0.5069
18676TIP3   OH277518   0.478   0.674  12.341 -0.1821 -0.7690  0.4779
18676TIP3    H177519   0.569   0.648  12.351 -0.1109 -1.2496 -1.2257
18676TIP3    H277520   0.469   0.699  12.249 -1.3860  0.8284  0.9756
18677TIP3   OH277521   5.617   4.891   3.022 -0.4163 -0.0962 -0.0814
18677TIP3    H177522   5.620   4.935   3.107 -0.5620  0.0911 -0.1728
18677TIP3    H277523   5.688   4.827   3.026 -0.7715 -0.4758  0.3937
18678TIP3   OH277524   6.363   2.853  11.376 -0.0849  0.0492  0.1992
18678TIP3    H177525   6.450   2.836  11.339  0.1582 -0.9978  1.1985
18678TIP3    H277526   6.326   2.766  11.389 -1.1757  0.4799  0.0685
18679TIP3   OH277527   4.001   4.795  14.856  0.5207  0.3341  0.0247
18679TIP3    H177528   3.966   4.711  14.886  2.0964 -0.8949 -1.3412
18679TIP3    H277529   4.069   4.771  14.792  0.2167  2.6821 -1.2927
18680TIP3   OH277530   5.021   4.336   4.295 -0.0713 -0.1424  0.0898
18680TIP3    H177531   4.995   4.421   4.330 -0.2736 -0.3431  0.4395
18680TIP3    H277532   4.944   4.280   4.307 -0.4918  0.0246 -1.5858
18681TIP3   OH277533   5.807   4.584   3.048  0.0674  0.1071 -0.1396
18681TIP3    H177534   5.728   4.569   2.996  1.6173  1.3267 -3.1121
18681TIP3    H277535   5.854   4.501   3.045 -0.1174  0.0031 -0.1794
18682TIP3   OH277536   0.820   0.880   1.590 -0.7956  0.5478  0.4087
18682TIP3    H177537   0.893   0.937   1.567 -0.1699 -0.4764 -0.2383
18682TIP3    H277538   0.796   0.906   1.679  1.0991  0.1808  1.0796
18683TIP3   OH277539   2.518   1.082  16.603 -0.5336 -0.5114  0.4615
18683TIP3    H177540   2.609   1.059  16.622 -0.6140 -0.7161  0.6059
18683TIP3    H277541   2.478   1.096  16.689 -0.6651 -0.5215  0.4014
18684TIP3   OH277542   3.625   3.336  11.589  0.0508  0.0782  0.1345
18684TIP3    H177543   3.575   3.415  11.610 -0.8196 -0.6655  0.8849
18684TIP3    H277544   3.647   3.347  11.496 -0.3807  1.0179  0.1242
18685TIP3   OH277545   3.654   5.179   2.356 -0.4349  0.0792 -0.2663
18685TIP3    H177546   3.582   5.127   2.320 -0.2763 -0.2227 -0.1424
18685TIP3    H277547   3.684   5.232   2.282 -0.3033 -0.3254 -0.5039
18686TIP3   OH277548   2.734   6.260  14.026  0.0124 -0.6966 -0.2562
18686TIP3    H177549   2.675   6.283  14.098  1.9148 -2.8951  2.2073
18686TIP3    H277550   2.821   6.286  14.057  0.8255 -1.0141 -2.1244
18687TIP3   OH277551   2.482   5.497   1.341  0.2855  0.3276  0.3218
18687TIP3    H177552   2.454   5.559   1.273  0.9940 -1.0022 -1.2356
18687TIP3    H277553   2.472   5.546   1.423  0.6840  2.4451 -0.8256
18688TIP3   OH277554   3.101   0.874   6.480  0.5090  0.7003  0.1026
18688TIP3    H177555   3.103   0.811   6.552 -0.9599  2.0247  1.3521
18688TIP3    H277556   3.173   0.846   6.423  1.2085 -0.8652  1.6471
18689TIP3   OH277557   5.128   6.241   4.532  0.3561  1.0315  0.7392
18689TIP3    H177558   5.070   6.196   4.470 -0.3485  0.6123  1.6736
18689TIP3    H277559   5.129   6.332   4.503  2.3399  0.3740 -1.5990
18690TIP3   OH277560   2.262   1.655   2.224  0.1803 -0.1344  0.3213
18690TIP3    H177561   2.209   1.729   2.254  0.8033 -0.4788  2.3730
18690TIP3    H277562   2.278   1.602   2.302  0.1830 -2.2046 -0.9940
18691TIP3   OH277563   2.061   6.399  14.272  0.0606 -0.2712  0.0451
18691TIP3    H177564   2.088   6.345  14.197  1.5015 -0.7863  0.8755
18691TIP3    H277565   2.102   6.484  14.257  0.7175 -0.5094  0.4436
18692TIP3   OH277566   0.591   3.177   2.719  0.0193 -0.1968 -0.1439
18692TIP3    H177567   0.506   3.190   2.763  0.3796 -0.5602  0.6821
18692TIP3    H277568   0.600   3.254   2.662  0.2047  1.0969  1.5438
18693TIP3   OH277569   0.124   2.623   1.851  0.6129  0.5679 -0.3395
18693TIP3    H177570   0.120   2.642   1.944  0.6088  0.4314 -0.3118
18693TIP3    H277571   0.203   2.571   1.840  0.3143  0.1117 -0.3296
18694TIP3   OH277572   0.125   6.502  14.083  0.0468 -0.0558  0.4720
18694TIP3    H177573   0.186   6.548  14.142  0.6647 -0.2563  0.0068
18694TIP3    H277574   0.052   6.562  14.072 -0.4823 -0.3581  2.1036
18695TIP3   OH277575   6.128   1.777   0.311 -0.0803 -0.3723  0.0048
18695TIP3    H177576   6.146   1.871   0.305 -0.5212 -0.2253  0.8718
18695TIP3    H277577   6.168   1.740   0.231 -0.0281  0.5583 -0.4148
18696TIP3   OH277578   1.746   5.648   2.351  0.2007 -0.6553 -0.0146
18696TIP3    H177579   1.655   5.625   2.369  0.5507 -1.9213  0.2284
18696TIP3    H277580   1.795   5.612   2.425  0.6153  2.7085  1.5024
18697TIP3   OH277581   2.826   0.134  12.120  0.3860 -0.3630 -0.2270
18697TIP3    H177582   2.736   0.133  12.152  0.1502  0.2491 -0.8537
18697TIP3    H277583   2.825   0.075  12.044  0.1998  0.6606 -1.0343
18698TIP3   OH277584   2.679   4.010  13.540 -0.3312  0.3012 -0.2450
18698TIP3    H177585   2.598   4.043  13.502 -0.0537  0.2766 -0.8690
18698TIP3    H277586   2.733   3.987  13.464 -0.0221 -0.3626  0.1655
18699TIP3   OH277587   6.223   3.490  14.218 -0.2458  0.0495  0.3115
18699TIP3    H177588   6.177   3.548  14.157 -0.6530 -0.6911 -0.0988
18699TIP3    H277589   6.316   3.505  14.200 -0.3405  0.8180  0.4450
18700TIP3   OH277590   5.226   4.160   3.219  0.5389  0.0765 -0.4147
18700TIP3    H177591   5.262   4.244   3.190 -1.7386  1.5730  0.8744
18700TIP3    H277592   5.139   4.156   3.179  0.9853 -2.1964 -1.2950
18701TIP3   OH277593   5.492   4.326  10.199 -0.4392  0.2856  0.2161
18701TIP3    H177594   5.535   4.406  10.230  1.3489 -0.2044 -0.8427
18701TIP3    H277595   5.471   4.344  10.107  0.7166 -0.7220 -0.2623
18702TIP3   OH277596   2.242   0.002   0.537  0.8223 -0.3862 -0.1104
18702TIP3    H177597   2.242  -0.026   0.445 -0.2910  1.8173 -0.8565
18702TIP3    H277598   2.175   0.070   0.541 -0.0093 -1.2363  2.6398
18703TIP3   OH277599   1.059   0.817  15.484 -0.0941 -0.4973  0.0060
18703TIP3    H177600   1.063   0.723  15.467 -0.5237 -0.5283  0.0549
18703TIP3    H277601   0.988   0.826  15.548  0.0183 -0.1519  0.0819
18704TIP3   OH277602   5.252   2.781  12.715 -0.0819  0.0592  0.1432
18704TIP3    H177603   5.219   2.700  12.753  1.9344 -0.6054  0.5907
18704TIP3    H277604   5.339   2.759  12.682 -0.1348  1.6448 -1.2227
18705TIP3   OH277605   5.228   0.898  14.858  0.6447 -0.1236 -0.2782
18705TIP3    H177606   5.179   0.849  14.792 -3.6215  1.5750  1.2997
18705TIP3    H277607   5.236   0.838  14.932 -1.3088  0.2428  0.2963
18706TIP3   OH277608   6.807   4.822  14.245  0.6061  0.6512 -0.3035
18706TIP3    H177609   6.873   4.866  14.298  1.7970 -0.5118 -0.7643
18706TIP3    H277610   6.738   4.888  14.232  2.3817  2.4232 -1.1233
18707TIP3   OH277611   4.613   4.560  16.742 -0.3866  0.1446  0.1234
18707TIP3    H177612   4.674   4.495  16.707 -0.7126  0.2202 -0.5974
18707TIP3    H277613   4.651   4.645  16.718 -0.2780  0.2129  0.5270
18708TIP3   OH277614   1.824   5.506  15.314 -0.2105  0.0374 -0.2750
18708TIP3    H177615   1.807   5.426  15.264 -1.4643 -0.1023  0.3334
18708TIP3    H277616   1.885   5.556  15.260  1.3181 -1.7137 -0.2623
18709TIP3   OH277617   3.484   0.424   0.540 -0.8937 -0.2361  0.6386
18709TIP3    H177618   3.446   0.512   0.533  0.5424  0.2896 -1.6146
18709TIP3    H277619   3.527   0.424   0.626 -0.0278  1.6857  0.2581
18710TIP3   OH277620   4.750   6.676   5.204 -0.3579  0.2941  0.6888
18710TIP3    H177621   4.805   6.749   5.232  0.6359  0.4964 -1.5551
18710TIP3    H277622   4.779   6.601   5.256 -0.1718  1.0814  1.7514
18711TIP3   OH277623   0.490   1.993   4.628  0.0298  0.3261  0.0781
18711TIP3    H177624   0.427   2.025   4.692 -0.0803 -1.2270  0.7832
18711TIP3    H277625   0.453   1.911   4.596 -0.3091  1.4151 -2.6126
18712TIP3   OH277626   6.134   0.045   1.462 -0.0560  0.3621  0.2416
18712TIP3    H177627   6.106  -0.042   1.433 -0.8640  0.7321 -0.1304
18712TIP3    H277628   6.204   0.069   1.402  2.4748 -1.3315  2.2767
18713TIP3   OH277629   0.331   1.832   4.992 -0.3680  0.0189  1.0079
18713TIP3    H177630   0.339   1.828   5.087  1.1597 -1.1832  0.8655
18713TIP3    H277631   0.382   1.758   4.960 -0.0302  0.9540 -0.7825
18714TIP3   OH277632   6.281   5.946   3.506  0.5401  0.1693  0.5689
18714TIP3    H177633   6.228   5.950   3.587  0.1743 -1.1703  0.4280
18714TIP3    H277634   6.233   6.000   3.444 -0.1423 -0.2090  0.7471
18715TIP3   OH277635   2.800   6.453   4.856  0.0014  0.6294 -0.1551
18715TIP3    H177636   2.879   6.400   4.860  0.8634  1.8387 -0.5984
18715TIP3    H277637   2.746   6.411   4.789 -0.3373 -0.9395  1.0193
18716TIP3   OH277638   3.889   3.659  11.436  0.1572  0.1110 -0.1397
18716TIP3    H177639   3.834   3.668  11.358 -0.7741 -0.6215  0.4039
18716TIP3    H277640   3.978   3.674  11.405 -0.4162  2.3001 -0.8651
18717TIP3   OH277641   0.801   4.012   4.750  0.1067  0.4184  0.1729
18717TIP3    H177642   0.873   4.046   4.802 -0.6393  0.2297  1.3872
18717TIP3    H277643   0.753   4.090   4.721  0.3194  0.5142  0.0781
18718TIP3   OH277644   6.246   5.270  10.759 -0.6727  0.2076  0.5596
18718TIP3    H177645   6.312   5.305  10.699 -1.3148 -1.0978 -1.0285
18718TIP3    H277646   6.181   5.339  10.767 -1.2046 -0.0066 -1.3400
18719TIP3   OH277647   6.668   5.825   3.227  0.5614  0.1584  0.2741
18719TIP3    H177648   6.713   5.754   3.181  1.6024  0.6766  0.4716
18719TIP3    H277649   6.711   5.828   3.313 -0.7881 -0.2447  0.9902
18720TIP3   OH277650   4.606   0.520   1.053  0.1958  0.3522 -0.1402
18720TIP3    H177651   4.512   0.504   1.060  0.1812 -0.3483 -1.5277
18720TIP3    H277652   4.645   0.433   1.045  0.9282  0.6598 -0.0653
18721TIP3   OH277653   4.767   2.498  15.939  0.0818 -0.1820 -0.3555
18721TIP3    H177654   4.688   2.511  15.990  0.3142 -0.0882 -0.0141
18721TIP3    H277655   4.744   2.527  15.850 -0.1845  0.0893 -0.1994
18722TIP3   OH277656   3.131   1.776  14.208  0.1744 -0.0402  0.6261
18722TIP3    H177657   3.057   1.781  14.269  1.0409  0.1249  1.6860
18722TIP3    H277658   3.160   1.866  14.198 -0.3606  0.0199 -0.5622
18723TIP3   OH277659   1.697   0.946  15.046 -0.3953 -0.1004 -0.2054
18723TIP3    H177660   1.785   0.951  15.084 -0.1877 -1.6868 -0.3855
18723TIP3    H277661   1.704   0.995  14.964 -0.4085  1.9602  0.9632
18724TIP3   OH277662   6.503   4.354  17.055 -0.2225 -1.0016 -0.3756
18724TIP3    H177663   6.494   4.331  16.963  0.5088 -1.6501 -0.2971
18724TIP3    H277664   6.596   4.340  17.074  0.1585  1.4703 -0.1474
18725TIP3   OH277665   5.239   2.022  12.797  0.3851  0.2964 -0.5094
18725TIP3    H177666   5.153   2.061  12.781  0.4993 -0.2661 -2.9823
18725TIP3    H277667   5.244   2.013  12.892 -2.7843 -0.7710 -0.3140
18726TIP3   OH277668   5.031   2.300   0.826  0.5627  0.1635  0.9685
18726TIP3    H177669   5.106   2.339   0.780 -0.1221  1.9075  1.2234
18726TIP3    H277670   5.007   2.367   0.891 -1.4522 -0.1761  0.6162
18727TIP3   OH277671   6.301   4.951   5.751 -0.2730  0.0607 -0.7476
18727TIP3    H177672   6.356   4.924   5.825 -0.8609  0.5417 -0.1174
18727TIP3    H277673   6.277   5.041   5.772 -2.2465 -0.4983 -0.4184
18728TIP3   OH277674   3.703   2.108   2.068  0.1530  0.1201 -0.7593
18728TIP3    H177675   3.682   2.059   2.148  1.8720 -2.1038 -1.5816
18728TIP3    H277676   3.645   2.184   2.072 -0.1555 -0.1201  2.3699
18729TIP3   OH277677   1.442   4.918  10.338  0.3613 -0.1265  0.5365
18729TIP3    H177678   1.533   4.942  10.360 -0.0921  1.5641  0.7494
18729TIP3    H277679   1.394   5.001  10.343 -0.7564 -0.5487 -1.8580
18730TIP3   OH277680   1.083   3.827   4.161 -0.8820 -0.4604 -0.0352
18730TIP3    H177681   1.062   3.736   4.182 -0.7953 -0.3094  0.7473
18730TIP3    H277682   1.007   3.877   4.190 -0.9755 -0.2945 -0.5647
18731TIP3   OH277683   2.450   4.836   4.121  0.0927 -0.0946 -0.3719
18731TIP3    H177684   2.503   4.782   4.179 -0.2496 -0.1937 -0.1445
18731TIP3    H277685   2.513   4.883   4.067  0.4090 -0.2092 -0.1064
18732TIP3   OH277686   1.178   0.261   4.046  0.2125 -0.1470  0.3444
18732TIP3    H177687   1.139   0.174   4.052  0.4829 -0.2531  0.5465
18732TIP3    H277688   1.269   0.245   4.020  0.6633 -0.0070  1.7468
18733TIP3   OH277689   5.242   2.973  15.341 -0.2177  0.1225  0.2904
18733TIP3    H177690   5.281   3.059  15.351 -0.4616  0.6124 -2.2518
18733TIP3    H277691   5.240   2.936  15.429  2.4795  1.5745  1.0458
18734TIP3   OH277692   3.828   1.724  12.847 -0.7202 -0.0111  0.0752
18734TIP3    H177693   3.875   1.802  12.876  1.8217 -1.5202  0.3624
18734TIP3    H277694   3.819   1.671  12.927  1.4207 -1.7832 -0.7296
18735TIP3   OH277695   0.356   0.331   5.318  0.2908  0.6556  0.0193
18735TIP3    H177696   0.400   0.249   5.295 -0.0376  0.6698 -0.7105
18735TIP3    H277697   0.328   0.319   5.408 -1.6686 -0.9205 -0.7204
18736TIP3   OH277698   6.827   2.555  10.946  0.1189 -0.5727 -0.0097
18736TIP3    H177699   6.758   2.498  10.909 -0.1277 -0.0140 -0.4247
18736TIP3    H277700   6.908   2.516  10.914 -0.0370 -0.8060 -0.1336
18737TIP3   OH277701   1.572   3.578   1.660  0.3051 -0.0081  0.0065
18737TIP3    H177702   1.639   3.537   1.606  0.0240 -0.0454 -0.3174
18737TIP3    H277703   1.616   3.653   1.700  1.1381 -1.2580  1.5041
18738TIP3   OH277704   1.458   2.976  16.792 -0.7819  0.2180  0.3590
18738TIP3    H177705   1.435   2.904  16.850 -1.6959  0.8950  0.8448
18738TIP3    H277706   1.381   2.989  16.736 -0.7815  1.0666  0.5371
18739TIP3   OH277707   1.404   4.725  14.898 -0.0749  0.3037 -0.4310
18739TIP3    H177708   1.460   4.692  14.968  1.1154  0.9504 -1.0429
18739TIP3    H277709   1.316   4.729  14.937  0.2563 -0.9035  0.4928
18740TIP3   OH277710   4.679   3.436   5.287  0.5046  0.1574 -0.2251
18740TIP3    H177711   4.772   3.419   5.274  0.9276  1.5799  0.6713
18740TIP3    H277712   4.675   3.478   5.373 -1.0190 -0.2329 -0.0863
18741TIP3   OH277713   2.885   4.749  14.431  0.4604  0.1723 -0.0022
18741TIP3    H177714   2.799   4.783  14.407  0.1873 -0.6008 -0.1534
18741TIP3    H277715   2.873   4.654  14.436  1.1926  0.0910  0.4309
18742TIP3   OH277716   6.493   5.351  12.201  0.3173 -0.1773 -0.6324
18742TIP3    H177717   6.579   5.389  12.217  1.0760 -1.6936 -0.9292
18742TIP3    H277718   6.510   5.276  12.144 -1.0581 -1.1242  0.1449
18743TIP3   OH277719   2.562   4.335  12.958 -0.1852 -0.0371 -0.3421
18743TIP3    H177720   2.544   4.415  12.910 -0.6178  0.0035 -0.1150
18743TIP3    H277721   2.654   4.343  12.985 -0.3239  0.5327 -0.0284
18744TIP3   OH277722   5.697   5.418   5.300 -0.2568  0.0667  0.3018
18744TIP3    H177723   5.749   5.391   5.376 -0.9023 -2.0612  0.0520
18744TIP3    H277724   5.607   5.415   5.330 -0.3830  2.5997  0.3899
18745TIP3   OH277725   2.315   6.784  14.489  0.2277 -0.4020 -0.0947
18745TIP3    H177726   2.280   6.845  14.424 -2.4344 -1.8396 -0.1776
18745TIP3    H277727   2.360   6.717  14.438 -1.1198 -1.0653 -0.4778
18746TIP3   OH277728   0.559   1.030   3.399  0.3170  0.4751 -0.2266
18746TIP3    H177729   0.474   1.024   3.354  0.3678  1.4055 -0.4638
18746TIP3    H277730   0.536   1.028   3.492  0.1383 -0.4884 -0.2774
18747TIP3   OH277731   4.726   0.507   0.165 -0.2322 -0.0587  0.4847
18747TIP3    H177732   4.798   0.452   0.133 -0.9846 -0.4370 -0.6170
18747TIP3    H277733   4.765   0.594   0.173  0.3556 -0.2557 -0.1126
18748TIP3   OH277734   1.205   6.729   2.487  0.4582 -0.2531  0.5009
18748TIP3    H177735   1.161   6.798   2.438  1.4079 -0.6005 -0.8922
18748TIP3    H277736   1.274   6.774   2.536 -0.3231  0.0607  1.3283
18749TIP3   OH277737   3.501   1.768  11.642 -0.1818  0.7421 -0.2162
18749TIP3    H177738   3.497   1.814  11.557 -0.0410  0.0181 -0.6216
18749TIP3    H277739   3.428   1.706  11.639  0.8926 -0.5354 -0.5554
18750TIP3   OH277740   6.645   4.672   0.069 -0.0057  0.0545  0.0798
18750TIP3    H177741   6.677   4.636  -0.013  0.9839 -0.4583  0.6751
18750TIP3    H277742   6.581   4.738   0.043 -0.1513 -0.5231 -1.0804
18751TIP3   OH277743   6.671   5.981  12.293  0.2789  0.1869  0.3244
18751TIP3    H177744   6.578   5.972  12.273  0.3244  0.9311 -0.2852
18751TIP3    H277745   6.677   6.064  12.339  0.7495  0.5965 -0.4490
18752TIP3   OH277746   3.698   2.266  11.032 -0.0967 -0.2934  0.4068
18752TIP3    H177747   3.620   2.248  10.980 -0.4186 -0.1783  0.8465
18752TIP3    H277748   3.746   2.331  10.980 -0.2652 -0.3979  0.1148
18753TIP3   OH277749   5.983   5.738  11.137 -0.0411  0.4045 -0.2803
18753TIP3    H177750   6.003   5.652  11.102 -0.2416 -0.0728  0.7455
18753TIP3    H277751   5.903   5.766  11.091 -0.7315 -0.5356  0.3198
18754TIP3   OH277752   4.004   2.560  16.230 -0.0471  0.2164  0.1411
18754TIP3    H177753   3.943   2.537  16.160 -1.3099  1.5795  0.7138
18754TIP3    H277754   4.063   2.485  16.237 -1.1869 -0.8355 -0.9635
18755TIP3   OH277755   5.078   0.521   3.332  0.7544 -0.9883 -0.4614
18755TIP3    H177756   5.058   0.441   3.283 -1.5885  0.0357 -1.3012
18755TIP3    H277757   5.160   0.501   3.378  0.5639 -3.6375 -1.1232
18756TIP3   OH277758   6.042   3.674  14.026  0.0137 -0.6213 -0.6902
18756TIP3    H177759   6.048   3.665  13.931 -0.5817  2.0273 -1.0540
18756TIP3    H277760   6.121   3.722  14.051 -1.0723  1.0511 -0.2827
18757TIP3   OH277761   2.136   0.124  11.442  0.3646 -0.1010 -0.1716
18757TIP3    H177762   2.176   0.138  11.528 -0.1455  0.4730 -0.0268
18757TIP3    H277763   2.175   0.191  11.386 -0.7758  0.8264  0.1018
18758TIP3   OH277764   1.163   0.218   0.892  0.2426 -0.3101 -0.1456
18758TIP3    H177765   1.076   0.258   0.893 -0.1946 -1.2495  0.4855
18758TIP3    H277766   1.208   0.260   0.819 -1.2852 -0.9116 -1.4987
18759TIP3   OH277767   1.219   2.649  15.518 -0.0271 -0.0627  0.1035
18759TIP3    H177768   1.256   2.737  15.515 -0.6197  0.2319  1.0258
18759TIP3    H277769   1.288   2.595  15.554  0.4510 -0.0520 -0.7578
18760TIP3   OH277770   3.261   5.169   3.115 -0.1280 -0.1200  0.2948
18760TIP3    H177771   3.206   5.220   3.055  0.3403  0.5636  0.4307
18760TIP3    H277772   3.249   5.078   3.087  0.2360  0.1931 -0.9642
18761TIP3   OH277773   5.148   0.053   4.735  0.1698 -0.0589  0.1691
18761TIP3    H177774   5.119   0.137   4.699 -0.3618 -0.5621 -0.6011
18761TIP3    H277775   5.244   0.055   4.728  0.2328  0.8642  1.0413
18762TIP3   OH277776   6.015   5.320   4.719  0.3385 -0.5718  0.0530
18762TIP3    H177777   6.078   5.248   4.722  0.9457 -0.0607 -0.0957
18762TIP3    H277778   5.986   5.323   4.628 -0.2296 -1.0700  0.2068
18763TIP3   OH277779   3.079   1.218  13.348 -0.2125 -0.5085  0.1450
18763TIP3    H177780   3.010   1.170  13.300 -0.2845  0.8984 -1.2556
18763TIP3    H277781   3.040   1.303  13.366  0.5705 -0.2994  0.8761
18764TIP3   OH277782   4.644   1.001  10.541 -0.0206 -0.3181  0.2792
18764TIP3    H177783   4.733   0.987  10.508 -0.4385  0.0930 -1.1320
18764TIP3    H277784   4.653   1.009  10.635  1.3465 -0.9879  0.2251
18765TIP3   OH277785   1.133   2.014   4.084 -0.5651  0.8952 -0.0699
18765TIP3    H177786   1.043   2.044   4.097 -0.2545  2.4773 -1.2833
18765TIP3    H277787   1.182   2.053   4.156 -1.0642 -1.3574  1.6089
18766TIP3   OH277788   5.098   2.424  13.196  0.2630 -0.0168  0.6390
18766TIP3    H177789   5.191   2.439  13.183  0.3364 -0.1804  0.9644
18766TIP3    H277790   5.089   2.405  13.289 -0.3215  1.6866  0.9726
18767TIP3   OH277791   0.367   2.121   4.836  0.3368 -0.7033 -0.1346
18767TIP3    H177792   0.412   2.205   4.850 -1.5600  0.4402 -0.5330
18767TIP3    H277793   0.374   2.075   4.920  0.9024  0.0968  0.2701
18768TIP3   OH277794   3.058   1.806   2.166  0.0496  0.3707 -0.4050
18768TIP3    H177795   3.069   1.755   2.086  2.1216 -1.6032  1.0344
18768TIP3    H277796   3.012   1.747   2.226  0.3185  1.0742  0.5185
18769TIP3   OH277797   3.991   1.575   4.194  0.4371 -0.3441 -0.3813
18769TIP3    H177798   4.076   1.575   4.237 -0.1292 -2.0327  0.8649
18769TIP3    H277799   3.989   1.493   4.145 -1.1901 -1.3300  1.2273
18770TIP3   OH277800   2.884   2.407   5.897  0.2062 -0.2165 -0.0871
18770TIP3    H177801   2.848   2.380   5.813  0.1926 -3.0990  0.7321
18770TIP3    H277802   2.891   2.326   5.948  3.5775  0.8346  1.4507
18771TIP3   OH277803   1.868   6.185  15.233 -0.2220  0.1646  0.5626
18771TIP3    H177804   1.962   6.194  15.249 -0.2376  0.9728  0.2239
18771TIP3    H277805   1.840   6.115  15.293  0.3187  0.9117  1.7236
18772TIP3   OH277806   2.765   0.701   1.126  0.0520  0.2482  0.7452
18772TIP3    H177807   2.810   0.745   1.055  2.1072 -0.8541  1.2827
18772TIP3    H277808   2.809   0.731   1.205  0.2705 -1.2929  1.2506
18773TIP3   OH277809   0.763   0.273  12.698  0.0355 -0.0038 -0.0219
18773TIP3    H177810   0.766   0.205  12.631 -0.5074  0.5813 -0.6507
18773TIP3    H277811   0.854   0.300  12.710  0.1605 -0.2877 -0.3335
18774TIP3   OH277812   4.661   1.472  11.226  0.1194  0.3729 -0.5744
18774TIP3    H177813   4.726   1.524  11.273 -0.1534 -1.8033  2.4967
18774TIP3    H277814   4.577   1.499  11.263 -0.4855  0.8530 -2.1931
18775TIP3   OH277815   1.972   1.273  11.101 -0.2150 -0.1802  0.0779
18775TIP3    H177816   2.011   1.268  11.014 -0.8992 -1.1993 -0.1935
18775TIP3    H277817   1.957   1.182  11.126 -2.5473  0.1328  0.0818
18776TIP3   OH277818   5.409   5.936  14.320 -0.0585  0.0797 -0.1794
18776TIP3    H177819   5.350   5.891  14.260 -0.4275  0.0366  0.2093
18776TIP3    H277820   5.495   5.932  14.278 -0.1683 -0.6190 -0.3383
18777TIP3   OH277821   0.415   4.030   4.174  0.7672 -0.1866  0.0001
18777TIP3    H177822   0.361   4.101   4.139 -0.9448 -0.6188  1.6061
18777TIP3    H277823   0.362   3.952   4.161  1.6309 -0.8448  0.3658
18778TIP3   OH277824   4.086   0.304  12.156 -0.3913  0.4500  0.2477
18778TIP3    H177825   4.136   0.371  12.202  2.7497 -0.3941 -1.6212
18778TIP3    H277826   4.090   0.227  12.213 -0.8919  0.7820  0.7503
18779TIP3   OH277827   2.598   1.503  10.638  0.2966  0.2012 -0.2819
18779TIP3    H177828   2.576   1.528  10.727  0.1744 -0.3542 -0.1567
18779TIP3    H277829   2.567   1.413  10.629  0.2614  0.2713 -0.8999
18780TIP3   OH277830   3.554   5.558   1.977  0.1370 -0.0593 -0.4924
18780TIP3    H177831   3.622   5.523   2.034  1.8461  3.1208 -0.3096
18780TIP3    H277832   3.473   5.548   2.026  0.9657 -0.9327  0.7651
18781TIP3   OH277833   6.852   4.053  16.952 -0.0987  0.7103 -0.6755
18781TIP3    H177834   6.784   4.103  16.996 -0.9149 -1.8520  1.2329
18781TIP3    H277835   6.805   3.991  16.897  0.7389 -0.0388 -0.5701
18782TIP3   OH277836   4.981   5.823  15.565 -0.1444 -0.3291 -0.1373
18782TIP3    H177837   4.943   5.751  15.515 -0.4209 -0.4298  0.2107
18782TIP3    H277838   5.068   5.837  15.527  0.0797 -1.1274  0.0769
18783TIP3   OH277839   2.222   1.524   1.824  0.2004  0.6045  0.1216
18783TIP3    H177840   2.252   1.598   1.876 -0.1296  0.0585  1.1087
18783TIP3    H277841   2.187   1.462   1.888  1.7119 -1.0221 -0.5360
18784TIP3   OH277842   0.120   3.140   1.703 -0.4943  0.0633  0.6678
18784TIP3    H177843   0.124   3.195   1.624 -2.1353  0.3322  0.7381
18784TIP3    H277844   0.154   3.055   1.675  1.1169  0.7922  0.2878
18785TIP3   OH277845   3.041   2.281   4.044 -0.2520 -0.0403 -0.5061
18785TIP3    H177846   2.998   2.205   4.083  0.8223 -0.0458  0.7215
18785TIP3    H277847   3.057   2.255   3.953 -2.3535 -0.2154 -0.8881
18786TIP3   OH277848   4.518   2.999   3.670  0.2229 -0.0388  0.1207
18786TIP3    H177849   4.445   2.942   3.694  0.3482 -0.2422  0.0255
18786TIP3    H277850   4.592   2.963   3.719  0.0801  0.6849  0.8901
18787TIP3   OH277851   6.574   6.189  14.921  0.0864 -0.3016  0.6146
18787TIP3    H177852   6.604   6.154  14.837  1.3441  0.0418  0.9136
18787TIP3    H277853   6.568   6.283  14.908 -0.3707 -0.3097  0.7228
18788TIP3   OH277854   1.599   4.427  15.814  0.4667 -0.5660  0.4382
18788TIP3    H177855   1.524   4.369  15.826 -0.1708  0.5484  2.2191
18788TIP3    H277856   1.671   4.368  15.788 -0.3860 -2.0235  1.2313
18789TIP3   OH277857   0.709   1.187  15.884 -0.0569  0.1843 -0.1460
18789TIP3    H177858   0.647   1.187  15.811  0.5315 -1.4312 -0.6903
18789TIP3    H277859   0.655   1.169  15.961 -0.2240 -2.1686 -0.7338
18790TIP3   OH277860   1.235   3.384   3.217  0.2731 -0.1017  0.2142
18790TIP3    H177861   1.152   3.365   3.172 -0.0142  0.5816  0.4342
18790TIP3    H277862   1.246   3.479   3.208  1.6587 -0.3433 -0.8672
18791TIP3   OH277863   3.846   2.082  15.222  0.3602 -0.1718  0.3562
18791TIP3    H177864   3.778   2.138  15.259 -2.2671 -1.8586 -1.5866
18791TIP3    H277865   3.855   2.010  15.284 -0.3099 -0.3885  0.2087
18792TIP3   OH277866   0.122   5.377  15.614 -0.8523 -0.7645  0.3305
18792TIP3    H177867   0.091   5.461  15.649  3.1445  1.7322 -1.3851
18792TIP3    H277868   0.168   5.336  15.687 -0.4997 -0.1323  0.4687
18793TIP3   OH277869   0.201   5.463  11.242 -0.3515  0.1952 -0.0433
18793TIP3    H177870   0.137   5.415  11.191  0.2866 -0.8674  0.1333
18793TIP3    H277871   0.276   5.474  11.183  0.4473 -1.1704  0.6649
18794TIP3   OH277872   3.089   3.256   1.101 -0.2671 -0.6140 -0.1071
18794TIP3    H177873   3.060   3.291   1.016  2.1242 -0.6060 -0.9888
18794TIP3    H277874   3.008   3.230   1.144 -1.7719  1.4831 -1.4269
18795TIP3   OH277875   3.707   2.677   0.364  0.0989 -0.2054  0.3180
18795TIP3    H177876   3.690   2.764   0.399  0.1141 -0.4745  1.0200
18795TIP3    H277877   3.622   2.633   0.366 -0.1489  0.1537 -1.1211
18796TIP3   OH277878   1.461   1.825   4.879  0.0310  0.0036  0.0253
18796TIP3    H177879   1.493   1.791   4.796  1.3873  0.4347  0.3479
18796TIP3    H277880   1.409   1.902   4.855 -0.3652 -0.4165 -0.4756
18797TIP3   OH277881   3.990   1.607  14.649  0.5402  0.0394 -0.2972
18797TIP3    H177882   3.902   1.612  14.612 -1.0754  1.5177  3.2563
18797TIP3    H277883   4.028   1.693  14.630  0.0978  0.4307  0.5398
18798TIP3   OH277884   5.314   3.655   3.956  0.4666  0.2527 -0.8140
18798TIP3    H177885   5.315   3.581   3.896 -0.1238 -0.8118  0.4273
18798TIP3    H277886   5.252   3.629   4.025  0.5155  1.7481 -0.1598
18799TIP3   OH277887   0.375   3.447  11.446 -0.6888  0.0779 -0.3769
18799TIP3    H177888   0.423   3.481  11.370  0.9421 -1.0369  0.1052
18799TIP3    H277889   0.443   3.413  11.504 -1.9860 -0.1896  1.0557
18800TIP3   OH277890   3.947   5.074  12.131  0.9358 -0.4407 -0.1381
18800TIP3    H177891   3.892   5.052  12.206  1.6384 -1.8193  0.0127
18800TIP3    H277892   4.027   5.022  12.143  0.8348 -1.1648 -2.1281
18801TIP3   OH277893   1.672   3.553  12.390 -0.0004 -0.1689  0.2496
18801TIP3    H177894   1.748   3.503  12.419 -0.0297  1.0112  2.6111
18801TIP3    H277895   1.650   3.515  12.305  4.1961  0.5055 -1.3842
18802TIP3   OH277896   4.849   6.283  12.212  0.0230 -0.4654  0.0268
18802TIP3    H177897   4.901   6.308  12.136 -1.8432  0.6067 -0.9585
18802TIP3    H277898   4.840   6.188  12.205  1.4279 -0.6104 -0.0190
18803TIP3   OH277899   5.242   4.587  13.678  0.1243 -0.1288  0.1640
18803TIP3    H177900   5.161   4.548  13.646 -0.0690  0.2649  0.1595
18803TIP3    H277901   5.280   4.630  13.601  0.4904 -0.5692  0.0988
18804TIP3   OH277902   3.760   1.565   4.891 -0.4328 -0.0188  0.0184
18804TIP3    H177903   3.747   1.633   4.825 -1.0452 -0.7603 -0.6404
18804TIP3    H277904   3.855   1.560   4.903 -0.3653  0.7392 -0.1328
18805TIP3   OH277905   6.098   6.298  11.145 -0.1988 -0.3777  0.1452
18805TIP3    H177906   6.103   6.347  11.063  1.3286  1.0075  1.0062
18805TIP3    H277907   6.102   6.365  11.214  1.4904 -1.6356  1.3584
18806TIP3   OH277908   2.315   2.052   4.081  0.0062 -0.1677  0.6090
18806TIP3    H177909   2.366   2.122   4.041 -1.7320  1.0211  0.3480
18806TIP3    H277910   2.367   2.024   4.156  1.6774 -0.0084 -0.4527
18807TIP3   OH277911   3.580   1.381   0.178  0.1695 -0.4791 -0.2679
18807TIP3    H177912   3.651   1.441   0.201  0.2899 -1.0365  0.9200
18807TIP3    H277913   3.500   1.429   0.200  0.2219 -0.3186 -0.4259
18808TIP3   OH277914   2.619   0.645  16.930 -0.2320  0.4868  0.5448
18808TIP3    H177915   2.529   0.678  16.927  0.1471  1.9247  2.7791
18808TIP3    H277916   2.612   0.561  16.975 -0.6235 -0.1407 -0.6708
18809TIP3   OH277917   3.249   0.802   3.976 -0.0879  0.0803 -0.7194
18809TIP3    H177918   3.324   0.754   3.940 -0.4152 -0.3893 -0.7820
18809TIP3    H277919   3.236   0.875   3.916  0.0869 -0.0513 -0.9163
18810TIP3   OH277920   4.247   5.959   6.458 -0.2893 -0.2873 -0.0214
18810TIP3    H177921   4.197   5.880   6.479 -0.9861 -0.0755 -0.8169
18810TIP3    H277922   4.313   5.930   6.395 -0.0772 -0.3679  0.2362
18811TIP3   OH277923   5.117   5.171   0.791 -0.3730 -0.2365 -0.1868
18811TIP3    H177924   5.024   5.146   0.789 -0.8268  1.0976  1.6495
18811TIP3    H277925   5.142   5.162   0.882  0.6710  1.5608 -0.2583
18812TIP3   OH277926   3.791   2.006  13.883  0.1484 -0.0137 -0.3170
18812TIP3    H177927   3.710   2.012  13.832 -0.3351  0.0410  0.4493
18812TIP3    H277928   3.788   2.081  13.942 -0.5590 -1.4521  1.5763
18813TIP3   OH277929   5.052   2.177   3.738 -0.2674 -0.7172  0.0775
18813TIP3    H177930   5.009   2.219   3.664 -1.1387 -0.3285  0.7764
18813TIP3    H277931   5.144   2.204   3.732 -0.1535 -1.3579 -1.3024
18814TIP3   OH277932   2.030   6.280   0.356 -0.0454  0.1894  0.1873
18814TIP3    H177933   2.112   6.326   0.341 -0.4690  0.5557 -1.1511
18814TIP3    H277934   2.053   6.208   0.415  0.9654  1.0522  0.8669
18815TIP3   OH277935   6.530   6.228  16.661  0.1773  0.5137 -0.1097
18815TIP3    H177936   6.498   6.201  16.747  0.0008 -1.6029 -0.7819
18815TIP3    H277937   6.451   6.232  16.607  0.6072 -1.6097 -0.9874
18816TIP3   OH277938   1.918   0.177   4.594  0.0781  0.1411  0.3020
18816TIP3    H177939   1.862   0.103   4.570 -0.1982  1.3076 -3.3111
18816TIP3    H277940   1.883   0.209   4.677  1.0819 -4.4556  2.8590
18817TIP3   OH277941   2.753   3.768   4.514  0.0699 -0.0096  0.0023
18817TIP3    H177942   2.750   3.837   4.580 -0.4498 -0.1259  0.1082
18817TIP3    H277943   2.675   3.783   4.461 -0.7776 -1.3008  0.8378
18818TIP3   OH277944   6.292   2.214  15.433  0.6213 -0.5087 -0.0212
18818TIP3    H177945   6.274   2.239  15.342  1.9050  1.5535  0.2306
18818TIP3    H277946   6.311   2.297  15.477  1.3762 -1.6045  1.8230
18819TIP3   OH277947   4.097   5.841   4.538  0.4429 -0.1388 -0.5348
18819TIP3    H177948   4.057   5.796   4.612  1.9706  1.2733  1.2503
18819TIP3    H277949   4.172   5.786   4.514  0.6130 -0.0169 -0.2801
18820TIP3   OH277950   1.066   6.105   1.903  0.1391  0.1637 -0.4709
18820TIP3    H177951   1.041   6.116   1.995 -1.2544  1.0753 -0.9220
18820TIP3    H277952   1.035   6.017   1.880 -2.6697  1.1419 -0.9295
18821TIP3   OH277953   3.502   6.838   0.000  0.5137 -0.0240 -0.3833
18821TIP3    H177954   3.421   6.863   0.044  1.2932  2.4069 -0.1776
18821TIP3    H277955   3.564   6.822   0.072  0.4779 -0.9278 -0.5488
18822TIP3   OH277956   3.582   6.604  15.370 -0.5010  0.4162  0.1352
18822TIP3    H177957   3.505   6.643  15.411 -0.1563  1.2536  0.0035
18822TIP3    H277958   3.621   6.675  15.319 -0.1062 -0.2238 -0.4708
18823TIP3   OH277959   1.563   3.313  11.353 -0.1676  0.3229 -0.6288
18823TIP3    H177960   1.516   3.375  11.297 -1.6922  1.3951  1.6815
18823TIP3    H277961   1.497   3.247  11.376  0.8397 -0.9442 -1.2496
18824TIP3   OH277962   2.083   2.358  13.818 -0.5285 -0.2929 -0.5664
18824TIP3    H177963   2.110   2.417  13.748  0.8013 -0.1261  0.0685
18824TIP3    H277964   2.005   2.399  13.855 -1.0046 -0.1731 -1.6668
18825TIP3   OH277965   0.148   0.024  16.733 -0.1861 -0.2301 -0.5500
18825TIP3    H177966   0.162   0.028  16.639  1.5145  0.2713 -0.2917
18825TIP3    H277967   0.134  -0.069  16.751 -0.8253 -0.2926 -1.3176
18826TIP3   OH277968   2.655   3.674  14.333  0.0150 -0.4452 -0.4557
18826TIP3    H177969   2.653   3.736  14.261  1.1015  0.7195  0.4629
18826TIP3    H277970   2.565   3.642  14.341 -0.7339  1.5041 -0.5648
18827TIP3   OH277971   2.293   3.183   5.822  0.2171  0.3426  0.2568
18827TIP3    H177972   2.364   3.234   5.783 -0.4104  0.3714 -0.8811
18827TIP3    H277973   2.338   3.114   5.872  1.0588  1.4303  1.0501
18828TIP3   OH277974   4.406   2.665  15.137  0.2926  0.5413 -0.0620
18828TIP3    H177975   4.329   2.638  15.089  0.3819  0.2975 -0.0702
18828TIP3    H277976   4.444   2.735  15.085 -0.9696  1.9849  0.8913
18829TIP3   OH277977   0.103   5.412   5.226  0.1897  0.1748  0.2328
18829TIP3    H177978   0.008   5.424   5.225  0.0802 -0.0974  2.3335
18829TIP3    H277979   0.117   5.340   5.287  1.7307 -0.2541 -0.5776
18830TIP3   OH277980   6.759   2.391  14.059  0.5580  0.0377  0.4328
18830TIP3    H177981   6.750   2.486  14.063 -1.2145 -0.1231  1.2172
18830TIP3    H277982   6.765   2.364  14.151 -0.7026 -0.7229  0.3143
18831TIP3   OH277983   3.191   3.283   1.353 -0.2922 -0.3330  0.2106
18831TIP3    H177984   3.168   3.281   1.260  0.8816 -0.3385 -0.0873
18831TIP3    H277985   3.206   3.192   1.377 -0.8973 -0.3670  0.5015
18832TIP3   OH277986   1.492   4.446   0.495  0.1211  0.6064  0.7509
18832TIP3    H177987   1.441   4.494   0.430 -1.1415 -0.1222  1.1840
18832TIP3    H277988   1.575   4.428   0.451 -1.1336 -0.9084 -1.1198
18833TIP3   OH277989   0.292   1.039   2.476 -0.0196  0.0551  0.0344
18833TIP3    H177990   0.379   1.062   2.509 -0.6172 -0.2152  1.9192
18833TIP3    H277991   0.266   1.115   2.423  1.1662  0.3265 -0.1833
18834TIP3   OH277992   3.423   5.845   1.415 -0.3238  0.2184  0.5016
18834TIP3    H177993   3.470   5.772   1.456 -0.9009 -0.3937  0.0895
18834TIP3    H277994   3.372   5.884   1.485 -2.9430 -2.1113  0.0275
18835TIP3   OH277995   5.744   3.413   1.358 -0.3691  0.3485  0.8086
18835TIP3    H177996   5.740   3.375   1.446  0.4591  0.1715  0.7833
18835TIP3    H277997   5.758   3.507   1.372 -0.8161  0.4045  0.8690
18836TIP3   OH277998   2.193   5.334  13.304  0.3676  0.5576 -0.1807
18836TIP3    H177999   2.189   5.421  13.263  1.3080 -0.2825 -2.2016
18836TIP3    H278000   2.102   5.313  13.324  0.0797  1.7936 -0.1048
18837TIP3   OH278001   5.862   0.800  11.304  0.6554 -0.1819  0.5977
18837TIP3    H178002   5.833   0.825  11.392  0.0081 -0.4308  0.4608
18837TIP3    H278003   5.930   0.864  11.282  0.4204  0.2282  1.0523
18838TIP3   OH278004   5.940   5.768  13.004 -0.3801 -0.1143  0.5257
18838TIP3    H178005   5.996   5.713  13.059 -0.9069  1.1607  2.4639
18838TIP3    H278006   5.865   5.788  13.060 -1.6188  0.1934 -1.1630
18839TIP3   OH278007   4.177   0.490   1.586  0.3008  0.1013  0.1691
18839TIP3    H178008   4.107   0.432   1.555  2.3350 -2.5693  0.1530
18839TIP3    H278009   4.177   0.479   1.681  0.1468  0.7569  0.2453
18840TIP3   OH278010   4.352   1.801  16.662 -0.2883 -0.0406 -0.3181
18840TIP3    H178011   4.444   1.787  16.638 -0.2673 -2.3554  0.8340
18840TIP3    H278012   4.304   1.787  16.581  0.2940  0.0963 -0.6949
18841TIP3   OH278013   1.239   1.969   5.594  0.0760  0.3896 -0.4524
18841TIP3    H178014   1.177   1.914   5.545  1.2717 -1.3077 -0.1560
18841TIP3    H278015   1.186   2.014   5.659 -0.8135 -1.3926  0.1141
18842TIP3   OH278016   4.773   5.025   1.420  0.1170 -0.0852  0.0087
18842TIP3    H178017   4.708   4.969   1.378  1.1169 -0.0706 -1.6805
18842TIP3    H278018   4.724   5.102   1.449 -0.5672  0.2599 -1.8781
18843TIP3   OH278019   3.902   6.311   0.182 -0.1930 -0.5306  0.6229
18843TIP3    H178020   3.821   6.324   0.134  0.1606 -0.1604  0.1226
18843TIP3    H278021   3.925   6.398   0.216  0.2244 -0.5421  0.3857
18844TIP3   OH278022   2.688   2.939  13.636 -0.5154 -0.2606 -0.1341
18844TIP3    H178023   2.778   2.973  13.639 -0.6292  0.2426 -1.8261
18844TIP3    H278024   2.649   2.969  13.718 -0.3360  2.9827 -1.0820
18845TIP3   OH278025   4.738   1.887  13.324  0.1087  0.6362  0.7027
18845TIP3    H178026   4.683   1.916  13.251 -0.9959 -1.3068  0.6935
18845TIP3    H278027   4.793   1.818  13.286 -1.4346 -1.3588  1.9620
18846TIP3   OH278028   5.558   2.903   1.538  0.2319 -1.0871 -0.2227
18846TIP3    H178029   5.520   2.988   1.518  1.1921 -0.9499 -1.5944
18846TIP3    H278030   5.621   2.921   1.608 -1.8104 -1.2528  1.7739
18847TIP3   OH278031   3.526   2.635  10.454  0.2593  0.0763  0.0512
18847TIP3    H178032   3.606   2.642  10.403  0.2173  0.1746 -0.0019
18847TIP3    H278033   3.550   2.669  10.541  0.5010 -0.6850  0.2868
18848TIP3   OH278034   0.408   1.294  11.674  0.2298 -0.2090 -0.6256
18848TIP3    H178035   0.334   1.234  11.689 -0.3892  0.7578  0.3293
18848TIP3    H278036   0.429   1.282  11.581 -0.1415 -1.5953 -0.5639
18849TIP3   OH278037   5.249   5.894   1.755  0.3945 -0.1984 -0.3523
18849TIP3    H178038   5.182   5.888   1.824  0.3476 -0.3616 -0.4134
18849TIP3    H278039   5.201   5.879   1.674  0.4831 -0.1826 -0.4070
18850TIP3   OH278040   4.691   3.304   5.952 -0.4742 -0.7264 -1.1430
18850TIP3    H178041   4.599   3.321   5.974 -0.3673 -1.0704 -0.3939
18850TIP3    H278042   4.695   3.210   5.935  0.0875 -1.0997  0.7593
18851TIP3   OH278043   1.131   1.145  12.565 -0.1902  0.0811  0.4184
18851TIP3    H178044   1.055   1.093  12.537 -0.3331  1.3297 -1.7519
18851TIP3    H278045   1.098   1.234  12.573  0.9597  0.6166 -0.4103
18852TIP3   OH278046   2.847   2.232   4.970 -0.0740 -0.1182  0.1128
18852TIP3    H178047   2.822   2.293   4.900  3.1267  0.3506 -0.7756
18852TIP3    H278048   2.819   2.146   4.939 -0.5297  0.3350 -0.7543
18853TIP3   OH278049   3.744   2.912   4.991  0.2280 -0.0332 -0.3827
18853TIP3    H178050   3.778   2.856   5.060  2.2513  0.6223 -0.7734
18853TIP3    H278051   3.782   2.998   5.008  0.3139  0.2784 -1.9635
18854TIP3   OH278052   2.204   3.912   4.849  0.1072 -0.2175  0.0278
18854TIP3    H178053   2.283   3.858   4.854  1.6289  1.9511  0.7136
18854TIP3    H278054   2.232   4.000   4.875 -1.9755  1.2304 -2.1237
18855TIP3   OH278055   2.130   1.722   1.605  0.0818 -0.1007 -0.0052
18855TIP3    H178056   2.222   1.731   1.626 -0.1392  0.3651  0.7842
18855TIP3    H278057   2.128   1.656   1.535  1.0632  0.4561 -0.5780
18856TIP3   OH278058   5.656   0.505  12.620  0.7510  0.2591 -0.5346
18856TIP3    H178059   5.723   0.444  12.650  0.8773  0.7986  0.3005
18856TIP3    H278060   5.587   0.500  12.686  0.5399  0.6553 -0.7198
18857TIP3   OH278061   5.876   1.158  12.317 -0.5165  0.0977  0.2659
18857TIP3    H178062   5.949   1.125  12.370 -0.2941  0.5397  0.2444
18857TIP3    H278063   5.841   1.081  12.273  0.8824  0.0583 -0.8869
18858TIP3   OH278064   3.404   1.803  16.604  0.0097  0.7044  0.1887
18858TIP3    H178065   3.464   1.734  16.577 -1.0520 -0.5428  0.9210
18858TIP3    H278066   3.430   1.824  16.694 -0.5912  0.1806  0.4984
18859TIP3   OH278067   3.296   1.091  10.964 -0.1624 -0.2053  0.6996
18859TIP3    H178068   3.324   1.182  10.980  0.1855  0.2478 -2.0575
18859TIP3    H278069   3.226   1.099  10.899  2.5618 -2.0076 -2.7433
18860TIP3   OH278070   6.642   5.770  15.105 -0.4742 -0.0708 -0.2647
18860TIP3    H178071   6.717   5.719  15.074  0.4679  1.4506 -0.6066
18860TIP3    H278072   6.669   5.804  15.190  0.1512  2.2616 -1.3246
18861TIP3   OH278073   5.436   3.985  14.868 -1.0219 -0.5210 -0.0728
18861TIP3    H178074   5.468   4.073  14.887  1.3251 -1.7377  2.0843
18861TIP3    H278075   5.341   3.997  14.856 -1.0198  2.0810  1.6199
18862TIP3   OH278076   5.082   3.321  11.608 -0.4116  0.1493  0.3879
18862TIP3    H178077   5.158   3.267  11.629 -0.7803  0.2947  2.2774
18862TIP3    H278078   5.117   3.396  11.559  0.5933 -0.0309  0.8252
18863TIP3   OH278079   1.173   3.504  11.391  0.0636 -0.5115 -0.2727
18863TIP3    H178080   1.208   3.477  11.476 -0.5032 -1.5187 -0.3331
18863TIP3    H278081   1.241   3.480  11.329  0.0705 -0.7047 -0.1939
18864TIP3   OH278082   2.918   6.364  15.797 -0.0318 -0.4421  0.0358
18864TIP3    H178083   2.830   6.364  15.836  0.6935 -1.5384  1.8287
18864TIP3    H278084   2.906   6.326  15.710 -1.3239 -0.7132  0.3140
18865TIP3   OH278085   0.399   3.009   6.406 -0.4399 -0.3763 -0.8906
18865TIP3    H178086   0.320   2.971   6.444 -0.5846 -1.1562 -1.9285
18865TIP3    H278087   0.464   3.005   6.476 -0.2970 -3.0424 -1.0923
18866TIP3   OH278088   5.882   3.521   5.117 -0.4869  0.2823  0.0083
18866TIP3    H178089   5.889   3.609   5.156 -0.1555 -0.0186  0.6360
18866TIP3    H278090   5.825   3.534   5.041  2.2738  1.7562 -2.0448
18867TIP3   OH278091   5.121   2.755   6.051  0.4734  1.0128  0.1330
18867TIP3    H178092   5.212   2.757   6.081  0.3877  0.4708  0.4367
18867TIP3    H278093   5.127   2.743   5.957  0.7040 -0.8397  0.3516
18868TIP3   OH278094   6.463   2.498  10.733  0.2705 -0.3318  0.1634
18868TIP3    H178095   6.369   2.480  10.729  0.3348 -0.5814 -0.3578
18868TIP3    H278096   6.497   2.465  10.650  0.5749  1.1644 -0.3517
18869TIP3   OH278097   3.813   1.540  11.044  0.4310  0.3959  0.6020
18869TIP3    H178098   3.844   1.608  10.984  1.2831  2.1021  2.8373
18869TIP3    H278099   3.888   1.483  11.057  0.9152  1.2494  1.6411
18870TIP3   OH278100   5.976   4.133   3.242 -0.4830  0.0427  0.1371
18870TIP3    H178101   6.063   4.172   3.237 -0.2137 -0.6867 -1.7683
18870TIP3    H278102   5.923   4.199   3.286  0.8437  0.8226  0.6334
18871TIP3   OH278103   3.336   2.140   1.119 -0.3111 -0.0253 -0.4300
18871TIP3    H178104   3.329   2.235   1.113 -0.0304 -0.0703 -1.8688
18871TIP3    H278105   3.429   2.124   1.135 -0.2238 -0.0705 -0.9561
18872TIP3   OH278106   3.547   2.085  13.732  0.1175 -0.4884 -0.7658
18872TIP3    H178107   3.484   2.116  13.797 -1.3723 -1.8211 -1.5260
18872TIP3    H278108   3.582   2.165  13.692 -0.9053  0.2771 -0.1586
18873TIP3   OH278109   0.652   2.179   3.366  0.1096  0.3246 -0.1561
18873TIP3    H178110   0.734   2.155   3.324  0.7843  0.0262  1.2807
18873TIP3    H278111   0.585   2.133   3.316  1.0174 -1.2301 -0.0002
18874TIP3   OH278112   0.620   3.405   5.872 -0.6724 -0.4023  0.0379
18874TIP3    H178113   0.533   3.408   5.913 -0.6744  0.2326 -0.0024
18874TIP3    H278114   0.669   3.343   5.926 -1.2091 -0.9230 -0.0563
18875TIP3   OH278115   3.790   4.548  11.843 -0.5392  0.1002  0.6075
18875TIP3    H178116   3.734   4.471  11.859  0.4336 -0.6241  0.5944
18875TIP3    H278117   3.733   4.623  11.862 -1.4049 -0.6241  0.9590
18876TIP3   OH278118   1.470   2.784  10.430  0.7631  0.2900 -0.0213
18876TIP3    H178119   1.564   2.800  10.429  1.0362 -1.1585 -0.9928
18876TIP3    H278120   1.436   2.836  10.357  0.9122  0.2777 -0.1005
18877TIP3   OH278121   2.285   1.551   4.586  0.0053 -0.1723 -0.2118
18877TIP3    H178122   2.368   1.599   4.588 -0.2805  0.3326  0.8568
18877TIP3    H278123   2.219   1.617   4.609 -0.3477 -1.1249  1.8030
18878TIP3   OH278124   4.271   3.364  12.461  0.5393  0.0402 -0.3729
18878TIP3    H178125   4.280   3.268  12.458 -0.3912 -0.0333 -1.0377
18878TIP3    H278126   4.247   3.382  12.552  3.3746 -0.0801  0.4968
18879TIP3   OH278127   6.791   0.062  15.988  0.7997 -0.1522  0.7225
18879TIP3    H178128   6.732  -0.008  15.961  0.9385 -0.0551  0.1556
18879TIP3    H278129   6.761   0.139  15.940 -0.8151  0.7938  3.0332
18880TIP3   OH278130   5.711   6.008  13.468  0.0426  0.4443 -0.9432
18880TIP3    H178131   5.693   5.913  13.471 -0.7009  0.5597 -1.3562
18880TIP3    H278132   5.626   6.047  13.448  0.3923  1.1886 -0.9945
18881TIP3   OH278133   1.040   2.398   1.973  0.0438  0.2512  0.1843
18881TIP3    H178134   1.060   2.321   1.920  0.4200  1.2076 -1.1154
18881TIP3    H278135   0.962   2.436   1.933 -0.2928  0.4191  0.9717
18882TIP3   OH278136   5.672   6.341   1.183 -0.3861 -0.6524  0.7948
18882TIP3    H178137   5.594   6.316   1.233  0.6135  0.2887  2.9391
18882TIP3    H278138   5.745   6.322   1.242  0.9248 -0.1912 -0.6214
18883TIP3   OH278139   3.446   0.533   0.224 -0.1417 -0.3010 -0.4427
18883TIP3    H178140   3.386   0.500   0.291  1.4510 -1.6046  0.3849
18883TIP3    H278141   3.450   0.462   0.159 -0.0991  0.1121 -0.8961
18884TIP3   OH278142   1.239   5.223  15.109  0.4085 -0.0483 -0.0007
18884TIP3    H178143   1.169   5.283  15.134 -1.2476 -2.0546  0.4633
18884TIP3    H278144   1.200   5.136  15.117  2.4891 -1.1841 -1.2971
18885TIP3   OH278145   1.019   6.280  15.361  0.1120  0.3975  0.0395
18885TIP3    H178146   1.095   6.233  15.396 -0.7437  0.0282  1.4853
18885TIP3    H278147   0.980   6.323  15.438 -2.9455 -1.9672 -0.0112
18886TIP3   OH278148   3.089   6.573   4.508  0.3185 -0.5139  0.1741
18886TIP3    H178149   3.160   6.623   4.469 -0.0669  0.9254  1.2330
18886TIP3    H278150   3.089   6.490   4.461  4.0721 -1.4736  1.4884
18887TIP3   OH278151   3.537   2.590  13.144 -0.3636 -0.5172  0.2415
18887TIP3    H178152   3.596   2.624  13.211  0.4263 -1.9777  0.3138
18887TIP3    H278153   3.451   2.627  13.167  0.1615  0.1410  1.2141
18888TIP3   OH278154   5.078   2.970  13.441 -0.0429 -0.1504 -0.3552
18888TIP3    H178155   5.035   3.013  13.516  1.8583 -0.1106  0.7891
18888TIP3    H278156   5.171   2.978  13.460  0.4609 -1.1709 -2.1963
18889TIP3   OH278157   4.047   1.621  13.200  0.6208 -0.0040 -0.0729
18889TIP3    H178158   4.072   1.710  13.177  1.1102  0.4359  1.9108
18889TIP3    H278159   4.130   1.578  13.221  0.2339 -0.3170  0.8667
18890TIP3   OH278160   0.945   3.095   4.886  0.3097 -0.7834  0.5699
18890TIP3    H178161   0.868   3.148   4.865 -0.0993 -0.9059  1.7145
18890TIP3    H278162   0.910   3.019   4.931  1.0701 -1.0536  0.7183
18891TIP3   OH278163   0.423   1.686  13.323  0.6323  0.0997 -0.1346
18891TIP3    H178164   0.402   1.774  13.292  0.0302 -0.5006 -1.4766
18891TIP3    H278165   0.346   1.634  13.303  0.1884 -0.3554  2.4222
18892TIP3   OH278166   1.721   0.279   6.104 -0.5841 -0.6379  0.2219
18892TIP3    H178167   1.655   0.275   6.173 -0.9868  0.6852 -0.0658
18892TIP3    H278168   1.802   0.303   6.149 -1.0614  1.2871  0.1523
18893TIP3   OH278169   5.514   5.738  11.212  0.1017  0.1135 -0.6641
18893TIP3    H178170   5.448   5.797  11.176 -0.4837  0.4601  0.9282
18893TIP3    H278171   5.505   5.658  11.161 -2.2695 -0.2154  0.1710
18894TIP3   OH278172   1.951   5.691  16.073 -0.2345 -0.2029 -0.5136
18894TIP3    H178173   1.908   5.726  16.151 -1.9084 -0.7923 -1.1228
18894TIP3    H278174   2.044   5.686  16.097 -0.0155  3.4680  0.0131
18895TIP3   OH278175   2.554   0.152  12.195 -0.1534  0.5021  0.0130
18895TIP3    H178176   2.532   0.059  12.208 -2.3623  0.8173 -1.0692
18895TIP3    H278177   2.562   0.187  12.284  0.4430 -0.6506  0.4357
18896TIP3   OH278178   4.974   5.348   1.543  0.3739 -0.2905 -0.3555
18896TIP3    H178179   4.890   5.306   1.525 -0.6947 -0.1800  3.4496
18896TIP3    H278180   4.952   5.441   1.553  1.2423 -0.0325 -0.7530
18897TIP3   OH278181   2.330   5.026   5.618 -0.0784  0.2747  0.3501
18897TIP3    H178182   2.242   4.993   5.602  0.9157 -2.7163  0.4765
18897TIP3    H278183   2.374   5.021   5.533  0.3197  0.5830  0.5308
18898TIP3   OH278184   0.297   2.847   0.963  0.3044  0.3792 -0.0075
18898TIP3    H178185   0.327   2.766   0.922 -0.9378  0.2102 -0.6235
18898TIP3    H278186   0.377   2.897   0.979  0.8500  0.4963 -2.7260
18899TIP3   OH278187   0.755   1.502   0.081  0.5369  0.3334  0.0504
18899TIP3    H178188   0.681   1.494   0.021 -0.0095  0.6584  0.6711
18899TIP3    H278189   0.765   1.597   0.095  0.3122  0.2355  0.8993
18900TIP3   OH278190   2.074   4.945  12.120  0.0688  0.0100  0.4640
18900TIP3    H178191   2.045   5.020  12.069  0.9060  0.2245  0.2744
18900TIP3    H278192   2.118   4.983  12.196  2.0666 -0.1914 -0.4998
18901TIP3   OH278193   0.605   0.926   2.469  0.4791 -0.4254  0.8620
18901TIP3    H178194   0.571   0.949   2.382 -0.8428 -1.5693  1.0385
18901TIP3    H278195   0.618   0.831   2.465  3.8047 -0.0960  0.8057
18902TIP3   OH278196   6.851   3.751  13.599 -0.0323 -0.1195 -0.3625
18902TIP3    H178197   6.878   3.699  13.675 -1.0823 -0.4908 -0.2268
18902TIP3    H278198   6.914   3.823  13.597  0.3278 -0.3815  0.5508
18903TIP3   OH278199   1.775   5.837   1.327  0.0787 -0.3858 -0.2239
18903TIP3    H178200   1.802   5.747   1.344  0.2062 -0.5321 -1.1540
18903TIP3    H278201   1.823   5.889   1.392  0.6230 -0.8989 -0.2088
18904TIP3   OH278202   2.131   1.156   1.541  0.1489 -0.0038 -0.0032
18904TIP3    H178203   2.114   1.069   1.506  0.2665 -1.2812  2.8170
18904TIP3    H278204   2.216   1.148   1.584 -0.4100  1.0983  1.3957
18905TIP3   OH278205   2.881   0.348   0.264 -0.2250  0.6123 -0.7689
18905TIP3    H178206   2.858   0.387   0.348  2.2351 -1.2215  0.8939
18905TIP3    H278207   2.901   0.422   0.207  0.5954  1.8756  1.0949
18906TIP3   OH278208   5.229   3.993  10.779 -0.3589  0.6391 -0.7105
18906TIP3    H178209   5.174   3.988  10.701 -0.2471 -0.3471 -0.7359
18906TIP3    H278210   5.233   3.903  10.811  1.7544  0.5586 -1.0626
18907TIP3   OH278211   0.391   3.151   5.060 -0.5660  0.4459  0.1109
18907TIP3    H178212   0.430   3.169   4.975  2.4903 -1.6394  0.9045
18907TIP3    H278213   0.337   3.073   5.046  0.0234  0.0381  0.0450
18908TIP3   OH278214   5.963   1.104   1.819  0.1583  0.9897 -0.3247
18908TIP3    H178215   5.947   1.085   1.911  3.1627  0.6132  0.2198
18908TIP3    H278216   5.939   1.024   1.773 -0.9705  1.0428  0.1355
18909TIP3   OH278217   4.591   4.742  14.590 -0.1141 -1.1460 -0.2960
18909TIP3    H178218   4.657   4.786  14.644  1.5148 -2.5699 -1.0378
18909TIP3    H278219   4.526   4.810  14.571  1.1478  0.3126  0.4364
18910TIP3   OH278220   2.759   4.415  13.877 -0.3578 -0.2620 -0.3014
18910TIP3    H178221   2.811   4.335  13.882 -1.2721 -1.0239 -2.3077
18910TIP3    H278222   2.802   4.468  13.810  1.7569  2.2034  2.6598
18911TIP3   OH278223   3.487   0.672  11.187  0.1343 -0.5451 -0.2386
18911TIP3    H178224   3.463   0.744  11.128  0.2843 -0.1631  0.1649
18911TIP3    H278225   3.447   0.595  11.147 -2.0639  0.0965  0.5413
18912TIP3   OH278226   4.957   5.416  15.223 -0.3257 -0.6512 -0.2548
18912TIP3    H178227   5.023   5.347  15.212 -0.3528 -0.6894 -0.1751
18912TIP3    H278228   4.873   5.370  15.217 -0.3458 -0.8423  1.1784
18913TIP3   OH278229   2.139   4.353  11.620 -0.3910  0.7266  0.0794
18913TIP3    H178230   2.176   4.441  11.626 -0.8687  0.9456 -0.1046
18913TIP3    H278231   2.212   4.297  11.596 -0.5521  1.4590 -2.3436
18914TIP3   OH278232   1.200   2.321  14.011 -0.4603  0.1407 -0.4739
18914TIP3    H178233   1.280   2.279  14.043 -1.2793 -1.9505 -0.9946
18914TIP3    H278234   1.155   2.351  14.090  0.4277  0.5732 -0.1249
18915TIP3   OH278235   3.871   4.514   3.857 -0.1563 -0.6707  0.6296
18915TIP3    H178236   3.810   4.554   3.796  2.1953  0.9424 -0.8601
18915TIP3    H278237   3.936   4.472   3.801  2.2782  1.1600  1.8684
18916TIP3   OH278238   6.680   0.403   4.689  0.0824 -0.5973 -0.0371
18916TIP3    H178239   6.658   0.444   4.772 -1.1591 -2.8923  0.8636
18916TIP3    H278240   6.771   0.374   4.700  1.2505  2.3133 -0.9641
18917TIP3   OH278241   0.976   5.358  15.553  0.0874  0.1749 -0.1990
18917TIP3    H178242   1.031   5.371  15.630 -1.0458  0.6658  0.5682
18917TIP3    H278243   1.006   5.424  15.490  1.1714 -0.3809 -0.2672
18918TIP3   OH278244   2.241   4.734  15.286 -0.0681 -0.3063  0.5786
18918TIP3    H178245   2.222   4.652  15.240  0.2122  0.5209 -1.0913
18918TIP3    H278246   2.261   4.796  15.216 -0.8403  1.3450  1.7780
18919TIP3   OH278247   2.080   2.029  12.576 -0.1899 -0.3070  0.6277
18919TIP3    H178248   2.004   1.970  12.574 -0.2071 -0.2900 -0.9529
18919TIP3    H278249   2.046   2.111  12.610 -1.0691 -0.0922 -0.6895
18920TIP3   OH278250   2.296   3.642  16.601  0.3024 -0.5763  0.3091
18920TIP3    H178251   2.209   3.682  16.601 -0.6813 -2.6264  0.3006
18920TIP3    H278252   2.329   3.657  16.513 -0.4330 -0.5963  0.0213
18921TIP3   OH278253   0.567   6.027   3.531 -0.1564  0.0150  0.2812
18921TIP3    H178254   0.623   6.087   3.481 -0.9940  0.5538 -0.0227
18921TIP3    H278255   0.550   6.073   3.613  0.5564 -0.5292  0.7521
18922TIP3   OH278256   1.921   0.853  15.209 -0.2736 -0.2424 -0.1310
18922TIP3    H178257   1.997   0.846  15.267 -1.5830 -2.2697  1.5378
18922TIP3    H278258   1.941   0.796  15.135 -0.5976 -1.7601  0.9076
18923TIP3   OH278259   3.784   6.392  11.889  0.7991 -0.1044  0.1743
18923TIP3    H178260   3.695   6.367  11.864  1.5123 -1.0097 -1.5713
18923TIP3    H278261   3.789   6.485  11.869  0.3591 -0.1305 -0.0713
18924TIP3   OH278262   4.855   6.509   0.710 -0.1039 -0.4211  0.3333
18924TIP3    H178263   4.803   6.571   0.659  1.1664 -0.4828 -1.0854
18924TIP3    H278264   4.797   6.433   0.719 -0.2244 -0.5833 -1.4128
18925TIP3   OH278265   4.564   6.738   2.258  0.8824 -0.8345  0.1962
18925TIP3    H178266   4.613   6.755   2.338 -0.6765 -0.3814  1.0777
18925TIP3    H278267   4.477   6.774   2.274 -0.1277 -2.6315 -0.8837
18926TIP3   OH278268   5.028   2.947   1.771 -0.4158 -0.3426  0.2990
18926TIP3    H178269   5.092   2.952   1.700 -0.2331 -0.8551  0.4258
18926TIP3    H278270   4.979   3.030   1.765  0.0025 -0.1162 -0.0343
18927TIP3   OH278271   5.108   6.039  15.677  0.1230 -0.2652  0.5039
18927TIP3    H178272   5.200   6.019  15.661  0.5177  1.7044 -0.0647
18927TIP3    H278273   5.066   5.954  15.689  1.3439 -1.5537 -2.9404
18928TIP3   OH278274   2.958   4.878   4.404 -0.4843  0.7332  0.3923
18928TIP3    H178275   3.048   4.855   4.382 -0.3068 -0.5167  2.2020
18928TIP3    H278276   2.959   4.972   4.419 -0.1302  1.2407 -2.3301
18929TIP3   OH278277   5.030   5.301  15.683 -0.1944 -0.9111  0.2538
18929TIP3    H178278   4.936   5.301  15.665 -0.7857 -0.9805  2.9347
18929TIP3    H278279   5.056   5.393  15.682 -0.4202 -0.8513  0.0615
18930TIP3   OH278280   4.009   0.583  11.287  0.3880 -0.5344 -0.2214
18930TIP3    H178281   4.076   0.645  11.317 -0.5353  0.3834 -0.0254
18930TIP3    H278282   3.932   0.603  11.340  0.1997 -2.1653  0.1605
18931TIP3   OH278283   1.701   4.462  15.210 -0.2396 -0.7840  0.0978
18931TIP3    H178284   1.680   4.384  15.261  1.0037 -0.8612  0.5292
18931TIP3    H278285   1.756   4.429  15.138 -0.1335 -0.3737 -0.0114
18932TIP3   OH278286   3.386   2.188  11.290  0.2238 -0.1305 -0.2921
18932TIP3    H178287   3.389   2.172  11.195 -0.6476 -0.4186 -0.2833
18932TIP3    H278288   3.317   2.253  11.301 -0.1803 -0.6244  0.2002
18933TIP3   OH278289   3.888   5.188   3.863 -0.0714  0.3018 -0.6647
18933TIP3    H178290   3.967   5.206   3.812  0.7194 -0.5611  0.2282
18933TIP3    H278291   3.914   5.200   3.954 -0.5239 -1.5343 -0.2596
18934TIP3   OH278292   5.239   6.243  12.424  0.0444 -0.0826  0.8181
18934TIP3    H178293   5.212   6.317  12.369  0.6617 -0.3297  0.1536
18934TIP3    H278294   5.160   6.216  12.469 -0.4320  0.2920  0.2249
18935TIP3   OH278295   1.426   1.944  14.677  0.1930 -0.5576 -0.5241
18935TIP3    H178296   1.425   1.935  14.582  0.0345 -1.7213 -0.4202
18935TIP3    H278297   1.340   1.981  14.698  1.2594  2.6011 -1.0409
18936TIP3   OH278298   1.209   2.592  16.878 -0.0673  0.4657  0.5161
18936TIP3    H178299   1.250   2.534  16.814  1.2116  0.6372  1.1462
18936TIP3    H278300   1.281   2.643  16.914 -0.2388 -1.4253  4.0280
18937TIP3   OH278301   3.062   3.586   0.332 -0.1681 -0.5324  0.1546
18937TIP3    H178302   2.997   3.647   0.368 -0.5349  0.3376 -1.8255
18937TIP3    H278303   3.011   3.532   0.271  0.8460 -0.1948 -1.0226
18938TIP3   OH278304   1.432   5.137   1.222  0.0745  0.0179 -0.0202
18938TIP3    H178305   1.392   5.160   1.138  2.5146 -0.6451 -1.4587
18938TIP3    H278306   1.379   5.183   1.287 -0.3244  2.8086 -2.1054
18939TIP3   OH278307   0.119   1.975   0.538 -0.2059  0.4194  0.2167
18939TIP3    H178308   0.099   2.069   0.533 -0.2803  0.5245  1.8701
18939TIP3    H278309   0.077   1.946   0.619 -0.7062 -1.1981 -0.5819
18940TIP3   OH278310   1.734   2.113  15.334  0.3891 -0.4587 -0.1927
18940TIP3    H178311   1.778   2.165  15.267  0.5397 -1.5352 -0.9693
18940TIP3    H278312   1.775   2.027  15.328 -0.7480 -1.0436  0.1398
18941TIP3   OH278313   4.903   3.935   6.414 -0.5940  0.3599 -0.0591
18941TIP3    H178314   4.877   3.967   6.500 -0.9865  1.0035 -0.4083
18941TIP3    H278315   4.939   4.012   6.370  0.0227 -0.0636 -0.3156
18942TIP3   OH278316   2.491   2.925  14.222 -0.6398  0.1144 -0.1794
18942TIP3    H178317   2.578   2.892  14.201 -1.3084 -1.2429 -1.0133
18942TIP3    H278318   2.458   2.865  14.289 -1.0887  0.3455 -0.1891
18943TIP3   OH278319   3.594   6.034  11.987 -0.1440  0.1016  0.2212
18943TIP3    H178320   3.569   5.979  12.061  1.2710 -0.4040  0.3483
18943TIP3    H278321   3.667   6.087  12.019 -0.0301  0.4428 -0.5689
18944TIP3   OH278322   1.917   6.616   2.501  0.5278 -0.2267  0.4067
18944TIP3    H178323   1.880   6.666   2.429  0.0132  0.6273  1.2303
18944TIP3    H278324   1.981   6.558   2.460 -0.1611 -0.1695 -0.7862
18945TIP3   OH278325   5.417   3.958  16.542  0.0748  0.5187  0.0389
18945TIP3    H178326   5.499   3.981  16.500 -0.1188  1.9978  0.3928
18945TIP3    H278327   5.417   3.863  16.545  0.9592  0.4354 -1.5451
18946TIP3   OH278328   0.290   0.190  13.040 -0.3724  0.5834 -0.1613
18946TIP3    H178329   0.293   0.170  12.946 -1.1615  1.5889 -0.4150
18946TIP3    H278330   0.280   0.104  13.082  1.6421 -0.0677 -0.8599
18947TIP3   OH278331   2.976   4.196  15.066 -0.0834  0.1696  0.2135
18947TIP3    H178332   2.965   4.255  15.141  1.1557  0.1916  0.3987
18947TIP3    H278333   3.016   4.251  14.998  1.1213 -0.4486  0.3998
18948TIP3   OH278334   4.624   3.790  10.794 -0.5247 -0.0653 -0.3075
18948TIP3    H178335   4.711   3.824  10.779 -0.4502 -0.0601  0.1216
18948TIP3    H278336   4.627   3.701  10.759 -0.5307  0.1430 -0.8450
18949TIP3   OH278337   4.469   2.884  14.978  0.4935  0.3059  0.0658
18949TIP3    H178338   4.493   2.917  14.891  1.7448 -3.5698 -1.2996
18949TIP3    H278339   4.534   2.922  15.037  0.2690  2.1731 -0.8019
18950TIP3   OH278340   6.415   4.179  16.569  0.2138  0.0930 -0.4551
18950TIP3    H178341   6.502   4.142  16.555  0.3932  0.6181 -0.7684
18950TIP3    H278342   6.391   4.217  16.484 -1.1303 -1.6820 -0.9443
18951TIP3   OH278343   1.253   2.497   2.281 -0.0659  0.7081  0.3530
18951TIP3    H178344   1.338   2.492   2.326  0.0404 -1.0376  0.0310
18951TIP3    H278345   1.221   2.407   2.281  0.0694  0.5250 -3.3150
18952TIP3   OH278346   2.816   1.012  16.336  0.2789 -0.1728  0.2061
18952TIP3    H178347   2.813   1.018  16.432 -0.2226  1.1661  0.1259
18952TIP3    H278348   2.902   0.973  16.318 -0.1283 -1.6172  1.2270
18953TIP3   OH278349   4.540   6.218   5.031 -0.2783 -0.0806 -0.4052
18953TIP3    H178350   4.498   6.138   5.063 -0.9780  0.0696 -0.9225
18953TIP3    H278351   4.634   6.197   5.030 -0.4466 -0.8662 -0.4531
18954TIP3   OH278352   0.014   5.066   2.507  0.0596 -0.4600 -0.2216
18954TIP3    H178353  -0.045   5.000   2.544  0.7495 -0.9231  0.0523
18954TIP3    H278354   0.041   5.119   2.582  0.3481 -0.5254 -0.2805
18955TIP3   OH278355   3.339   1.504   5.674 -0.5136 -0.0812  0.1205
18955TIP3    H178356   3.254   1.548   5.667 -0.7247 -0.5560 -0.3074
18955TIP3    H278357   3.339   1.467   5.762  0.5983  2.6726  1.4102
18956TIP3   OH278358   3.378   0.224  12.643 -0.1884 -0.1191  0.6800
18956TIP3    H178359   3.386   0.164  12.717 -0.4646  0.6570  1.3557
18956TIP3    H278360   3.284   0.223  12.622 -0.0739 -0.5338  0.1647
18957TIP3   OH278361   5.750   4.154  11.704  0.0928  0.2772 -0.1472
18957TIP3    H178362   5.664   4.147  11.661 -0.0798 -0.9951  0.3656
18957TIP3    H278363   5.805   4.090  11.659  0.3407  0.0239  0.5043
18958TIP3   OH278364   3.600   0.096   2.301  0.1445 -0.2030  0.1358
18958TIP3    H178365   3.679   0.121   2.254  0.3574 -1.0134  0.0577
18958TIP3    H278366   3.579   0.173   2.355  0.6944  0.1988 -0.2176
18959TIP3   OH278367   5.220   1.698   4.454 -0.0762  0.2649 -0.3138
18959TIP3    H178368   5.306   1.657   4.446 -0.6084 -0.8538 -0.5476
18959TIP3    H278369   5.236   1.780   4.500  1.1067  0.0422 -0.3115
18960TIP3   OH278370   5.146   2.638  10.892 -0.2986 -0.1968  0.2873
18960TIP3    H178371   5.237   2.664  10.909 -0.4079  0.3284  0.0840
18960TIP3    H278372   5.149   2.542  10.890  0.1118 -0.2090  1.0450
18961TIP3   OH278373   1.331   0.013   0.225 -0.5667 -0.1068  0.2678
18961TIP3    H178374   1.366   0.031   0.312  1.3216 -0.6532 -0.3085
18961TIP3    H278375   1.308   0.099   0.189 -0.7146  0.1834  1.0490
18962TIP3   OH278376   4.325   5.981   4.583  0.0977  0.3217  0.3964
18962TIP3    H178377   4.359   5.963   4.671  0.2618  1.9249  0.6823
18962TIP3    H278378   4.239   5.940   4.582  0.3321 -0.2117  1.0997
18963TIP3   OH278379   5.623   5.541   3.385  0.0567 -0.3547  0.0715
18963TIP3    H178380   5.608   5.627   3.423  0.3067 -0.6181  0.7817
18963TIP3    H278381   5.717   5.538   3.366  0.0541 -0.4826  0.0732
18964TIP3   OH278382   0.212   5.925   2.939 -0.1889  0.1055 -0.3016
18964TIP3    H178383   0.241   5.904   3.027 -1.4960 -0.2712  0.0602
18964TIP3    H278384   0.125   5.964   2.951 -0.5399 -0.2835 -1.4460
18965TIP3   OH278385   1.941   1.269   0.898 -0.1111  0.2159 -0.2956
18965TIP3    H178386   1.865   1.276   0.841  0.3095 -1.9403 -1.2259
18965TIP3    H278387   2.005   1.219   0.847  2.2986  2.6500  0.1287
18966TIP3   OH278388   2.569   3.826  11.123  0.2627 -0.2526  0.0530
18966TIP3    H178389   2.512   3.902  11.132 -0.1284 -0.4497 -0.7277
18966TIP3    H278390   2.593   3.824  11.030  0.8311 -0.6830  0.2000
18967TIP3   OH278391   3.905   6.649  15.190 -0.5422 -0.0366 -0.4199
18967TIP3    H178392   3.934   6.735  15.160  0.6709 -0.4911 -0.6320
18967TIP3    H278393   3.908   6.655  15.286 -2.7235  0.8642 -0.3707
18968TIP3   OH278394   3.328   4.405   6.507  0.1337  0.8133 -0.2311
18968TIP3    H178395   3.291   4.478   6.456 -1.6709  0.0225 -0.1225
18968TIP3    H278396   3.293   4.418   6.595  0.0468 -0.0184 -0.1428
18969TIP3   OH278397   5.100   3.235  16.390  0.7085  0.3035 -0.7132
18969TIP3    H178398   5.189   3.201  16.383  0.8884 -0.0095  1.8083
18969TIP3    H278399   5.070   3.204  16.476 -1.5878  0.9777 -1.1941
18970TIP3   OH278400   0.325   2.976  13.826  0.1618 -0.1978  0.2178
18970TIP3    H178401   0.374   3.058  13.821 -0.4883  0.2170  0.5880
18970TIP3    H278402   0.387   2.914  13.866  0.7865  0.0013 -0.4251
18971TIP3   OH278403   5.900   5.230   5.976 -0.2240  0.4195  0.1142
18971TIP3    H178404   5.896   5.183   6.059  1.4929  1.5394  0.8863
18971TIP3    H278405   5.859   5.315   5.994 -2.3840 -0.3080 -0.9963
18972TIP3   OH278406   4.568   3.670  12.609 -0.2412  0.5164  0.2617
18972TIP3    H178407   4.627   3.734  12.650  1.0717  1.1492 -2.3720
18972TIP3    H278408   4.538   3.615  12.681  2.5367  1.0146  1.9451
18973TIP3   OH278409   4.977   3.795   2.090 -0.3618 -0.4514 -0.1791
18973TIP3    H178410   4.985   3.764   2.180  1.0438 -0.8737 -0.4297
18973TIP3    H278411   4.885   3.820   2.082 -0.3024  0.5499  1.6755
18974TIP3   OH278412   3.216   2.466  11.584 -0.3546 -0.3992 -0.4454
18974TIP3    H178413   3.278   2.438  11.651 -0.4052 -2.0413 -1.0298
18974TIP3    H278414   3.211   2.561  11.593  1.5545 -0.3222  0.2005
18975TIP3   OH278415   4.568   3.025  13.864 -0.4062  0.0441  0.3817
18975TIP3    H178416   4.637   2.975  13.908 -0.1481 -0.2051 -0.2873
18975TIP3    H278417   4.599   3.033  13.773  1.1884  4.1645  1.0491
18976TIP3   OH278418   5.457   3.135   0.215  0.0097  0.1824  0.1624
18976TIP3    H178419   5.441   3.043   0.236  0.2153  0.4705  1.7481
18976TIP3    H278420   5.552   3.143   0.212  0.0783  0.6856  2.0019
18977TIP3   OH278421   5.507   0.453  13.099 -0.6563 -0.2362 -0.0683
18977TIP3    H178422   5.432   0.512  13.102  0.2315  0.9314 -0.0105
18977TIP3    H278423   5.539   0.451  13.190 -1.0849 -1.3728  0.0738
18978TIP3   OH278424   0.285   5.381   0.079 -0.2371  0.2745  0.3663
18978TIP3    H178425   0.321   5.337   0.001 -0.1569 -1.1520  1.1605
18978TIP3    H278426   0.362   5.410   0.128 -0.2901  1.2711 -0.1348
18979TIP3   OH278427   0.726   5.049  17.045 -0.4223 -0.1148  0.2854
18979TIP3    H178428   0.814   5.044  17.081 -0.2677  1.1223  0.1538
18979TIP3    H278429   0.721   4.976  16.983  0.4879 -0.2393  0.3428
18980TIP3   OH278430   2.199   1.002   2.984  0.4865 -0.5334  0.4297
18980TIP3    H178431   2.231   0.916   2.958  0.8014  0.0253 -1.1545
18980TIP3    H278432   2.196   1.052   2.902  1.2824  1.2646  1.4361
18981TIP3   OH278433   4.257   6.078  16.413  0.8716  0.4646 -0.4915
18981TIP3    H178434   4.295   6.092  16.326  0.0988  1.0326 -0.7485
18981TIP3    H278435   4.219   5.991  16.410  0.9857  0.4224 -0.6753
18982TIP3   OH278436   1.196   2.665  11.135 -0.2316  0.6341  0.0994
18982TIP3    H178437   1.126   2.725  11.161  0.1559  0.3860  1.8675
18982TIP3    H278438   1.274   2.698  11.180 -0.2655 -1.8543  2.2008
18983TIP3   OH278439   2.051   4.543  16.276  0.2685 -0.5850  0.3945
18983TIP3    H178440   2.000   4.613  16.316 -0.0864 -0.9509  0.5872
18983TIP3    H278441   2.054   4.474  16.342  0.2503 -0.9238  0.0483
18984TIP3   OH278442   6.178   2.721  13.683 -0.2059  0.2267 -0.1674
18984TIP3    H178443   6.200   2.718  13.776  2.2984 -0.9953 -0.7302
18984TIP3    H278444   6.213   2.804  13.652 -1.7872  1.0367  0.0780
18985TIP3   OH278445   4.673   1.586   2.874 -0.0594  0.3913  0.2752
18985TIP3    H178446   4.612   1.542   2.932 -0.5106  1.2336  0.4475
18985TIP3    H278447   4.740   1.520   2.855  0.5197  0.3332  2.3574
18986TIP3   OH278448   1.055   0.157  16.996 -0.2414 -0.4464 -0.5845
18986TIP3    H178449   0.999   0.081  17.009 -0.1189 -0.4148  0.1429
18986TIP3    H278450   1.137   0.135  17.039 -0.1000 -0.0216 -0.6254
18987TIP3   OH278451   5.252   1.097   2.454 -0.2581 -0.4450 -0.0335
18987TIP3    H178452   5.275   1.008   2.428 -1.2874 -0.2705 -1.6617
18987TIP3    H278453   5.160   1.092   2.480 -0.2435  0.0925  0.1425
18988TIP3   OH278454   2.157   5.804   0.386  0.0687  0.2480  0.2877
18988TIP3    H178455   2.155   5.748   0.309 -1.3076 -2.1942  1.9848
18988TIP3    H278456   2.226   5.768   0.441 -0.1168  0.8766  0.9590
18989TIP3   OH278457   5.091   6.524   1.618 -0.1970  0.1909 -0.0013
18989TIP3    H178458   5.147   6.503   1.693  0.0927  0.6108 -0.0945
18989TIP3    H278459   5.004   6.492   1.643 -0.1266  0.4280  0.5599
18990TIP3   OH278460   6.574   6.631   4.021  0.0790  0.2389 -0.5252
18990TIP3    H178461   6.584   6.540   4.047  0.1258 -0.6519 -3.3376
18990TIP3    H278462   6.663   6.658   3.996  0.4291  1.7154  1.9629
18991TIP3   OH278463   5.661   3.554   4.242 -0.1738 -0.2581 -0.6630
18991TIP3    H178464   5.633   3.619   4.178 -0.7813  1.3443  1.1420
18991TIP3    H278465   5.750   3.579   4.265 -0.7063  0.5276  0.6707
18992TIP3   OH278466   5.103   3.298   2.152 -0.1678  0.4735  0.0704
18992TIP3    H178467   5.064   3.211   2.162 -0.0943  0.0518 -2.6809
18992TIP3    H278468   5.030   3.358   2.159 -0.4482  0.1004  0.4377
18993TIP3   OH278469   3.050   3.670   0.776  0.4699 -0.1093 -1.0163
18993TIP3    H178470   3.122   3.731   0.759  0.2620 -0.3310 -2.9537
18993TIP3    H278471   3.078   3.588   0.734 -1.1171 -0.0322 -2.3170
18994TIP3   OH278472   4.217   0.379  13.057 -0.0835 -0.4577 -0.3376
18994TIP3    H178473   4.262   0.329  12.989  1.3594 -0.6778  0.7470
18994TIP3    H278474   4.255   0.467  13.052 -0.0178 -0.4559  0.1471
18995TIP3   OH278475   1.632   3.384   2.951 -0.2837 -0.1932  0.5028
18995TIP3    H178476   1.652   3.437   3.028 -0.7767  0.9097 -0.0996
18995TIP3    H278477   1.550   3.340   2.973 -0.5750  0.3413  0.5094
18996TIP3   OH278478   0.849   3.909  14.651 -0.2965 -0.0766 -0.2340
18996TIP3    H178479   0.938   3.937  14.630 -0.3544 -0.1590 -0.6069
18996TIP3    H278480   0.820   3.969  14.718 -0.6235  1.1173 -1.4046
18997TIP3   OH278481   2.468   5.246  16.652 -0.3083  0.2535  0.0714
18997TIP3    H178482   2.398   5.249  16.585 -2.2548  1.9894  2.0305
18997TIP3    H278483   2.502   5.336  16.654 -1.9455  0.9245  2.9296
18998TIP3   OH278484   6.315   3.636  15.376 -0.4622 -0.4238  0.3709
18998TIP3    H178485   6.330   3.579  15.301 -0.0818  0.0300  0.0876
18998TIP3    H278486   6.359   3.592  15.449 -0.7703 -0.8305  0.3149
18999TIP3   OH278487   3.183   4.858   4.069 -0.2978 -0.2355 -0.4619
18999TIP3    H178488   3.227   4.938   4.039  0.4027 -0.8461 -1.1169
18999TIP3    H278489   3.092   4.884   4.083 -0.2980  0.4467 -1.6244
19000TIP3   OH278490   4.741   6.662  16.093  0.7182  0.1575 -0.2941
19000TIP3    H178491   4.678   6.707  16.149  0.2727  0.2311 -0.8524
19000TIP3    H278492   4.798   6.731  16.060  0.3545  0.2489 -0.7364
19001TIP3   OH278493   5.562   6.091  11.374  0.7732 -0.1077  0.1483
19001TIP3    H178494   5.642   6.040  11.388  0.2295 -1.0163  0.0301
19001TIP3    H278495   5.556   6.101  11.279  1.2278  0.7587  0.2054
19002TIP3   OH278496   3.054   6.375  16.041  0.3540 -0.2668  0.2232
19002TIP3    H178497   3.009   6.362  15.957  1.3808  0.5505 -0.4798
19002TIP3    H278498   2.988   6.415  16.097  0.3618  1.6527 -1.0401
19003TIP3   OH278499   5.564   5.443   6.034 -0.0802 -0.1901  0.7374
19003TIP3    H178500   5.657   5.464   6.036 -0.3921  1.3250  0.3799
19003TIP3    H278501   5.560   5.360   5.987  1.2574 -1.4852  2.7432
19004TIP3   OH278502   1.775   6.667   4.064  0.6108  0.1822 -0.0749
19004TIP3    H178503   1.823   6.673   3.981 -0.4894  0.0041 -0.7536
19004TIP3    H278504   1.730   6.582   4.059  0.3343  0.2856  0.5960
19005TIP3   OH278505   1.515   2.213  12.613 -0.8531 -0.2676  0.4353
19005TIP3    H178506   1.555   2.300  12.606 -0.5070 -0.1931  2.6839
19005TIP3    H278507   1.496   2.203  12.706  1.5074 -3.6345  0.7112
19006TIP3   OH278508   1.128   0.411  17.017 -0.5705  0.2232 -0.1180
19006TIP3    H178509   1.069   0.335  17.019 -0.3862  0.0808 -0.0177
19006TIP3    H278510   1.190   0.392  16.946  0.7232 -0.6768  1.1950
19007TIP3   OH278511   1.731   1.923   4.016 -0.3117  0.2116 -0.4147
19007TIP3    H178512   1.681   1.961   3.944 -2.2007  0.6344  1.0356
19007TIP3    H278513   1.667   1.872   4.066  1.1035 -0.7226  0.5255
19008TIP3   OH278514   6.514   2.385  14.649 -0.0032  0.4441  0.3541
19008TIP3    H178515   6.512   2.448  14.722  0.6009 -0.6784  1.3667
19008TIP3    H278516   6.534   2.439  14.572 -0.2811  1.6009  1.0561
19009TIP3   OH278517   6.132   4.636   4.595  0.5695  0.0581 -0.3410
19009TIP3    H178518   6.173   4.655   4.679  0.1870  0.1150 -0.1640
19009TIP3    H278519   6.151   4.712   4.540  1.9503 -0.5501 -0.7426
19010TIP3   OH278520   6.822   1.477  11.549  0.5556  0.4291  0.0629
19010TIP3    H178521   6.857   1.389  11.560 -0.5212  0.0647  0.6961
19010TIP3    H278522   6.892   1.535  11.579  2.0670 -0.0708 -2.2061
19011TIP3   OH278523   5.023   4.778  13.346 -0.0513 -0.0617 -0.2927
19011TIP3    H178524   5.079   4.807  13.274 -0.1249  1.5152  0.2327
19011TIP3    H278525   4.938   4.762  13.305  0.3231 -0.7705 -0.8084
19012TIP3   OH278526   1.924   0.977   4.428 -0.2390  0.4195 -0.0166
19012TIP3    H178527   1.876   1.060   4.425 -0.5331  0.2199 -1.8753
19012TIP3    H278528   1.933   0.951   4.337 -1.0327 -2.0962  0.5461
19013TIP3   OH278529   2.526   1.048  10.422  0.3024 -0.1615  0.4987
19013TIP3    H178530   2.527   1.125  10.365 -0.1746  0.5566  1.4416
19013TIP3    H278531   2.433   1.025  10.430  0.4577 -1.0673 -0.0548
19014TIP3   OH278532   4.180   3.940  16.915  0.4566  0.5264 -0.0841
19014TIP3    H178533   4.147   3.936  16.825  0.8829 -1.8654 -0.2066
19014TIP3    H278534   4.129   4.009  16.956 -2.2694 -0.6461 -1.2299
19015TIP3   OH278535   5.679   5.016  16.004  0.7592 -0.1518 -0.2258
19015TIP3    H178536   5.586   5.004  15.983  1.0928 -1.8831 -0.9649
19015TIP3    H278537   5.680   5.041  16.096 -0.4095 -1.3234  0.1411
19016TIP3   OH278538   4.048   3.058  11.186 -0.9657 -0.8645  0.0128
19016TIP3    H178539   3.972   3.074  11.131  0.5558 -1.3743 -2.4138
19016TIP3    H278540   4.102   3.137  11.176  0.3067 -1.8151 -1.0385
19017TIP3   OH278541   5.417   2.120  16.210  0.5730 -0.3942 -0.3195
19017TIP3    H178542   5.391   2.065  16.284  0.8565  1.1464  0.9799
19017TIP3    H278543   5.512   2.124  16.215  0.5857 -0.2011 -0.6937
19018TIP3   OH278544   1.325   1.075  11.079  0.0175  0.5577 -0.2147
19018TIP3    H178545   1.258   1.142  11.068  0.3890  0.8251 -0.9112
19018TIP3    H278546   1.403   1.123  11.107  0.6910  0.6285 -2.1098
19019TIP3   OH278547   2.121   1.934  16.857 -0.1629  0.6424 -0.2804
19019TIP3    H178548   2.073   1.986  16.792  0.9808  1.1955 -0.6976
19019TIP3    H278549   2.053   1.879  16.897 -1.4179  2.3856  0.1370
19020TIP3   OH278550   1.045   6.010  14.123 -0.0503  0.1890  0.2270
19020TIP3    H178551   1.065   5.954  14.048  0.1732 -1.1162  1.2291
19020TIP3    H278552   0.953   6.034  14.112  0.4999  1.7723 -1.5511
19021TIP3   OH278553   1.629   1.775  12.990  0.6444 -0.1048 -0.3188
19021TIP3    H178554   1.661   1.862  12.963  0.6315 -0.1331 -0.4221
19021TIP3    H278555   1.534   1.784  12.992  0.6848  0.6152  2.0254
19022TIP3   OH278556   0.801   2.781  13.296  0.4442  0.1358 -0.4788
19022TIP3    H178557   0.786   2.700  13.249 -2.7496  1.2624 -1.6610
19022TIP3    H278558   0.835   2.842  13.231 -0.6115  0.6983 -0.5411
19023TIP3   OH278559   1.668   1.056   3.337  0.2462  0.5363 -0.1262
19023TIP3    H178560   1.751   1.025   3.373 -0.5280 -0.2558  1.0055
19023TIP3    H278561   1.674   1.035   3.244  1.1564  0.1437  0.0060
19024TIP3   OH278562   5.132   0.985  12.107 -0.3077  0.3811  0.5235
19024TIP3    H178563   5.096   0.901  12.137 -0.2979 -0.0015 -0.5179
19024TIP3    H278564   5.216   0.964  12.069 -0.3210  0.8618  0.2153
19025TIP3   OH278565   1.327   6.356   5.216 -0.0386 -0.7549  0.2308
19025TIP3    H178566   1.340   6.449   5.199  2.1382 -1.4113 -2.4345
19025TIP3    H278567   1.234   6.341   5.198 -0.1903  0.7339 -0.3078
19026TIP3   OH278568   2.508   6.333   3.044 -0.8447 -0.5867  0.3646
19026TIP3    H178569   2.428   6.339   2.991 -0.3427 -0.5451 -0.4045
19026TIP3    H278570   2.488   6.384   3.123 -0.9770  0.8940 -0.5865
19027TIP3   OH278571   1.140   1.896   1.315  0.2917  0.5394 -0.1338
19027TIP3    H178572   1.097   1.917   1.233 -1.5501 -2.1303  0.0306
19027TIP3    H278573   1.200   1.825   1.293  1.7627  1.5512  0.4069
19028TIP3   OH278574   0.427   2.528   3.325  0.3803  0.3565 -0.1111
19028TIP3    H178575   0.350   2.584   3.331 -0.1377 -0.2108 -1.1633
19028TIP3    H278576   0.394   2.440   3.347  0.7242  0.1134 -0.5471
19029TIP3   OH278577   1.093   0.003   3.488 -0.0292 -0.7598  0.4426
19029TIP3    H178578   1.000  -0.020   3.491 -1.0831  1.7210 -4.2938
19029TIP3    H278579   1.134  -0.066   3.435  0.3027 -0.5026  0.3608
19030TIP3   OH278580   5.407   2.150  13.176  0.2058 -0.2980 -0.4472
19030TIP3    H178581   5.372   2.238  13.190  1.4802  0.2585 -0.5952
19030TIP3    H278582   5.440   2.124  13.262  0.3870 -0.3698 -0.5375
19031TIP3   OH278583   2.271   4.086  11.425 -0.0792 -0.3639 -0.2644
19031TIP3    H178584   2.307   4.020  11.484 -0.7125 -0.0370  0.5036
19031TIP3    H278585   2.197   4.043  11.382 -0.7740 -0.0280  0.5722
19032TIP3   OH278586   0.574   2.408  17.077 -0.7091 -0.2844 -0.1762
19032TIP3    H178587   0.551   2.365  16.994 -1.7124  1.2243 -0.7120
19032TIP3    H278588   0.506   2.379  17.138 -0.2363 -1.0209  0.0211
19033TIP3   OH278589   2.898   2.456   4.439 -1.0394  0.2973  0.3181
19033TIP3    H178590   2.805   2.450   4.414 -0.5847  0.0013 -1.3993
19033TIP3    H278591   2.898   2.516   4.513 -2.4893  1.3475 -0.4656
19034TIP3   OH278592   3.524   4.809  16.361 -0.0227  0.3049  0.6809
19034TIP3    H178593   3.430   4.817  16.376 -0.3199 -1.8783  0.3616
19034TIP3    H278594   3.536   4.832  16.269 -0.7294 -1.9812 -0.0585
19035TIP3   OH278595   4.093   3.779  12.465  0.4195 -0.2486  0.5037
19035TIP3    H178596   4.167   3.720  12.481  0.8816  0.0925 -0.2768
19035TIP3    H278597   4.033   3.728  12.410  1.4915  0.4420 -1.3994
19036TIP3   OH278598   0.455   1.582   4.886  0.2546  0.1204  0.3095
19036TIP3    H178599   0.534   1.565   4.938  1.0873  0.2160 -0.8861
19036TIP3    H278600   0.399   1.506   4.902  0.8778 -0.2748  0.6486
19037TIP3   OH278601   3.048   4.455  14.936 -0.0945  0.6077 -0.1649
19037TIP3    H178602   3.042   4.486  14.845  0.8398 -2.1157 -1.2666
19037TIP3    H278603   2.958   4.450  14.966 -0.4017  1.7677 -0.8549
19038TIP3   OH278604   2.494   3.779   2.241 -0.0898  0.1222  0.3617
19038TIP3    H178605   2.432   3.793   2.313 -1.0709 -1.1879 -0.1923
19038TIP3    H278606   2.537   3.695   2.263  0.7822  0.5252  0.2322
19039TIP3   OH278607   3.875   3.195   0.711  0.0336 -0.2341  0.5652
19039TIP3    H178608   3.838   3.258   0.649  0.3243  0.0946  0.7193
19039TIP3    H278609   3.880   3.113   0.662  0.6287  0.1190  0.0187
19040TIP3   OH278610   0.953   5.796  11.141 -0.0074  0.1711 -0.0194
19040TIP3    H178611   0.943   5.756  11.228  0.5537 -0.0934 -0.0662
19040TIP3    H278612   0.906   5.879  11.147  1.2352  0.8496  1.0170
19041TIP3   OH278613   2.454   1.583  15.107  0.6530 -0.3436  0.0733
19041TIP3    H178614   2.429   1.492  15.123 -1.1790  0.1533  0.2756
19041TIP3    H278615   2.382   1.634  15.145 -0.1932  1.1111 -3.1508
19042TIP3   OH278616   5.969   4.790   3.541 -0.9008 -0.0251  0.2010
19042TIP3    H178617   5.874   4.795   3.533 -0.8853 -0.3416 -0.1958
19042TIP3    H278618   5.991   4.854   3.609 -1.4747 -0.5311  0.8808
19043TIP3   OH278619   1.629   2.426   3.972 -0.5201  0.3777 -0.2437
19043TIP3    H178620   1.706   2.394   3.925  0.0771  0.4055  0.6958
19043TIP3    H278621   1.641   2.520   3.976 -0.0306  0.2779  0.8750
19044TIP3   OH278622   4.704   4.654  11.955 -0.1836  0.3091  0.9050
19044TIP3    H178623   4.682   4.560  11.953  0.2286  0.1905 -1.8402
19044TIP3    H278624   4.639   4.692  12.015 -0.1923 -1.7302  2.2952
19045TIP3   OH278625   4.792   5.112  15.104  0.0667  0.3427  0.5499
19045TIP3    H178626   4.756   5.199  15.122  1.7450  1.2259 -0.1806
19045TIP3    H278627   4.719   5.053  15.123 -0.7171  1.7683  2.3599
19046TIP3   OH278628   2.007   1.344   1.173  0.4393  0.1278 -0.1499
19046TIP3    H178629   1.998   1.345   1.078  2.0944 -0.2829 -0.3446
19046TIP3    H278630   1.954   1.270   1.201 -0.4168  0.5221 -0.7054
19047TIP3   OH278631   1.357   3.124   5.868 -0.1910  0.0752  0.1149
19047TIP3    H178632   1.264   3.145   5.863 -0.3313 -0.3938  0.7266
19047TIP3    H278633   1.401   3.204   5.839 -0.7364  0.9774  1.7027
19048TIP3   OH278634   2.509   1.499  13.287 -0.1165  0.3035 -0.0622
19048TIP3    H178635   2.487   1.438  13.216  0.9938  0.4047 -0.5164
19048TIP3    H278636   2.426   1.539  13.310 -0.4995  0.3160 -1.3573
19049TIP3   OH278637   0.693   4.437   2.558  0.1346  0.0415 -0.1281
19049TIP3    H178638   0.667   4.510   2.615  0.0705  0.5446 -0.7936
19049TIP3    H278639   0.716   4.367   2.619  1.0317  0.8900  0.5498
19050TIP3   OH278640   4.034   2.381   3.524  0.0983 -0.1913 -0.1748
19050TIP3    H178641   4.053   2.442   3.453 -3.2180  0.8103 -0.3758
19050TIP3    H278642   3.983   2.433   3.587 -1.3034 -2.2578  0.5210
19051TIP3   OH278643   2.086   0.812  15.006  0.2967  0.3884  0.2522
19051TIP3    H178644   2.069   0.886  14.948 -1.0775 -0.0936  0.0144
19051TIP3    H278645   2.095   0.737  14.948 -1.8535 -0.2363  0.6624
19052TIP3   OH278646   5.394   0.280   3.059  0.0975 -0.2770  0.4417
19052TIP3    H178647   5.330   0.209   3.054  0.8755 -1.0227  0.7150
19052TIP3    H278648   5.463   0.246   3.117 -0.2074  1.2690  1.7925
19053TIP3   OH278649   5.799   0.478  14.065  0.1751  0.3063 -0.1382
19053TIP3    H178650   5.819   0.456  14.156  1.7882 -0.2322 -0.5970
19053TIP3    H278651   5.710   0.512  14.068 -0.0709 -0.3956  1.5303
19054TIP3   OH278652   2.803   1.956  13.448  0.2196  0.2316 -0.5842
19054TIP3    H178653   2.734   1.933  13.387 -0.9336  0.2094  0.6728
19054TIP3    H278654   2.863   1.881  13.446  0.7359  0.6506 -2.3684
19055TIP3   OH278655   3.911   5.736  15.915 -0.9941 -0.5616 -0.4871
19055TIP3    H178656   3.937   5.815  15.962  2.2356 -0.9883 -1.3598
19055TIP3    H278657   3.894   5.765  15.825 -0.0121 -0.7950 -0.7581
19056TIP3   OH278658   2.357   0.245  16.966  0.0277  0.7906  0.4186
19056TIP3    H178659   2.380   0.258  16.874  0.6480  0.7737  0.5672
19056TIP3    H278660   2.341   0.151  16.974 -0.5001  0.8610  0.2260
19057TIP3   OH278661   3.156   3.467   0.579  0.4146  0.7532 -0.7985
19057TIP3    H178662   3.245   3.463   0.545  0.3415 -0.8663 -0.8571
19057TIP3    H278663   3.101   3.473   0.501  0.4443  1.3616 -0.7771
19058TIP3   OH278664   1.892   4.553  11.969  0.6502  0.4556  0.2540
19058TIP3    H178665   1.901   4.616  12.041  2.8389  2.4861 -1.6013
19058TIP3    H278666   1.909   4.605  11.890 -1.5511 -1.6649 -1.7929
19059TIP3   OH278667   4.754   2.713   3.038 -0.5042  0.4752  0.2128
19059TIP3    H178668   4.783   2.622   3.034 -1.6300 -0.0542  2.4466
19059TIP3    H278669   4.832   2.764   3.017  0.9954 -0.9744  1.8951
19060TIP3   OH278670   6.861   4.902  12.547 -0.2117 -0.2653 -0.2383
19060TIP3    H178671   6.945   4.932  12.514 -0.1295  0.9523  0.9958
19060TIP3    H278672   6.796   4.946  12.492 -0.0854 -1.4539 -1.4015
19061TIP3   OH278673   2.372   5.888  15.310 -0.5966 -0.2192 -0.6197
19061TIP3    H178674   2.392   5.923  15.224  1.2150  0.5795  0.0853
19061TIP3    H278675   2.350   5.965  15.363 -0.6239 -0.5908 -0.0835
19062TIP3   OH278676   3.547   4.497  10.621 -0.5713 -0.1942 -0.0148
19062TIP3    H178677   3.606   4.571  10.634 -2.2744  1.6320 -1.9661
19062TIP3    H278678   3.511   4.478  10.708  1.9533 -0.6639  1.0234
19063TIP3   OH278679   2.507   1.313   1.091  0.7868  0.6141  0.3665
19063TIP3    H178680   2.532   1.398   1.054  1.0695 -0.1619 -1.3265
19063TIP3    H278681   2.590   1.268   1.107  0.6240 -0.1585 -0.8217
19064TIP3   OH278682   5.927   0.723   4.417  0.3960 -0.0949  0.2519
19064TIP3    H178683   5.890   0.811   4.407 -0.4855 -0.4081  0.6361
19064TIP3    H278684   5.905   0.680   4.334 -0.5199 -0.4263  0.6624
19065TIP3   OH278685   3.294   0.219  14.825 -0.1481 -0.0238  0.0693
19065TIP3    H178686   3.277   0.163  14.900 -0.1049  0.0823  0.1576
19065TIP3    H278687   3.316   0.158  14.754 -0.4600 -0.1397  0.0690
19066TIP3   OH278688   0.858   6.084  13.021 -0.0912  0.0892  0.3463
19066TIP3    H178689   0.886   6.164  12.978 -0.5312  0.1618  0.2022
19066TIP3    H278690   0.924   6.070  13.090  1.0580 -0.4534 -0.8221
19067TIP3   OH278691   5.698   0.800   0.699  0.1666 -0.1647  0.2338
19067TIP3    H178692   5.705   0.791   0.794  0.1478 -0.5666  0.1967
19067TIP3    H278693   5.605   0.817   0.683  0.3090  0.8081  0.3578
19068TIP3   OH278694   5.782   1.575  10.804  0.0067 -0.1174 -0.0009
19068TIP3    H178695   5.829   1.560  10.722 -1.9017 -0.3424 -1.1380
19068TIP3    H278696   5.849   1.577  10.871  1.9028  2.0887 -1.7745
19069TIP3   OH278697   2.876   1.224  12.423 -0.1653  0.2003  0.1473
19069TIP3    H178698   2.801   1.209  12.366 -2.4162  1.2530  2.6353
19069TIP3    H278699   2.863   1.165  12.497  1.9246 -0.1484  0.3175
19070TIP3   OH278700   5.505   2.681   0.916  0.1624 -0.1593 -0.6352
19070TIP3    H178701   5.527   2.650   1.004  1.1677 -0.7046 -1.0603
19070TIP3    H278702   5.520   2.775   0.918 -3.3125  0.5208  0.7982
19071TIP3   OH278703   4.344   3.581   4.637 -0.1501 -0.5334 -0.0245
19071TIP3    H178704   4.338   3.589   4.732  1.1861 -0.8631  0.1133
19071TIP3    H278705   4.310   3.663   4.603 -0.0198 -0.1451  0.7729
19072TIP3   OH278706   2.906   2.176   4.466 -0.6639 -0.3567  0.0100
19072TIP3    H178707   2.910   2.155   4.372 -1.8331 -0.7641  0.0351
19072TIP3    H278708   2.944   2.264   4.472  2.0394 -1.3910 -0.4407
19073TIP3   OH278709   4.311   5.710   4.424 -0.2706 -0.2085  0.3334
19073TIP3    H178710   4.379   5.711   4.492 -2.1560  2.6175  2.3390
19073TIP3    H278711   4.347   5.764   4.354  0.7412 -1.2774 -0.0187
19074TIP3   OH278712   2.246   2.587  14.254 -0.1085 -0.2200  0.0993
19074TIP3    H178713   2.278   2.634  14.177 -2.3314 -0.2544 -0.9261
19074TIP3    H278714   2.292   2.504  14.252 -0.8919 -0.6719 -1.8698
19075TIP3   OH278715   1.660   1.927   4.510  0.4712  0.2485  0.2726
19075TIP3    H178716   1.600   1.853   4.518  1.1056 -0.3636 -0.4518
19075TIP3    H278717   1.636   1.986   4.581  1.3301 -1.6263  2.2437
19076TIP3   OH278718   1.924   5.112  10.909  0.3292  0.4671  0.4351
19076TIP3    H178719   1.907   5.174  10.980 -1.2054  0.0138  0.4794
19076TIP3    H278720   1.988   5.051  10.946 -1.8109 -0.8853  2.1579
19077TIP3   OH278721   5.434   5.762   1.184 -0.3840 -0.0308 -0.0954
19077TIP3    H178722   5.521   5.742   1.151 -0.0456 -0.0753  0.7962
19077TIP3    H278723   5.375   5.707   1.133  0.3607 -2.0598  1.1295
19078TIP3   OH278724   5.143   3.828   0.598  0.2836 -0.5473  0.2672
19078TIP3    H178725   5.087   3.751   0.592  0.3204 -0.6449  1.0614
19078TIP3    H278726   5.150   3.860   0.508 -1.9046  0.0848  0.2664
19079TIP3   OH278727   4.955   1.613  12.486 -0.2040 -0.1308 -0.1282
19079TIP3    H178728   5.032   1.642  12.534 -1.1687  1.4704  0.5284
19079TIP3    H278729   4.887   1.604  12.552 -0.8194 -0.6562 -0.8128
19080TIP3   OH278730   5.883   2.576  14.956 -0.0872 -0.2085  0.1261
19080TIP3    H178731   5.829   2.633  14.900  1.0661  1.7022  0.8762
19080TIP3    H278732   5.874   2.489  14.917 -1.8654  0.4726 -1.1144
19081TIP3   OH278733   4.400   5.956  12.417  0.0757  0.2712 -0.1721
19081TIP3    H178734   4.381   5.957  12.323 -1.5998 -0.4133  0.1349
19081TIP3    H278735   4.491   5.986  12.423  0.0354  0.8660 -1.9637
19082TIP3   OH278736   1.127   2.986  16.207 -0.5589 -0.1630  0.0815
19082TIP3    H178737   1.208   2.938  16.195 -0.0056  1.1646 -2.1517
19082TIP3    H278738   1.153   3.068  16.249 -0.7421  0.2492 -0.5972
19083TIP3   OH278739   4.104   2.436   1.580  0.1922  0.3924 -0.1038
19083TIP3    H178740   4.087   2.527   1.605  0.7329  0.2910  0.6830
19083TIP3    H278741   4.122   2.392   1.663 -0.4729 -0.5308 -0.4299
19084TIP3   OH278742   4.812   5.982   3.945  0.1451  0.0932 -0.0192
19084TIP3    H178743   4.829   6.013   3.856  2.7555 -0.3561  0.2550
19084TIP3    H278744   4.729   5.933   3.937  0.1707  0.2716 -2.1362
19085TIP3   OH278745   0.491   2.318   0.322 -0.5653 -0.3454  0.2741
19085TIP3    H178746   0.407   2.355   0.348 -0.3243  1.1563 -0.9462
19085TIP3    H278747   0.469   2.229   0.292 -1.4351 -0.5798  1.5324
19086TIP3   OH278748   4.518   1.679  14.064  0.0457  0.0650  0.5015
19086TIP3    H178749   4.486   1.749  14.006  1.1808 -0.3530 -0.6883
19086TIP3    H278750   4.610   1.702  14.080  0.4736 -1.1978 -0.0233
19087TIP3   OH278751   4.008   0.646  16.447 -0.5060 -0.3247  0.2217
19087TIP3    H178752   3.994   0.707  16.375  2.0704  1.3752  1.0157
19087TIP3    H278753   4.103   0.638  16.455 -0.7192 -1.8610  2.2935
19088TIP3   OH278754   5.672   6.660  15.312  0.1729  0.1850  0.5009
19088TIP3    H178755   5.662   6.694  15.401  0.6224  1.3856  0.1273
19088TIP3    H278756   5.763   6.630  15.309 -0.5591 -2.2947  1.1982
19089TIP3   OH278757   5.623   3.286  14.831  0.1650  0.8003  0.3641
19089TIP3    H178758   5.580   3.209  14.869  2.1939  0.6859  2.6725
19089TIP3    H278759   5.653   3.257  14.745  1.0645 -1.1109  1.2660
19090TIP3   OH278760   1.948   3.245   1.390  0.2683  0.2297 -0.2296
19090TIP3    H178761   1.971   3.183   1.459 -0.1012 -0.8774 -1.0644
19090TIP3    H278762   2.029   3.255   1.339 -0.0956 -0.9252 -1.0904
19091TIP3   OH278763   6.619   6.755  15.881 -0.2455 -0.0446 -0.4194
19091TIP3    H178764   6.560   6.761  15.806 -0.6010  0.4372 -0.1059
19091TIP3    H278765   6.611   6.664  15.911  0.8028 -0.5947 -1.6814
19092TIP3   OH278766   2.204   4.791   3.275 -0.1175 -0.0842  0.6744
19092TIP3    H178767   2.211   4.853   3.202  1.4855 -0.8707  0.1166
19092TIP3    H278768   2.176   4.845   3.349 -2.7832  0.5811 -0.6792
19093TIP3   OH278769   2.953   5.593   5.826 -0.1337 -0.1579 -0.1770
19093TIP3    H178770   2.933   5.618   5.917 -1.6843  0.2913 -0.5981
19093TIP3    H278771   2.979   5.501   5.832  1.0458  0.2147  0.8585
19094TIP3   OH278772   4.907   3.714   3.222 -0.0066  0.1085  0.4764
19094TIP3    H178773   4.957   3.674   3.151 -0.6139  0.5178 -0.1897
19094TIP3    H278774   4.965   3.784   3.255 -0.5529  1.3473 -1.0569
19095TIP3   OH278775   5.608   2.731   5.353 -0.3569  0.0273 -0.2602
19095TIP3    H178776   5.571   2.760   5.269 -0.7654 -2.2323 -0.9297
19095TIP3    H278777   5.535   2.689   5.398  0.5679 -1.5735 -0.1768
19096TIP3   OH278778   1.898   2.294   0.909  0.7010  0.0207  0.2642
19096TIP3    H178779   1.864   2.327   0.826  0.5276  1.1037  0.7586
19096TIP3    H278780   1.912   2.200   0.893  1.5966  0.3778 -1.2972
19097TIP3   OH278781   3.939   4.427  13.466 -0.6405 -0.1013 -0.0628
19097TIP3    H178782   3.965   4.335  13.458 -0.8115 -0.2234  0.7046
19097TIP3    H278783   4.019   4.472  13.491 -0.4695  0.0247 -0.8175
19098TIP3   OH278784   6.784   6.161   4.019 -0.7221  0.0180 -0.1503
19098TIP3    H178785   6.851   6.225   4.045 -0.6504 -0.0632 -0.1360
19098TIP3    H278786   6.810   6.133   3.932  1.2323 -2.6031  1.1432
19099TIP3   OH278787   1.184   3.852  12.779  0.3503 -0.3797 -0.6756
19099TIP3    H178788   1.246   3.910  12.823  1.5229 -0.4911 -2.0939
19099TIP3    H278789   1.129   3.910  12.726  0.0145 -0.3834 -0.3358
19100TIP3   OH278790   3.472   6.435   1.414  0.0556 -0.3651  0.2850
19100TIP3    H178791   3.393   6.451   1.465  0.7697  1.5792  0.8816
19100TIP3    H278792   3.494   6.520   1.376 -0.0010 -1.5716 -2.6968
19101TIP3   OH278793   5.775   1.488  15.419 -0.5702 -0.3650  0.4475
19101TIP3    H178794   5.809   1.452  15.337 -1.2077 -1.4095  0.6278
19101TIP3    H278795   5.771   1.582  15.404  0.8135 -0.3745 -0.1596
19102TIP3   OH278796   4.781   0.340   6.376  0.3491  0.3408  0.0120
19102TIP3    H178797   4.786   0.433   6.352  0.7624  0.1823 -0.5374
19102TIP3    H278798   4.688   0.325   6.393  0.2751  0.8486  0.0866
19103TIP3   OH278799   0.964   1.021   2.416 -0.0185  0.0830  0.9054
19103TIP3    H178800   0.922   0.976   2.342 -0.8999  0.2480  1.2968
19103TIP3    H278801   0.931   1.110   2.412  1.3675  0.6018  0.4161
19104TIP3   OH278802   5.512   5.512  12.119 -0.3029 -0.1554 -0.6836
19104TIP3    H178803   5.583   5.577  12.114  0.7901 -1.3804 -1.9195
19104TIP3    H278804   5.504   5.492  12.212 -0.1402  1.1799 -0.3634
19105TIP3   OH278805   1.264   1.119  12.004  0.5221 -0.8428  0.7116
19105TIP3    H178806   1.193   1.121  12.069 -0.2068  0.9483 -0.0560
19105TIP3    H278807   1.231   1.063  11.934 -0.9202  1.2339 -0.3830
19106TIP3   OH278808   6.479   1.247  12.597  0.1748  0.1967 -0.2650
19106TIP3    H178809   6.505   1.273  12.509 -0.7766  0.9592 -0.3299
19106TIP3    H278810   6.384   1.240  12.593 -0.1234  2.4144  1.2515
19107TIP3   OH278811   6.707   4.400  13.683 -0.3385  0.1453 -0.1491
19107TIP3    H178812   6.800   4.394  13.664 -0.0762 -0.6985  1.2495
19107TIP3    H278813   6.676   4.310  13.679 -0.7605  0.2282  0.8957
19108TIP3   OH278814   0.864   5.310  14.735 -0.0664  0.0939  0.1025
19108TIP3    H178815   0.876   5.219  14.762 -0.8895  0.0504  0.3417
19108TIP3    H278816   0.941   5.355  14.770  0.0809 -0.4069  0.4442
19109TIP3   OH278817   6.830   5.340   3.965 -0.5772  1.3782 -0.3404
19109TIP3    H178818   6.791   5.277   4.025  1.7736 -1.3514 -1.4532
19109TIP3    H278819   6.904   5.376   4.013  1.3946 -0.9163 -1.4435
19110TIP3   OH278820   5.948   2.094  10.770  0.3528 -0.4783 -0.2090
19110TIP3    H178821   5.966   2.009  10.811  0.9734 -1.4988 -2.4633
19110TIP3    H278822   5.873   2.078  10.713  0.0866  0.6709 -0.2111
19111TIP3   OH278823   4.295   6.019   2.018  0.0940 -0.2268 -0.1903
19111TIP3    H178824   4.222   6.027   2.079  1.0500  1.8430  0.8037
19111TIP3    H278825   4.276   6.083   1.949 -0.4578 -1.8042 -1.5469
19112TIP3   OH278826   2.092   0.541   1.503 -0.2099  0.3167 -0.3181
19112TIP3    H178827   2.071   0.447   1.502 -0.1624  0.2213  2.0849
19112TIP3    H278828   2.169   0.548   1.446  1.1921 -1.5163  1.2192
19113TIP3   OH278829   2.263   1.309  13.380  0.1080  0.1077 -0.4577
19113TIP3    H178830   2.240   1.402  13.368 -0.7292 -0.0802 -0.3532
19113TIP3    H278831   2.180   1.263  13.373  0.1418 -0.4217  1.8729
19114TIP3   OH278832   6.140   3.517   2.261  0.0364 -0.6565  0.0061
19114TIP3    H178833   6.071   3.485   2.320 -1.3324 -0.6887 -1.5139
19114TIP3    H278834   6.173   3.596   2.302 -1.8680  0.1115  0.1687
19115TIP3   OH278835   5.366   3.241  10.781  0.7049  0.3126  0.6082
19115TIP3    H178836   5.422   3.210  10.852  1.2356 -0.7777 -0.2615
19115TIP3    H278837   5.369   3.172  10.715  0.3770  1.3611 -0.5628
19116TIP3   OH278838   6.754   0.649  11.307  0.3321  0.6865 -0.0200
19116TIP3    H178839   6.666   0.619  11.287  0.5106 -0.9340  1.3920
19116TIP3    H278840   6.799   0.572  11.343  1.6098  2.0168  1.4175
19117TIP3   OH278841   4.612   3.187  14.501  0.0108 -0.1629  0.2094
19117TIP3    H178842   4.612   3.273  14.542 -1.1950  0.1731 -0.4513
19117TIP3    H278843   4.545   3.193  14.433  0.4198 -1.3977 -0.3210
19118TIP3   OH278844   6.736   2.513   2.464 -0.5295 -0.3074 -0.7611
19118TIP3    H178845   6.643   2.506   2.483 -0.0569 -1.8093  1.3828
19118TIP3    H278846   6.777   2.532   2.549  1.1898 -0.6866 -1.4523
19119TIP3   OH278847   6.701   0.929  12.276  0.3741  0.2029 -0.4653
19119TIP3    H178848   6.695   1.023  12.255 -1.3902  0.2365  0.0552
19119TIP3    H278849   6.731   0.927  12.367 -0.6409  0.3107 -0.1176
19120TIP3   OH278850   3.298   3.266   2.716  0.2932 -0.1515 -0.1251
19120TIP3    H178851   3.214   3.221   2.711 -0.9779  1.8912  1.3798
19120TIP3    H278852   3.341   3.227   2.792 -0.0116 -0.0990  0.0770
19121TIP3   OH278853   5.338   0.558   3.120 -0.2118 -0.3777  0.1860
19121TIP3    H178854   5.342   0.473   3.078 -0.4186 -0.3677  0.1493
19121TIP3    H278855   5.256   0.597   3.090  0.1392  0.0568 -0.2248
19122TIP3   OH278856   5.002   0.109   6.669 -0.7431  0.4286 -0.9751
19122TIP3    H178857   5.084   0.103   6.718 -1.1175  0.0344 -0.3876
19122TIP3    H278858   4.968   0.019   6.669 -0.4914  0.3048 -2.4200
19123TIP3   OH278859   1.953   2.506   3.092 -0.2715  0.0442 -0.3137
19123TIP3    H178860   1.897   2.566   3.142  0.5522 -0.4984  1.3342
19123TIP3    H278861   1.935   2.420   3.129 -0.2511 -0.5272 -1.5690
19124TIP3   OH278862   6.654   2.042  14.248 -0.3318  0.1156  0.1465
19124TIP3    H178863   6.705   2.118  14.276  0.3763  0.0977 -1.0294
19124TIP3    H278864   6.574   2.046  14.300  0.5079  0.6155  1.4344
19125TIP3   OH278865   4.750   4.070  12.999 -0.5493  0.1370  0.8565
19125TIP3    H178866   4.656   4.054  13.011 -0.6902 -0.9327 -1.2467
19125TIP3    H278867   4.773   4.020  12.921  1.3210  2.0789  0.0643
19126TIP3   OH278868   6.353   1.529   3.743 -0.3904 -0.1370  0.6171
19126TIP3    H178869   6.405   1.450   3.729  1.4065  1.0137  0.4710
19126TIP3    H278870   6.408   1.600   3.711 -2.2550  1.1338  0.0672
19127TIP3   OH278871   2.913   3.827   2.127 -1.0636 -0.7432  0.1105
19127TIP3    H178872   2.996   3.840   2.081 -2.5554  1.3345 -2.2847
19127TIP3    H278873   2.938   3.815   2.219  1.9180 -1.6987 -0.7205
19128TIP3   OH278874   2.100   3.735   3.591 -0.2347 -0.0615  0.1601
19128TIP3    H178875   2.096   3.820   3.635 -0.3920  0.1460 -0.2557
19128TIP3    H278876   2.193   3.719   3.579 -0.2178  0.1940 -0.0402
19129TIP3   OH278877   3.243   3.630  12.694  0.0564 -0.8251 -0.3347
19129TIP3    H178878   3.149   3.625  12.711  0.1408 -0.4341  0.2746
19129TIP3    H278879   3.284   3.603  12.776  0.4706  0.9072  0.0641
19130TIP3   OH278880   6.006   5.465  11.071  0.2574  0.1042  0.2062
19130TIP3    H178881   5.938   5.443  11.007  1.1369 -1.0037 -0.3788
19130TIP3    H278882   6.065   5.391  11.069  0.3893  0.1192  2.2384
19131TIP3   OH278883   3.309   4.590   5.399  0.9531 -0.4348 -0.5191
19131TIP3    H178884   3.267   4.607   5.483 -0.6647  1.7037 -1.6652
19131TIP3    H278885   3.378   4.657   5.394  1.3120 -0.8149 -0.7575
19132TIP3   OH278886   2.408   1.311  11.291  0.8038 -0.1371  0.8414
19132TIP3    H178887   2.362   1.239  11.334  1.3285 -1.1325 -0.2002
19132TIP3    H278888   2.351   1.387  11.305 -0.3022 -0.9735  1.0785
19133TIP3   OH278889   4.338   0.859  15.740  0.5458  0.6511 -0.2930
19133TIP3    H178890   4.243   0.860  15.754  0.7954  0.0296  1.6197
19133TIP3    H278891   4.347   0.861  15.644 -1.4335 -1.7140 -0.6370
19134TIP3   OH278892   0.817   3.163   5.732  0.0814  0.2645 -0.5499
19134TIP3    H178893   0.745   3.216   5.697 -0.4009 -0.5235 -0.7769
19134TIP3    H278894   0.863   3.131   5.655  1.3679  1.6583 -0.4003
19135TIP3   OH278895   1.194   4.761   3.608 -0.3385  0.1054  0.8671
19135TIP3    H178896   1.217   4.839   3.657  2.2273  0.4785 -0.7003
19135TIP3    H278897   1.223   4.688   3.664  0.0220  0.4087  1.0788
19136TIP3   OH278898   0.808   0.051  12.497 -1.0082 -0.1620 -0.4311
19136TIP3    H178899   0.791   0.100  12.416 -1.6176 -1.4893 -1.1639
19136TIP3    H278900   0.860  -0.024  12.468 -1.3004 -0.6909  0.3897
19137TIP3   OH278901   0.898   6.811  16.267 -0.0676  0.5278  0.1423
19137TIP3    H178902   0.949   6.847  16.195 -0.0690  0.5925  0.1734
19137TIP3    H278903   0.823   6.869  16.275 -0.2414  0.3225 -0.0236
19138TIP3   OH278904   5.111   3.771   6.328 -0.1237  0.3240 -0.1858
19138TIP3    H178905   5.150   3.697   6.374  0.1404 -0.3143 -1.4007
19138TIP3    H278906   5.018   3.767   6.351  0.3952  1.8160  2.6802
19139TIP3   OH278907   0.368   1.209  14.262  0.1927 -0.0924  0.1055
19139TIP3    H178908   0.339   1.119  14.281 -0.9695  0.2205 -0.0850
19139TIP3    H278909   0.458   1.199  14.232 -0.0050 -1.2347 -0.1784
19140TIP3   OH278910   6.275   5.658  12.249 -0.2678 -0.1115 -0.3642
19140TIP3    H178911   6.252   5.565  12.255 -0.2545 -0.0361  1.1540
19140TIP3    H278912   6.351   5.667  12.306 -0.3269  0.8572 -0.4299
19141TIP3   OH278913   5.090   1.138  14.650 -0.3627 -0.1495 -0.2340
19141TIP3    H178914   5.153   1.210  14.661 -1.4630  0.7620  0.2728
19141TIP3    H278915   5.073   1.107  14.738 -2.3983  1.2037 -0.0934
19142TIP3   OH278916   2.865   4.142   2.748 -0.2294 -0.1262  0.2530
19142TIP3    H178917   2.946   4.136   2.800 -0.6641  1.0769  1.1190
19142TIP3    H278918   2.887   4.102   2.664  1.9578  2.1010 -0.3404
19143TIP3   OH278919   4.846   4.295  11.782 -0.1498 -0.0919  0.4602
19143TIP3    H178920   4.880   4.323  11.867 -0.9687 -0.6867  1.0073
19143TIP3    H278921   4.923   4.267  11.733  0.2404 -0.6953  1.3792
19144TIP3   OH278922   6.770   4.464   4.254 -0.0945  0.2618  0.1359
19144TIP3    H178923   6.832   4.520   4.206 -0.4458 -0.4668 -1.2399
19144TIP3    H278924   6.769   4.499   4.343  0.4395  1.8125 -0.4338
19145TIP3   OH278925   4.055   3.702   4.717  0.1320  0.0275  0.2703
19145TIP3    H178926   4.073   3.615   4.753  0.6303 -0.1940 -0.4932
19145TIP3    H278927   3.960   3.706   4.709  0.1637 -0.8615 -0.6978
19146TIP3   OH278928   4.930   4.509  14.990  0.6526  0.2064  0.5741
19146TIP3    H178929   4.967   4.480  15.073 -0.1002  1.5286  1.4096
19146TIP3    H278930   4.876   4.585  15.013 -0.7829 -0.3049 -0.9092
19147TIP3   OH278931   4.328   4.290  16.713 -0.0841  0.1737  0.1956
19147TIP3    H178932   4.317   4.272  16.806 -0.8268 -0.3143  0.0210
19147TIP3    H278933   4.415   4.255  16.692 -0.4098 -0.8347  0.4490
19148TIP3   OH278934   0.526   6.076  16.292 -0.3036 -0.4176 -0.1548
19148TIP3    H178935   0.610   6.073  16.338  0.5805  2.2951 -1.3670
19148TIP3    H278936   0.526   6.162  16.249 -3.8127 -0.2375 -0.0444
19149TIP3   OH278937   5.748   5.263   2.152  0.1456 -0.0290  0.0288
19149TIP3    H178938   5.834   5.221   2.158 -1.0490 -2.5651  0.9918
19149TIP3    H278939   5.729   5.291   2.242 -0.3074 -0.1494 -0.0263
19150TIP3   OH278940   4.246   1.255   5.526 -0.5088 -0.0770 -0.0852
19150TIP3    H178941   4.262   1.226   5.616 -0.9027 -0.5091 -0.1545
19150TIP3    H278942   4.240   1.351   5.534  1.1818  0.0583  0.0778
19151TIP3   OH278943   4.375   1.859  15.487 -0.1766  0.2635 -0.3166
19151TIP3    H178944   4.422   1.776  15.478  0.6853  0.7152 -0.0824
19151TIP3    H278945   4.373   1.895  15.398 -1.7457 -0.6202 -0.6752
19152TIP3   OH278946   2.765   5.469   0.922 -0.2573  0.0695 -0.9369
19152TIP3    H178947   2.803   5.455   0.835  0.2370 -0.2533 -0.6705
19152TIP3    H278948   2.840   5.465   0.981 -0.8123 -1.5768 -0.2921
19153TIP3   OH278949   5.110   1.260  11.469  0.8762 -0.0743 -0.0016
19153TIP3    H178950   5.089   1.262  11.562 -0.5024 -1.8817 -0.2357
19153TIP3    H278951   5.158   1.178  11.456  1.1724  0.2201 -0.8684
19154TIP3   OH278952   3.742   2.129  11.928  0.7106 -0.6011 -0.0005
19154TIP3    H178953   3.759   2.222  11.940 -0.4974 -0.4706  0.8651
19154TIP3    H278954   3.663   2.126  11.874 -0.8157 -1.0524  2.1561
19155TIP3   OH278955   0.270   5.295   0.566  0.3227  0.3806  0.2813
19155TIP3    H178956   0.222   5.372   0.537 -0.4052  0.0360  0.5524
19155TIP3    H278957   0.268   5.301   0.662  1.4268  0.7241  0.3091
19156TIP3   OH278958   0.763   5.724  16.391 -0.5739 -0.4551 -0.3038
19156TIP3    H178959   0.672   5.750  16.378 -0.5906 -1.1920 -1.9236
19156TIP3    H278960   0.760   5.665  16.466 -1.5676 -1.1128 -0.8387
19157TIP3   OH278961   1.281   0.098   0.530  0.0916  0.2920 -0.3634
19157TIP3    H178962   1.364   0.144   0.517 -0.1036  0.7080 -0.1644
19157TIP3    H278963   1.301   0.027   0.590  0.6842 -0.7123 -1.6839
19158TIP3   OH278964   5.656   4.730   1.198  0.0810 -0.2524  0.0642
19158TIP3    H178965   5.719   4.761   1.133  1.2871  1.1003  1.7697
19158TIP3    H278966   5.571   4.752   1.162  0.7238  0.6552 -0.9578
19159TIP3   OH278967   4.465   2.219  16.993  0.2953  0.1230  0.1346
19159TIP3    H178968   4.550   2.189  17.026  0.9948  0.6385 -1.1163
19159TIP3    H278969   4.447   2.161  16.918  0.8292  1.6204 -1.2165
19160TIP3   OH278970   6.676   0.107   1.357 -0.0480  0.3554 -0.2079
19160TIP3    H178971   6.608   0.044   1.335  0.4731 -1.4672  2.8112
19160TIP3    H278972   6.758   0.064   1.330  0.1765  0.7834 -0.2193
19161TIP3   OH278973   0.881   0.621   1.647 -0.0544 -0.0736 -0.2993
19161TIP3    H178974   0.832   0.570   1.583  1.9441  0.7734 -2.6840
19161TIP3    H278975   0.869   0.712   1.620  3.2814  0.1409 -1.4917
19162TIP3   OH278976   0.740   1.151   3.967  0.0131 -0.2725  0.4100
19162TIP3    H178977   0.783   1.227   4.006 -0.0482  1.0699 -1.9334
19162TIP3    H278978   0.649   1.178   3.956  0.2125 -0.2175 -1.4171
19163TIP3   OH278979   5.529   2.420  12.057 -0.0749 -1.3014 -0.0490
19163TIP3    H178980   5.545   2.495  11.999 -2.5434 -1.0079 -0.4727
19163TIP3    H278981   5.601   2.423  12.120 -0.2086  1.6215  0.1170
19164TIP3   OH278982   0.198   5.286   2.090 -0.1492 -0.3610  0.2299
19164TIP3    H178983   0.200   5.379   2.068 -2.7242  0.2616  2.1100
19164TIP3    H278984   0.203   5.241   2.006  1.5831  1.4095 -0.6918
19165TIP3   OH278985   2.334   0.777  15.762  0.5810 -0.2032  0.7429
19165TIP3    H178986   2.368   0.752  15.676 -1.2697  0.8571 -0.3649
19165TIP3    H278987   2.298   0.696  15.798 -0.6538 -0.2725 -0.5178
19166TIP3   OH278988   0.746   2.003   1.227 -0.9482  0.3717 -0.3145
19166TIP3    H178989   0.760   2.021   1.320 -1.0518 -1.3662  0.0634
19166TIP3    H278990   0.824   1.954   1.200 -1.0266  0.6672 -1.1003
19167TIP3   OH278991   0.782   3.490   4.334 -0.4062 -0.4546 -0.1342
19167TIP3    H178992   0.702   3.531   4.368 -0.9325 -0.9135 -0.7873
19167TIP3    H278993   0.756   3.400   4.315 -0.0455 -0.3045 -1.4032
19168TIP3   OH278994   2.118   3.371   5.314  0.3157  0.1835  0.4269
19168TIP3    H178995   2.180   3.431   5.355 -0.4435  0.3124  1.4185
19168TIP3    H278996   2.107   3.300   5.378  0.1753 -0.3333 -0.1551
19169TIP3   OH278997   3.126   1.003   3.481  0.5331  0.1825 -0.3834
19169TIP3    H178998   3.049   0.982   3.428 -1.2077  2.2080  1.1410
19169TIP3    H278999   3.134   1.098   3.476  2.9713  0.0416 -0.4535
19170TIP3   OH279000   4.309   2.785  11.038 -0.1255  0.4652 -0.3516
19170TIP3    H179001   4.381   2.835  11.076 -0.7180  1.3771 -0.4065
19170TIP3    H279002   4.259   2.753  11.114  1.8572 -2.5845 -0.1695
19171TIP3   OH279003   4.550   4.605   4.775 -0.5131  0.2034 -0.4778
19171TIP3    H179004   4.538   4.617   4.869  2.1580 -0.4470  0.0285
19171TIP3    H279005   4.492   4.533   4.752 -2.3026  1.3083  0.3107
19172TIP3   OH279006   3.381   5.413  13.468 -0.6456  0.1741 -0.2062
19172TIP3    H179007   3.361   5.420  13.375  0.8466 -1.9548 -0.7763
19172TIP3    H279008   3.351   5.325  13.493  0.4019  0.0880  0.8888
19173TIP3   OH279009   5.703   5.329   3.234  0.3408 -0.3932 -1.0338
19173TIP3    H179010   5.733   5.350   3.145 -1.2811  0.4012 -1.4467
19173TIP3    H279011   5.655   5.407   3.262 -1.0395 -1.4348 -0.3401
19174TIP3   OH279012   6.684   6.149  11.466 -0.4162 -0.1440  0.2685
19174TIP3    H179013   6.673   6.243  11.480 -1.3154 -0.4026  1.4928
19174TIP3    H279014   6.602   6.121  11.426  0.6030 -0.1149 -1.9988
19175TIP3   OH279015   0.383   4.624   2.428  0.3811  0.2063  0.0471
19175TIP3    H179016   0.412   4.695   2.371 -0.7926  0.0435 -0.7861
19175TIP3    H279017   0.444   4.626   2.502  0.6576  1.7545 -0.1990
19176TIP3   OH279018   3.747   0.019   1.105  0.7129 -0.4800  0.2680
19176TIP3    H179019   3.711  -0.022   1.026 -1.3953 -0.0534  0.9405
19176TIP3    H279020   3.754  -0.053   1.168 -2.2870 -0.0787  1.2090
19177TIP3   OH279021   1.796   2.318   4.199  0.5394 -0.0086 -0.2921
19177TIP3    H179022   1.833   2.230   4.199  0.5096 -0.0269  0.2685
19177TIP3    H279023   1.794   2.344   4.107  3.1800  0.4909 -0.3046
19178TIP3   OH279024   1.790   0.503   1.045 -0.0662 -0.4383  0.8910
19178TIP3    H179025   1.871   0.475   1.088  0.6464  1.6580  1.0493
19178TIP3    H279026   1.807   0.594   1.021 -2.1781 -0.1410  0.3791
19179TIP3   OH279027   4.231   5.086  14.807  0.0335  0.2108 -0.5422
19179TIP3    H179028   4.324   5.093  14.827  0.3034 -1.2050 -1.2182
19179TIP3    H279029   4.193   5.167  14.842  1.5482  0.9368 -0.5085
19180TIP3   OH279030   0.686   0.169   5.600 -0.6643  0.0199 -1.1000
19180TIP3    H179031   0.697   0.118   5.520  1.1724 -1.0992 -0.2338
19180TIP3    H279032   0.607   0.134   5.640 -1.4498  0.4077 -2.2773
19181TIP3   OH279033   1.556   5.078  16.595 -0.2001  0.4632  0.1723
19181TIP3    H179034   1.626   5.065  16.658 -0.7224  1.7036  1.0475
19181TIP3    H279035   1.598   5.064  16.510  0.5663 -0.9972  0.7548
19182TIP3   OH279036   5.858   5.402   0.487  0.2511 -0.2228 -0.1578
19182TIP3    H179037   5.795   5.427   0.555  1.3328  1.6270  0.2320
19182TIP3    H279038   5.905   5.327   0.524 -0.8709 -0.8440  0.0451
19183TIP3   OH279039   5.334   0.295   4.432 -0.2525 -0.1635 -0.8475
19183TIP3    H179040   5.248   0.321   4.465 -0.0402 -0.1725 -0.2882
19183TIP3    H279041   5.386   0.375   4.437  0.4499 -0.6841  1.0227
19184TIP3   OH279042   0.351   3.539   4.219  0.2483  0.2670  0.2819
19184TIP3    H179043   0.309   3.454   4.202  1.8677 -0.5460  0.1584
19184TIP3    H279044   0.417   3.547   4.151 -1.3060  2.6913 -1.0661
19185TIP3   OH279045   2.477   5.694   4.424 -0.1236  0.2858  0.0349
19185TIP3    H179046   2.524   5.612   4.410  2.1433  1.4209  0.4539
19185TIP3    H279047   2.514   5.754   4.359  0.7436  1.8631  1.8977
19186TIP3   OH279048   4.148   0.143   6.540 -0.6194 -1.1097 -0.2943
19186TIP3    H179049   4.192   0.064   6.511 -2.2529 -2.9741  1.9068
19186TIP3    H279050   4.219   0.201   6.569  0.5861 -1.9713 -1.4302
19187TIP3   OH279051   5.355   3.533  14.077  0.1100 -0.0368  0.2095
19187TIP3    H179052   5.353   3.627  14.093  0.8281 -0.1130  0.8268
19187TIP3    H279053   5.389   3.524  13.988 -1.6985  0.3284 -0.5534
19188TIP3   OH279054   0.751   0.477  14.194  0.4356 -0.1435  0.0765
19188TIP3    H179055   0.711   0.414  14.254  0.0274  1.6247  1.7544
19188TIP3    H279056   0.814   0.525  14.248  1.2041  0.4686 -1.3158
19189TIP3   OH279057   1.425   1.902  15.856  0.5958 -0.2507 -0.1008
19189TIP3    H179058   1.473   1.832  15.900  1.2948  0.3500  0.1133
19189TIP3    H279059   1.460   1.904  15.767  2.6359  1.6266  0.6427
19190TIP3   OH279060   4.476   1.292   3.934  0.6240  0.1218  0.0570
19190TIP3    H179061   4.435   1.210   3.961 -0.9481  0.6677 -0.5520
19190TIP3    H279062   4.408   1.358   3.946  0.8609  0.8809 -2.2067
19191TIP3   OH279063   4.257   1.602  13.983  0.4119 -0.0354  0.4468
19191TIP3    H179064   4.300   1.600  14.068  1.9179  1.0116 -0.2349
19191TIP3    H279065   4.304   1.670  13.934 -0.5072 -0.4990 -1.1663
19192TIP3   OH279066   5.132   6.457   4.345 -0.0648 -0.3139  0.4106
19192TIP3    H179067   5.167   6.485   4.260  0.5314 -2.2560 -0.0277
19192TIP3    H279068   5.112   6.539   4.390  0.0522  0.7839 -1.4037
19193TIP3   OH279069   0.707   1.537  15.122  0.8393 -0.3489 -0.3545
19193TIP3    H179070   0.786   1.519  15.070  0.7149 -1.4114 -0.2081
19193TIP3    H279071   0.741   1.571  15.205  1.1357 -0.4652 -0.4258
19194TIP3   OH279072   0.144   2.091   3.637 -0.5541 -0.0834 -0.3901
19194TIP3    H179073   0.148   2.029   3.709 -0.7160  1.1695  0.7491
19194TIP3    H279074   0.234   2.123   3.627 -0.5569 -0.1558 -0.6493
19195TIP3   OH279075   6.020   2.299  10.582 -0.0565  0.1759  0.9636
19195TIP3    H179076   6.035   2.266  10.493  2.2310  1.7212  0.6995
19195TIP3    H279077   5.992   2.222  10.632  4.3875 -2.2240  0.2959
19196TIP3   OH279078   2.503   4.402   5.834  0.7303  0.1144 -0.5560
19196TIP3    H179079   2.448   4.411   5.911  0.8627  1.6165 -0.6213
19196TIP3    H279080   2.567   4.335   5.858  0.6379  0.4093  0.5565
19197TIP3   OH279081   2.012   3.395   6.401  0.1963 -0.5160 -0.3696
19197TIP3    H179082   2.060   3.477   6.407 -0.2398 -0.3138  0.5108
19197TIP3    H279083   1.939   3.414   6.343  0.9897 -0.7427 -1.4731
19198TIP3   OH279084   6.194   4.264   6.151 -0.0376 -0.6431 -0.0843
19198TIP3    H179085   6.166   4.200   6.085  0.3288 -1.8149  0.8654
19198TIP3    H279086   6.191   4.217   6.234  3.7812 -0.6186  0.2651
19199TIP3   OH279087   3.387   5.614   5.850 -0.2572 -0.1817  0.4983
19199TIP3    H179088   3.320   5.553   5.880  0.6238 -0.1767  2.6268
19199TIP3    H279089   3.362   5.698   5.887  0.3670  0.0253  0.4634
19200TIP3   OH279090   1.022   6.001  11.500 -0.1812 -0.1468 -0.2854
19200TIP3    H179091   1.000   5.911  11.475  0.6174  0.1972 -2.5124
19200TIP3    H279092   0.938   6.046  11.503 -0.4318 -0.4941 -1.3781
19201TIP3   OH279093   6.802   4.170   3.727  0.3354 -0.4093 -0.6111
19201TIP3    H179094   6.807   4.084   3.769 -1.8072  0.1292  0.9066
19201TIP3    H279095   6.863   4.224   3.776 -1.2923 -0.0882  1.1650
19202TIP3   OH279096   2.626   6.728   3.227  0.6303 -0.3694  0.1889
19202TIP3    H179097   2.567   6.764   3.160 -0.4138 -0.7021  0.9070
19202TIP3    H279098   2.713   6.740   3.190  0.0972 -0.3253 -1.1284
19203TIP3   OH279099   3.879   5.853   1.749 -0.3508 -0.4849 -0.2822
19203TIP3    H179100   3.929   5.934   1.761  2.8008 -2.4634  1.3846
19203TIP3    H279101   3.843   5.835   1.836  1.8337 -2.4638  0.3052
19204TIP3   OH279102   5.917   4.338  13.893  0.2046 -0.2451  0.1117
19204TIP3    H179103   5.930   4.256  13.941  1.4382 -0.1188  0.0328
19204TIP3    H279104   5.823   4.341  13.875  0.1184 -1.5702  0.2459
19205TIP3   OH279105   5.341   4.087  11.914 -0.1454 -0.0168  0.1132
19205TIP3    H179106   5.353   4.169  11.867 -0.1406 -0.5937 -0.9181
19205TIP3    H279107   5.350   4.019  11.847 -1.8499 -0.7882  0.6118
19206TIP3   OH279108   6.181   3.289  13.217  0.4652  0.0003  0.0202
19206TIP3    H179109   6.161   3.242  13.298 -0.4814  0.1653 -0.1110
19206TIP3    H279110   6.261   3.248  13.185  0.7996 -0.1362  0.9798
19207TIP3   OH279111   1.656   5.815   3.096  0.3133 -0.5677 -0.1488
19207TIP3    H179112   1.746   5.783   3.094 -0.4139 -3.0024  1.4663
19207TIP3    H279113   1.658   5.893   3.150  1.5625 -0.0373 -0.9190
19208TIP3   OH279114   3.742   3.138  14.391  0.3520 -0.4503 -0.4961
19208TIP3    H179115   3.726   3.232  14.388 -1.1551 -0.5793  1.5013
19208TIP3    H279116   3.734   3.115  14.483 -0.8020 -2.7515 -1.0877
19209TIP3   OH279117   0.070   1.693  16.016  0.0482 -0.3145  0.0460
19209TIP3    H179118  -0.011   1.686  15.966 -1.4683  1.3794  2.0680
19209TIP3    H279119   0.121   1.760  15.969 -1.2418  1.0821  0.5761
19210TIP3   OH279120   4.460   4.389   4.660  0.0223 -0.2930  0.1309
19210TIP3    H179121   4.488   4.299   4.646 -1.0804 -0.6738  0.2728
19210TIP3    H279122   4.380   4.382   4.712 -1.4961  0.6066 -1.9048
19211TIP3   OH279123   3.495   4.909   2.327  0.2110  0.8383  0.5457
19211TIP3    H179124   3.455   4.903   2.240  2.5683  1.3097 -0.6546
19211TIP3    H279125   3.426   4.944   2.383 -0.7978  2.5331 -1.6093
19212TIP3   OH279126   6.195   1.736   3.456  0.2734 -0.1222  0.4512
19212TIP3    H179127   6.177   1.811   3.400  0.6835  0.1872  0.7312
19212TIP3    H279128   6.224   1.774   3.539  0.2701 -0.5850  0.6682
19213TIP3   OH279129   2.760   3.501   5.856  0.6596  0.1013 -0.3883
19213TIP3    H179130   2.744   3.593   5.835 -1.1616 -0.5296 -2.0707
19213TIP3    H279131   2.785   3.462   5.773  0.9347 -1.0187  0.2093
19214TIP3   OH279132   3.369   0.650  13.483  0.9091  0.1396  0.2140
19214TIP3    H179133   3.362   0.708  13.559 -0.5700 -0.5387  0.6396
19214TIP3    H279134   3.425   0.578  13.513  0.2790 -0.1566  0.7034
19215TIP3   OH279135   4.029   4.207   5.344 -0.7416  0.2266 -0.7868
19215TIP3    H179136   4.033   4.198   5.249  1.2587  1.3126 -0.8655
19215TIP3    H279137   4.053   4.298   5.361  0.4579 -0.3374  0.8110
19216TIP3   OH279138   4.763   0.700   2.776 -0.4813  0.3773  0.3198
19216TIP3    H179139   4.761   0.643   2.699 -1.1875 -0.2345  0.7781
19216TIP3    H279140   4.773   0.788   2.741  1.8461 -0.0981 -0.3681
19217TIP3   OH279141   5.810   1.881   4.152  0.5431  0.0851 -0.1142
19217TIP3    H179142   5.868   1.880   4.077 -0.2999  0.4073 -0.7834
19217TIP3    H279143   5.722   1.870   4.116  0.1792 -0.4266  0.8769
19218TIP3   OH279144   5.425   5.896   5.868  0.4535  0.2639 -0.2098
19218TIP3    H179145   5.397   5.837   5.798 -2.0114 -0.5798  1.3698
19218TIP3    H279146   5.496   5.850   5.912  1.1564  0.2440 -1.3317
19219TIP3   OH279147   1.138   3.882   5.705 -0.5777  0.0733  0.7821
19219TIP3    H179148   1.197   3.866   5.779  0.8478  0.8892 -0.1224
19219TIP3    H279149   1.060   3.922   5.745 -0.6188 -1.1622  2.0287
19220TIP3   OH279150   4.524   6.729  16.283 -0.3427 -0.1399 -0.1925
19220TIP3    H179151   4.442   6.691  16.315  0.2147 -1.1453  0.0877
19220TIP3    H279152   4.539   6.805  16.340 -0.3281 -0.8165  0.7234
19221TIP3   OH279153   0.905   5.180  16.556 -0.5134 -0.5598 -0.1419
19221TIP3    H179154   0.957   5.102  16.538  1.8022  1.2391 -1.8852
19221TIP3    H279155   0.933   5.208  16.643 -0.2372 -0.8387 -0.1411
19222TIP3   OH279156   3.933   3.459  11.630  0.4697 -0.4038  0.3739
19222TIP3    H179157   3.913   3.526  11.564  0.7866  1.8086  2.4017
19222TIP3    H279158   3.849   3.417  11.648  0.2443 -0.5225 -0.8368
19223TIP3   OH279159   1.243   5.003  14.323  0.2592 -0.2093  0.1523
19223TIP3    H179160   1.328   4.967  14.349  0.9730  2.0777  1.2433
19223TIP3    H279161   1.199   5.022  14.406 -0.8282 -0.2097 -0.4072
19224TIP3   OH279162   3.784   6.861  13.065  0.5775 -0.1061 -0.0269
19224TIP3    H179163   3.730   6.821  13.133  0.5030 -0.7869 -0.4793
19224TIP3    H279164   3.789   6.796  12.996 -0.8812  1.2645 -1.5116
19225TIP3   OH279165   4.447   5.210   4.598  0.5914  0.5179  0.5175
19225TIP3    H179166   4.361   5.173   4.617  1.2014 -0.6202  1.1346
19225TIP3    H279167   4.428   5.283   4.539 -0.8195  0.4838  0.8789
19226TIP3   OH279168   3.529   5.363  11.357 -0.2043  0.0237 -0.0554
19226TIP3    H179169   3.470   5.306  11.308  1.0746  0.5470 -2.3608
19226TIP3    H279170   3.612   5.314  11.361  0.3510  0.9008 -0.3930
19227TIP3   OH279171   6.071   1.025   6.639 -0.3189 -0.0084 -0.1258
19227TIP3    H179172   6.112   1.073   6.567  2.5914  0.8076  1.8958
19227TIP3    H279173   6.003   1.085   6.672  0.0928  0.7162 -0.5720
19228TIP3   OH279174   0.750   2.240   0.799 -0.4498 -0.9415  0.2451
19228TIP3    H179175   0.668   2.253   0.847 -0.0257 -0.4323  0.8553
19228TIP3    H279176   0.728   2.179   0.729 -1.9312  1.0445 -1.1160
19229TIP3   OH279177   2.721   5.080   2.234  0.4429 -0.0847 -0.0004
19229TIP3    H179178   2.696   5.168   2.262  1.9125  0.0686  0.9117
19229TIP3    H279179   2.747   5.090   2.142 -2.0672 -0.1364 -0.7973
19230TIP3   OH279180   1.790   1.943  11.911  0.6230  0.2931  0.5539
19230TIP3    H179181   1.786   1.965  11.818  3.2905 -1.7605 -0.1689
19230TIP3    H279182   1.701   1.959  11.943 -0.8335 -0.4353 -2.6976
19231TIP3   OH279183   0.967   0.211   4.450  0.3347  0.3505 -0.6458
19231TIP3    H179184   1.062   0.202   4.454  0.2010 -0.9632 -0.1578
19231TIP3    H279185   0.950   0.234   4.358  1.1080  0.6155 -0.7347
19232TIP3   OH279186   2.570   0.814  11.287 -0.3989  0.2019 -0.2589
19232TIP3    H179187   2.570   0.719  11.274  2.6019  0.3073 -1.8464
19232TIP3    H279188   2.623   0.827  11.366  0.8946  0.5916 -1.1646
19233TIP3   OH279189   4.999   2.124   4.265  0.0705 -0.2637 -0.1222
19233TIP3    H179190   5.000   2.063   4.339 -0.0476  0.0089  0.1018
19233TIP3    H279191   5.062   2.086   4.203 -0.3001 -0.8319 -0.1602
19234TIP3   OH279192   1.961   6.621  12.322 -0.2439 -0.1752  0.1207
19234TIP3    H179193   2.054   6.618  12.300 -0.2692 -1.8074  0.1162
19234TIP3    H279194   1.954   6.576  12.405 -1.2320 -1.6563 -0.7216
19235TIP3   OH279195   6.831   1.788   4.211  0.0388  0.4713 -0.6709
19235TIP3    H179196   6.753   1.763   4.161 -0.8065  0.7275  0.4795
19235TIP3    H279197   6.841   1.882   4.195 -0.4006  0.6112 -0.1410
19236TIP3   OH279198   4.016   5.524   1.031 -0.2934  0.2362  0.0941
19236TIP3    H179199   4.027   5.615   1.060  2.0696 -0.3310  1.1779
19236TIP3    H279200   3.962   5.483   1.098 -1.2210  0.7539 -0.3100
19237TIP3   OH279201   5.232   1.790  15.426 -1.0344 -0.1788  0.2145
19237TIP3    H179202   5.284   1.754  15.355  1.3058  0.3179  1.5908
19237TIP3    H279203   5.270   1.876  15.442 -0.7711 -0.7040  2.7443
19238TIP3   OH279204   0.969   0.339   1.082  0.3110  0.0920  0.0046
19238TIP3    H179205   0.998   0.249   1.101  0.3635 -0.0748 -0.8206
19238TIP3    H279206   0.903   0.357   1.149 -0.1493 -0.7978 -0.1815
19239TIP3   OH279207   6.251   3.766  13.072  0.5292  0.2716 -0.4581
19239TIP3    H179208   6.191   3.747  13.144  0.8865 -1.7611 -0.6323
19239TIP3    H279209   6.199   3.753  12.993  0.4194  1.4604 -0.5907
19240TIP3   OH279210   2.259   0.971   1.004 -0.2346 -0.7989 -0.2693
19240TIP3    H179211   2.349   0.940   1.007  0.3411  0.8732  1.2219
19240TIP3    H279212   2.219   0.923   0.931  1.6275 -2.1255 -0.4631
19241TIP3   OH279213   6.209   4.486  15.331 -0.1348 -0.2192 -0.2039
19241TIP3    H179214   6.114   4.485  15.336 -0.2049  2.1037  0.3254
19241TIP3    H279215   6.237   4.505  15.421  0.7471  0.2584 -0.5630
19242TIP3   OH279216   0.221   4.156  16.825  0.4973 -0.5598  0.6620
19242TIP3    H179217   0.132   4.160  16.859 -1.0298  0.2531 -3.0171
19242TIP3    H279218   0.225   4.073  16.778  1.2212 -0.0081 -0.2834
19243TIP3   OH279219   2.674   3.031   0.277  0.1931 -0.1623  0.5551
19243TIP3    H179220   2.700   2.997   0.362  1.4397 -1.2459 -0.2211
19243TIP3    H279221   2.660   2.953   0.223 -0.8421  0.4985 -0.1698
19244TIP3   OH279222   1.586   1.877   1.366  0.1393 -0.2084 -0.0259
19244TIP3    H179223   1.655   1.918   1.314  0.2610  0.8383  0.9336
19244TIP3    H279224   1.622   1.791   1.389  1.8605  0.9027  1.7866
19245TIP3   OH279225   3.418   5.238   4.629  0.7237 -0.3302  0.3796
19245TIP3    H179226   3.445   5.235   4.721  2.3051 -0.7078 -0.0651
19245TIP3    H279227   3.488   5.286   4.585  1.3052 -2.3629 -1.0474
19246TIP3   OH279228   5.943   4.622   0.941  0.1929  0.4763  0.2683
19246TIP3    H179229   5.978   4.636   1.028  1.5387 -0.8625 -0.0070
19246TIP3    H279230   6.005   4.561   0.900 -2.0772 -1.4669 -0.5064
19247TIP3   OH279231   1.334   1.138   4.274 -0.1653  0.4496  0.1956
19247TIP3    H179232   1.339   1.219   4.223  2.8162 -0.5450 -1.3101
19247TIP3    H279233   1.307   1.072   4.210 -0.0242 -0.1781  0.7765
19248TIP3   OH279234   5.373   1.609  10.992  0.1777  0.2478  0.3690
19248TIP3    H179235   5.458   1.614  11.036 -0.6469  0.8761  1.9740
19248TIP3    H279236   5.326   1.539  11.037  0.3049 -1.0569 -1.4228
19249TIP3   OH279237   0.223   6.090  16.342  0.2533 -0.0041 -0.0461
19249TIP3    H179238   0.312   6.057  16.336  0.1513 -0.0849 -1.7023
19249TIP3    H279239   0.177   6.046  16.270 -1.3612 -0.6388  1.2884
19250TIP3   OH279240   6.081   1.057   5.252 -0.1511 -0.1182  0.0530
19250TIP3    H179241   6.042   0.972   5.270 -0.7691 -0.0340 -0.7968
19250TIP3    H279242   6.084   1.101   5.337  0.2730 -1.0211  0.5136
19251TIP3   OH279243   3.445   4.277   3.035  0.0444 -0.2236 -0.2111
19251TIP3    H179244   3.530   4.313   3.009 -0.8030  2.1010 -0.0471
19251TIP3    H279245   3.388   4.354   3.044 -1.4891 -1.4752  1.8785
19252TIP3   OH279246   3.864   0.180   2.134  0.7180  0.2951 -0.2543
19252TIP3    H179247   3.806   0.255   2.149 -0.7999 -0.7618 -0.5734
19252TIP3    H279248   3.951   0.219   2.123 -0.0258  2.0050 -0.4817
19253TIP3   OH279249   6.756   4.223  10.886  0.1020  0.3488  0.1557
19253TIP3    H179250   6.673   4.270  10.898 -0.2473 -0.2109 -0.0048
19253TIP3    H279251   6.817   4.290  10.854  0.2406  1.1901  2.0639
19254TIP3   OH279252   3.872   1.744  13.929  0.1868  0.0826  0.1758
19254TIP3    H179253   3.848   1.833  13.905  0.9286  0.0839 -0.6407
19254TIP3    H279254   3.789   1.697  13.933 -0.1189  0.5310 -0.6128
19255TIP3   OH279255   2.169   5.148  15.988 -0.2622 -0.4294  0.2144
19255TIP3    H179256   2.139   5.205  15.918 -0.9025 -1.0605 -0.0380
19255TIP3    H279257   2.264   5.141  15.975 -0.4971 -1.3959 -1.2628
19256TIP3   OH279258   6.528   0.497   0.093  0.1421 -0.3706  0.0655
19256TIP3    H179259   6.551   0.503   0.186 -0.9107 -2.1506  0.4979
19256TIP3    H279260   6.516   0.587   0.065  0.0661  0.1885  1.7793
19257TIP3   OH279261   1.015   3.583   4.450  0.4468  0.5261  0.1294
19257TIP3    H179262   0.965   3.610   4.527  2.3840  0.7309  1.3616
19257TIP3    H279263   0.948   3.549   4.390 -1.1102  0.2453  1.9172
19258TIP3   OH279264   3.498   0.906  11.018  0.3613  0.5010 -0.2698
19258TIP3    H179265   3.411   0.946  11.028  1.7652  3.4760  1.3203
19258TIP3    H279266   3.539   0.957  10.948  0.6669 -1.3159 -1.4759
19259TIP3   OH279267   5.608   1.398  15.154 -0.4678 -0.3818 -0.2019
19259TIP3    H179268   5.607   1.360  15.242  0.0529  0.5437  0.2135
19259TIP3    H279269   5.699   1.392  15.126 -0.7173 -1.1459 -0.9100
19260TIP3   OH279270   6.060   0.909  16.248 -0.4257  0.0320 -0.2803
19260TIP3    H179271   6.026   0.951  16.327 -1.6516 -1.6546  0.1574
19260TIP3    H279272   6.155   0.906  16.261 -0.5926 -0.0554  1.0746
19261TIP3   OH279273   5.935   2.916   3.828  0.6576 -0.5412 -0.4410
19261TIP3    H179274   5.861   2.972   3.807  1.0088 -0.4774 -1.5589
19261TIP3    H279275   6.009   2.953   3.779  1.3836 -0.7317  0.4753
19262TIP3   OH279276   5.914   2.602  10.683  0.0281  0.4054 -0.7194
19262TIP3    H179277   5.914   2.580  10.776 -0.0073  1.0706 -0.5624
19262TIP3    H279278   5.911   2.517  10.638 -2.6699  0.0740 -0.1052
19263TIP3   OH279279   4.718   2.003  13.049 -0.1507  0.8177  0.0859
19263TIP3    H179280   4.638   2.052  13.034 -0.3071  0.0070 -2.0562
19263TIP3    H279281   4.784   2.070  13.066 -1.0381  1.5490  0.7612
19264TIP3   OH279282   5.508   2.230  11.591 -0.5101  0.2805  0.5951
19264TIP3    H179283   5.440   2.192  11.647 -1.5325 -0.2129 -0.9376
19264TIP3    H279284   5.567   2.273  11.653 -2.5368  1.2880  1.9494
19265TIP3   OH279285   6.172   2.556  13.054 -0.4300 -0.0263 -0.4674
19265TIP3    H179286   6.242   2.542  13.118 -0.4661 -2.5728 -0.8819
19265TIP3    H279287   6.091   2.555  13.105 -0.5122 -2.7336 -0.5323
19266TIP3   OH279288   4.715   4.407   4.943 -0.2483 -0.1253 -0.0052
19266TIP3    H179289   4.670   4.486   4.973  0.8552 -0.1015  1.7378
19266TIP3    H279290   4.647   4.340   4.939 -0.6799  0.2017  1.3807
19267TIP3   OH279291   0.534   3.742  16.664 -0.0747 -0.2746  0.5881
19267TIP3    H179292   0.547   3.836  16.652 -0.6291 -0.3851 -1.1985
19267TIP3    H279293   0.439   3.733  16.675 -0.1928 -0.7134 -0.6074
19268TIP3   OH279294   2.735   4.197  14.949 -0.3949  0.4172 -0.1330
19268TIP3    H179295   2.806   4.150  14.992 -0.1703  1.1863  0.3470
19268TIP3    H279296   2.705   4.137  14.881  1.4655  0.5046 -1.1018
19269TIP3   OH279297   4.798   1.962   0.366 -0.1540 -0.5091  0.8913
19269TIP3    H179298   4.871   1.910   0.332  0.2473  1.2942 -1.2700
19269TIP3    H279299   4.722   1.931   0.316 -0.0955  0.2200  0.3192
19270TIP3   OH279300   3.917   4.747   5.456  0.2652  0.0462 -0.4654
19270TIP3    H179301   3.892   4.741   5.364 -2.3805  0.1620  0.1835
19270TIP3    H279302   3.937   4.839   5.470 -0.5281  0.2478 -0.6425
19271TIP3   OH279303   2.977   4.046   1.403  0.2186 -0.5779  0.3814
19271TIP3    H179304   3.003   4.085   1.487 -1.4789 -0.1398  0.7485
19271TIP3    H279305   2.963   4.122   1.346  2.0744 -0.8925 -0.5717
19272TIP3   OH279306   4.964   1.865   1.613  0.0456  0.2602  0.5287
19272TIP3    H179307   4.961   1.924   1.537 -1.3763 -1.2327 -0.6341
19272TIP3    H279308   5.055   1.868   1.641  0.2678  2.0819 -0.2238
19273TIP3   OH279309   2.093   1.996  11.969 -0.0732 -0.0062  0.2832
19273TIP3    H179310   2.026   1.996  12.037  1.2321  2.6667  1.6964
19273TIP3    H279311   2.172   1.965  12.013  0.2760 -0.4646 -0.6396
19274TIP3   OH279312   6.625   5.841  11.560  0.0181 -0.4705  0.2117
19274TIP3    H179313   6.615   5.748  11.581 -1.4693 -0.4228 -0.1753
19274TIP3    H279314   6.553   5.883  11.607 -0.1045  0.3183 -0.6717
19275TIP3   OH279315   1.412   4.618   5.068  0.0010 -0.4954  0.0887
19275TIP3    H179316   1.468   4.637   5.144 -0.6798 -2.6342  1.2214
19275TIP3    H279317   1.469   4.567   5.010  1.0844  2.6088 -1.8081
19276TIP3   OH279318   6.187   1.337   3.884 -0.2766  0.7024  0.6413
19276TIP3    H179319   6.232   1.415   3.851 -1.8004  1.6569  0.7416
19276TIP3    H279320   6.106   1.334   3.834  0.3299 -1.6293 -0.3462
19277TIP3   OH279321   1.166   3.869  13.593  0.0954 -0.2503  0.3177
19277TIP3    H179322   1.110   3.904  13.524  0.0138 -2.3955 -0.7757
19277TIP3    H279323   1.235   3.936  13.604 -0.3288  0.4883 -1.2738
19278TIP3   OH279324   0.238   1.880  15.335 -0.1011 -0.1196  0.4934
19278TIP3    H179325   0.306   1.893  15.401 -0.6748  1.5678  0.8176
19278TIP3    H279326   0.196   1.797  15.358  0.1406  0.1240  1.8581
19279TIP3   OH279327   3.478   4.996   4.397  0.6954  0.1164  0.3620
19279TIP3    H179328   3.520   5.065   4.346 -1.1821  1.3745  0.4307
19279TIP3    H279329   3.535   4.920   4.385  3.1274  1.7653  0.7327
19280TIP3   OH279330   2.851   3.522  17.051 -0.0090 -0.4683  0.2495
19280TIP3    H179331   2.823   3.579  16.979 -1.1249 -0.4045  0.7102
19280TIP3    H279332   2.885   3.582  17.117 -0.1528 -0.4185  0.2797
19281TIP3   OH279333   6.671   4.181  16.485  0.4896  0.8751  0.4679
19281TIP3    H179334   6.759   4.206  16.514  0.7905  0.2168  0.1510
19281TIP3    H279335   6.649   4.245  16.418  1.1623  0.4332 -0.1906
19282TIP3   OH279336   0.691   0.077   0.828 -0.2239 -0.3146 -0.2836
19282TIP3    H179337   0.746   0.121   0.762  1.4120 -2.6998 -0.6588
19282TIP3    H279338   0.748   0.070   0.905 -1.3495  0.4451  0.6448
19283TIP3   OH279339   4.891   4.473  12.254 -0.0193  0.2005  0.5060
19283TIP3    H179340   4.811   4.438  12.294 -0.2532  0.6675  0.4556
19283TIP3    H279341   4.869   4.564  12.233  1.1093  0.9071  2.1611
19284TIP3   OH279342   6.028   0.654  15.388 -0.2004 -0.2107  0.9576
19284TIP3    H179343   6.070   0.645  15.474 -0.2414 -0.2754  0.9709
19284TIP3    H279344   5.988   0.741  15.391  1.3796  0.5772  0.3114
19285TIP3   OH279345   5.694   2.923  12.686 -0.1998 -0.2755 -0.6149
19285TIP3    H179346   5.634   2.954  12.754 -0.2578  1.1016 -1.2709
19285TIP3    H279347   5.638   2.903  12.611  0.2133  2.1613 -1.6446
19286TIP3   OH279348   3.620   4.043   2.191  0.1155  0.0280 -0.1138
19286TIP3    H179349   3.584   3.954   2.180 -3.1407  1.2472 -0.5053
19286TIP3    H279350   3.679   4.054   2.117  2.0000 -2.3321  0.8728
19287TIP3   OH279351   6.626   2.249  16.821  0.1580  0.3000  0.2342
19287TIP3    H179352   6.604   2.338  16.852  1.7561  0.0245  2.3697
19287TIP3    H279353   6.720   2.252  16.804  0.7789 -1.5712  2.7743
19288TIP3   OH279354   1.342   5.742   5.896  0.5156 -0.2619 -0.0957
19288TIP3    H179355   1.259   5.695   5.901 -0.6578  1.8639  2.5106
19288TIP3    H279356   1.370   5.750   5.988  0.9354  3.4792 -0.4236
19289TIP3   OH279357   5.041   0.224   3.453 -0.2418 -0.5399 -0.0656
19289TIP3    H179358   4.995   0.151   3.412  0.3876 -1.0871  0.1722
19289TIP3    H279359   5.129   0.190   3.470  0.4550  0.6621 -1.0571
19290TIP3   OH279360   0.051   2.734  15.095  0.2271 -0.3590 -0.4002
19290TIP3    H179361  -0.038   2.758  15.069  0.4505 -0.2171 -1.0353
19290TIP3    H279362   0.040   2.650  15.140 -0.1891 -0.5173 -0.7874
19291TIP3   OH279363   4.395   3.010   0.761  0.2665 -0.3815 -0.0832
19291TIP3    H179364   4.419   3.086   0.813 -1.3351 -1.6825  2.8190
19291TIP3    H279365   4.300   3.015   0.752  0.3625 -0.8999 -1.8311
19292TIP3   OH279366   1.896   5.582   3.380 -0.5317  0.1920 -0.1667
19292TIP3    H179367   1.879   5.520   3.451  1.3203  0.7219  0.7929
19292TIP3    H279368   1.943   5.531   3.314 -1.0977  0.0263 -0.4541
19293TIP3   OH279369   1.101   3.458  14.898 -0.3042  0.1712  0.0716
19293TIP3    H179370   1.062   3.524  14.841  0.7063 -0.2180 -1.1180
19293TIP3    H279371   1.169   3.417  14.845  0.0506 -0.8597  1.2562
19294TIP3   OH279372   3.652   0.231   5.333 -0.0709 -0.3800  0.3506
19294TIP3    H179373   3.727   0.172   5.325  0.6883  0.7540 -1.4770
19294TIP3    H279374   3.576   0.173   5.339  0.7921 -1.5424  0.3948
19295TIP3   OH279375   3.342   0.910  17.066  0.1600  0.9624  0.5576
19295TIP3    H179376   3.357   0.901  17.161 -0.0561 -1.5838  0.4321
19295TIP3    H279377   3.396   0.841  17.027 -1.5238  0.4318 -0.9727
19296TIP3   OH279378   0.551   4.994  12.379  0.3332  0.0278  0.1309
19296TIP3    H179379   0.612   4.930  12.343  0.2588 -0.2042  0.4090
19296TIP3    H279380   0.574   5.076  12.336  0.0178 -0.3127 -0.7072
19297TIP3   OH279381   0.184   2.763  13.482 -0.4108 -0.7831  0.2887
19297TIP3    H179382   0.205   2.855  13.496 -0.4686 -0.6622 -0.4042
19297TIP3    H279383   0.106   2.763  13.427 -0.6097 -1.2449  0.5629
19298TIP3   OH279384   1.168   3.752   3.915  0.4948  0.3963 -0.2738
19298TIP3    H179385   1.196   3.661   3.925 -2.0671 -0.7952 -2.4732
19298TIP3    H279386   1.139   3.778   4.002  1.1844 -0.9126  0.3781
19299TIP3   OH279387   3.672   0.407   0.332  0.0530  0.4459  0.1517
19299TIP3    H179388   3.597   0.399   0.392  0.3367  0.9258  0.5741
19299TIP3    H279389   3.694   0.500   0.335 -1.9397  1.1802 -3.1324
19300TIP3   OH279390   6.133   4.176   4.818 -0.4234  0.0716 -0.0501
19300TIP3    H179391   6.139   4.117   4.893 -2.1230 -1.1448 -0.8143
19300TIP3    H279392   6.056   4.230   4.837 -1.1426 -0.5618 -1.1141
19301TIP3   OH279393   5.407   4.988   5.018 -0.3058 -0.0294 -0.2345
19301TIP3    H179394   5.470   5.057   5.038  1.5209 -1.7138  0.1799
19301TIP3    H279395   5.365   4.968   5.102 -2.0562  1.6257 -0.6507
19302TIP3   OH279396   3.322   0.045  11.529 -0.1933 -0.4295  0.2216
19302TIP3    H179397   3.366   0.130  11.530 -0.7232 -0.1338 -0.6163
19302TIP3    H279398   3.259   0.052  11.458 -1.8383 -0.7159  1.5992
19303TIP3   OH279399   3.596   1.054   2.410  0.0416  0.0793  0.0971
19303TIP3    H179400   3.604   1.042   2.315  0.1701 -0.4024  0.1656
19303TIP3    H279401   3.573   0.967   2.443  0.3636  0.1632  0.5481
19304TIP3   OH279402   5.706   0.970  16.449  0.5597 -0.4623 -0.5661
19304TIP3    H179403   5.742   0.969  16.361  2.9573  0.0306  0.3189
19304TIP3    H279404   5.668   1.058  16.459 -0.5066 -0.8145 -1.3547
19305TIP3   OH279405   0.862   1.924  13.717  0.0553  0.2077 -0.5804
19305TIP3    H179406   0.892   1.898  13.804 -2.3967  0.2189  0.3370
19305TIP3    H279407   0.784   1.977  13.733 -0.8997 -0.4096 -2.8243
19306TIP3   OH279408   0.123   1.992  14.184  0.5594 -0.0208 -0.0811
19306TIP3    H179409   0.212   1.968  14.157 -0.6457 -2.3307 -2.5176
19306TIP3    H279410   0.077   2.008  14.102 -1.3308  1.0079  1.1183
19307TIP3   OH279411   6.053   5.467  10.746  0.0346 -0.6460 -0.4898
19307TIP3    H179412   5.986   5.441  10.810 -0.4379  3.6016  1.0633
19307TIP3    H279413   6.016   5.544  10.703  3.0360  0.5674 -1.1146
19308TIP3   OH279414   0.514   4.115   3.923  0.0177  0.5717  0.1758
19308TIP3    H179415   0.505   4.075   4.010 -1.7081  1.3561  0.4178
19308TIP3    H279416   0.576   4.187   3.936  1.4883 -0.6760  0.2225
19309TIP3   OH279417   4.095   2.294   1.352  0.4279  0.2457  0.1522
19309TIP3    H179418   4.095   2.354   1.427  0.1021 -0.4023  0.6778
19309TIP3    H279419   4.117   2.209   1.390  1.9138  0.2011 -0.7344
19310TIP3   OH279420   5.568   0.904  16.740  0.1949  0.3122 -0.4015
19310TIP3    H179421   5.593   0.995  16.727  2.0089 -0.0167  0.4553
19310TIP3    H279422   5.528   0.878  16.657  0.3651  1.6550 -0.9281
19311TIP3   OH279423   2.524   6.729   2.725 -0.5597 -0.2456 -0.4258
19311TIP3    H179424   2.503   6.713   2.633 -0.1049 -0.5542 -0.4784
19311TIP3    H279425   2.454   6.684   2.773 -0.3532 -0.7727 -0.6098
19312TIP3   OH279426   5.828   3.019  11.392  0.2051 -0.0423 -0.0128
19312TIP3    H179427   5.901   2.969  11.428 -0.7862 -0.4499  1.5332
19312TIP3    H279428   5.841   3.017  11.297  1.1569 -1.7229  0.1276
19313TIP3   OH279429   0.567   2.437  14.300  0.1043  1.0214 -0.0545
19313TIP3    H179430   0.490   2.477  14.340 -0.6164  0.2380 -0.6136
19313TIP3    H279431   0.637   2.450  14.365 -1.4858 -2.1649  2.6186
19314TIP3   OH279432   1.205   4.370  12.566  0.1025 -0.4235  0.1998
19314TIP3    H179433   1.258   4.290  12.568  0.0287 -0.5101 -0.7580
19314TIP3    H279434   1.269   4.441  12.568  0.1439 -0.4802  1.7727
19315TIP3   OH279435   3.325   2.531   6.027 -0.5269 -0.3471  0.0777
19315TIP3    H179436   3.347   2.449   5.983  0.6207  1.3133 -2.7114
19315TIP3    H279437   3.242   2.558   5.987 -0.3391  0.3560  0.1528
19316TIP3   OH279438   3.316   2.500  13.447  0.8014 -0.6489  0.3446
19316TIP3    H179439   3.391   2.466  13.398 -0.5133 -1.2397 -1.3400
19316TIP3    H279440   3.298   2.433  13.512  0.4269 -1.5225 -0.6415
19317TIP3   OH279441   5.715   3.879  13.528 -0.0410  0.1576 -0.6447
19317TIP3    H179442   5.737   3.946  13.593 -1.1648 -0.9177  0.9050
19317TIP3    H279443   5.694   3.929  13.449  1.2020  1.5032 -0.1714
19318TIP3   OH279444   3.912   0.139  15.534 -0.5413 -0.4119 -0.2862
19318TIP3    H179445   3.917   0.197  15.610 -3.0322  0.1827 -0.5115
19318TIP3    H279446   3.862   0.063  15.564 -0.4795 -0.7479 -1.0052
19319TIP3   OH279447   2.403   3.523  15.577  0.1224  0.4940 -0.3780
19319TIP3    H179448   2.462   3.502  15.505 -1.1701 -0.9989 -1.0483
19319TIP3    H279449   2.456   3.509  15.656  0.9253  0.0779 -0.9764
19320TIP3   OH279450   1.309   2.109   3.430 -0.4672 -0.0762  0.7579
19320TIP3    H179451   1.254   2.063   3.366 -1.0840 -0.5568  1.6203
19320TIP3    H279452   1.277   2.199   3.428 -0.2894 -0.0181  0.1916
19321TIP3   OH279453   2.245   1.892  12.365 -0.4122 -0.3025  0.2543
19321TIP3    H179454   2.295   1.955  12.313 -0.4453 -1.0596 -0.7335
19321TIP3    H279455   2.215   1.942  12.441  1.5053  0.2755  0.6942
19322TIP3   OH279456   2.244   4.873   0.017 -0.4520  0.0345  0.1413
19322TIP3    H179457   2.239   4.884   0.112 -1.7558  0.2969  0.0728
19322TIP3    H279458   2.257   4.779   0.003  0.7775  0.1259  0.5813
19323TIP3   OH279459   1.395   0.008   2.660 -0.1407  0.0457 -0.1715
19323TIP3    H179460   1.349   0.049   2.733 -0.4331 -0.2621 -0.1816
19323TIP3    H279461   1.454   0.076   2.627 -0.5810  0.4417 -0.1529
19324TIP3   OH279462   0.063   5.498   3.530  0.0890  0.2524 -0.0450
19324TIP3    H179463   0.073   5.581   3.483  0.0146  1.3662  1.8396
19324TIP3    H279464  -0.013   5.511   3.586  0.5565 -0.8105  0.8649
19325TIP3   OH279465   2.100   6.847   2.679  0.1250 -0.1226 -0.3518
19325TIP3    H179466   2.102   6.922   2.739  0.2090 -0.2861 -0.1524
19325TIP3    H279467   2.130   6.883   2.595 -0.2163  0.1579 -0.3571
19326TIP3   OH279468   0.964   5.683   3.875 -0.0607  0.8643  0.1028
19326TIP3    H179469   1.001   5.594   3.876  0.8025  1.2147  0.3077
19326TIP3    H279470   0.935   5.695   3.785  1.7673  1.1331 -0.4946
19327TIP3   OH279471   4.962   2.611   1.902 -0.1679 -0.0010  0.1863
19327TIP3    H179472   4.989   2.528   1.862  1.1216 -0.0821  1.1484
19327TIP3    H279473   4.869   2.619   1.882  0.1561 -0.6300 -1.7470
19328TIP3   OH279474   0.395   5.726  16.666  0.6898 -0.1950 -0.1579
19328TIP3    H179475   0.422   5.798  16.723  1.1026 -0.0417 -0.5417
19328TIP3    H279476   0.382   5.652  16.725 -0.4267  0.3799  0.3242
19329TIP3   OH279477   5.949   1.283   1.002 -0.1833  0.1963  0.7608
19329TIP3    H179478   5.885   1.352   0.988  0.8888  1.5990  2.3358
19329TIP3    H279479   5.899   1.214   1.047 -1.2743 -0.1261 -0.8714
19330TIP3   OH279480   6.591   3.824  12.597  0.0567 -0.2242  0.0023
19330TIP3    H179481   6.513   3.782  12.559  0.7154  0.1562 -1.8982
19330TIP3    H279482   6.598   3.908  12.552  0.3380  0.7324  1.7569
19331TIP3   OH279483   2.893   0.872  12.863  0.0492  0.0813 -0.1315
19331TIP3    H179484   2.980   0.834  12.846  0.5980  2.0242 -2.1659
19331TIP3    H279485   2.885   0.870  12.958  1.6248 -1.6061  0.0326
19332TIP3   OH279486   6.083   0.807  14.966  0.5399  0.2725  0.0889
19332TIP3    H179487   6.127   0.891  14.953  1.9903 -0.4643  0.0515
19332TIP3    H279488   5.991   0.825  14.948  0.9122  1.7199 -0.4752
19333TIP3   OH279489   0.544   0.124   3.495  0.0358 -0.0796  0.2147
19333TIP3    H179490   0.620   0.095   3.444  0.3674  0.2001  0.5431
19333TIP3    H279491   0.521   0.048   3.549 -1.3914 -0.9864 -1.5586
19334TIP3   OH279492   0.202   0.998  16.213  0.2493 -0.3711 -0.2076
19334TIP3    H179493   0.165   0.931  16.270 -0.0235  0.9527  1.2350
19334TIP3    H279494   0.249   1.057  16.272 -1.0199  1.7050 -1.1233
19335TIP3   OH279495   6.510   2.478  16.537  0.2755  0.0101 -0.7969
19335TIP3    H179496   6.462   2.537  16.479  0.0714  1.1999  0.5017
19335TIP3    H279497   6.443   2.444  16.596  0.7566  0.4947  0.0653
19336TIP3   OH279498   4.127   0.544   5.396  0.5748  0.0302  0.1586
19336TIP3    H179499   4.102   0.465   5.348  0.5133 -0.5884  1.1979
19336TIP3    H279500   4.112   0.523   5.488  0.5593  1.2559  0.4531
19337TIP3   OH279501   5.171   5.766   1.269  0.4740  0.3969  0.4763
19337TIP3    H179502   5.265   5.764   1.249 -0.0317 -0.9747 -2.1312
19337TIP3    H279503   5.132   5.813   1.196 -0.9273  0.5929  1.3274
19338TIP3   OH279504   5.592   6.535   6.313  0.0604  0.5555 -0.4312
19338TIP3    H179505   5.586   6.551   6.407  0.8123  1.3283 -0.4975
19338TIP3    H279506   5.535   6.460   6.297 -1.9393  1.8344  0.2723
19339TIP3   OH279507   0.844   6.005   4.739  0.4422 -0.0516 -0.0805
19339TIP3    H179508   0.752   6.002   4.711  0.6748 -2.8519 -0.8363
19339TIP3    H279509   0.892   6.037   4.663  0.1068  1.6938  0.4081
19340TIP3   OH279510   2.627   0.628  12.276 -0.4616 -0.3358 -0.5276
19340TIP3    H179511   2.697   0.606  12.338 -0.1869  1.3789 -0.1563
19340TIP3    H279512   2.627   0.724  12.275 -3.4024 -0.2440  0.1584
19341TIP3   OH279513   5.335   4.432  10.921  0.2043  0.7021 -0.5861
19341TIP3    H179514   5.389   4.475  10.855 -0.7183 -1.0374 -2.5762
19341TIP3    H279515   5.245   4.455  10.898 -0.1755 -0.5351 -0.4284
19342TIP3   OH279516   4.469   2.149  13.877  0.3971  0.1147  0.1190
19342TIP3    H179517   4.439   2.232  13.914 -2.6091 -0.3580 -0.9006
19342TIP3    H279518   4.516   2.173  13.798  1.3207  0.8853  0.8834
19343TIP3   OH279519   3.659   3.270  14.055 -0.7550 -0.4813 -0.0642
19343TIP3    H179520   3.696   3.313  13.978  1.1836  0.3129  1.2320
19343TIP3    H279521   3.619   3.341  14.106 -0.8311 -0.7931  0.3188
19344TIP3   OH279522   6.071   2.902   3.030 -0.2932 -0.1289  0.3729
19344TIP3    H179523   6.029   2.816   3.026  0.0035 -0.2848  0.5892
19344TIP3    H279524   6.003   2.959   3.066 -0.0664 -0.5511  1.5239
19345TIP3   OH279525   1.160   4.554  14.500  0.0412 -0.2767 -0.4951
19345TIP3    H179526   1.238   4.572  14.553  0.3508  0.6682 -1.2246
19345TIP3    H279527   1.111   4.490  14.550  2.1774 -2.3272 -0.8411
19346TIP3   OH279528   5.476   5.742  14.537  0.1061  0.4467  0.0162
19346TIP3    H179529   5.558   5.791  14.548 -0.4362  1.0360  1.9306
19346TIP3    H279530   5.408   5.809  14.542 -0.5218 -0.0973 -1.0402
19347TIP3   OH279531   5.716   4.382   0.398  0.6143 -0.0822 -0.1535
19347TIP3    H179532   5.676   4.299   0.370 -2.0523  1.6266 -1.7892
19347TIP3    H279533   5.804   4.380   0.361  1.5099 -3.0882  1.7669
19348TIP3   OH279534   5.686   0.887  12.119  0.3406  0.5909  0.5589
19348TIP3    H179535   5.668   0.824  12.049 -0.3843  1.7305 -0.3154
19348TIP3    H279536   5.747   0.950  12.080 -0.7118  1.7018  0.6478
19349TIP3   OH279537   4.843   4.374   0.930 -0.7580 -0.2780  0.1642
19349TIP3    H179538   4.881   4.333   0.852 -0.7584  0.0713 -0.0188
19349TIP3    H279539   4.919   4.395   0.985 -0.7745 -0.7744  0.3848
19350TIP3   OH279540   3.406   4.855  12.350  0.0301  0.2667  0.5641
19350TIP3    H179541   3.492   4.823  12.377  0.5101 -0.9433 -2.0645
19350TIP3    H279542   3.424   4.935  12.301 -0.1625 -0.5279 -0.8759
19351TIP3   OH279543   3.580   0.814  15.638  0.0903 -0.1728 -0.2723
19351TIP3    H179544   3.561   0.901  15.601 -0.8843 -1.1333 -2.1514
19351TIP3    H279545   3.507   0.797  15.697  0.0269  0.0918 -0.2716
19352TIP3   OH279546   5.844   2.704   3.075 -0.3969 -0.3796  0.9062
19352TIP3    H179547   5.897   2.740   3.146  0.4863  1.3450 -0.5252
19352TIP3    H279548   5.876   2.615   3.063  1.7922  0.3858  0.5340
19353TIP3   OH279549   5.871   2.333  15.407  0.1857  0.2258  0.3753
19353TIP3    H179550   5.877   2.282  15.488  1.1826 -0.4899 -0.1261
19353TIP3    H279551   5.870   2.267  15.338 -2.8016  0.7126 -0.1827
19354TIP3   OH279552   4.804   1.422  15.875 -0.4358 -0.5366 -0.5979
19354TIP3    H179553   4.712   1.438  15.855 -0.9154 -0.4042  1.4447
19354TIP3    H279554   4.810   1.328  15.889 -0.6176 -0.3686  0.7323
19355TIP3   OH279555   6.503   5.270   3.740  0.2436 -0.2119  0.0133
19355TIP3    H179556   6.574   5.255   3.677  0.7335 -0.8812  0.7073
19355TIP3    H279557   6.452   5.341   3.702  0.0985 -1.0852 -1.5148
19356TIP3   OH279558   6.274   2.474   2.016 -0.8725  0.1027  0.2094
19356TIP3    H179559   6.309   2.536   1.953 -0.8882  0.1221  0.2196
19356TIP3    H279560   6.350   2.443   2.065 -0.5079 -1.8060 -1.4648
19357TIP3   OH279561   6.156   3.605   2.013  0.6282  0.3367 -0.5437
19357TIP3    H179562   6.106   3.548   1.954  0.3187  1.0601 -0.9833
19357TIP3    H279563   6.135   3.571   2.100  0.2641 -0.0792 -0.7847
19358TIP3   OH279564   2.993   6.647   1.191  0.2286 -0.1889 -0.4364
19358TIP3    H179565   2.957   6.638   1.280  0.5412 -0.5690 -0.3452
19358TIP3    H279566   2.916   6.639   1.134  0.1498 -0.9406 -0.2389
19359TIP3   OH279567   5.483   3.525   2.559  0.0321 -0.0677 -0.1636
19359TIP3    H179568   5.545   3.547   2.489  0.0501 -0.0158 -0.1316
19359TIP3    H279569   5.486   3.430   2.565 -0.6332 -0.1377 -0.8382
19360TIP3   OH279570   0.413   3.906  14.402  0.6290  0.2934  0.7529
19360TIP3    H179571   0.466   3.976  14.366 -0.9858  0.8306 -0.7152
19360TIP3    H279572   0.336   3.903  14.346  0.5434 -2.5443  0.8723
19361TIP3   OH279573   1.006   2.129  11.524 -0.7925 -0.3443 -0.3133
19361TIP3    H179574   1.033   2.201  11.581 -1.9783  1.9962 -2.4630
19361TIP3    H279575   0.972   2.063  11.583  0.7703  0.6340  1.8182
19362TIP3   OH279576   4.460   5.998   0.033 -0.3501  0.1250 -0.8454
19362TIP3    H179577   4.453   6.052   0.112  0.1056 -0.6550 -0.2482
19362TIP3    H279578   4.441   6.058  -0.039  0.3290  1.1244 -0.2243
19363TIP3   OH279579   0.005   3.115   4.465 -0.0681  0.2349  0.2761
19363TIP3    H179580  -0.074   3.169   4.469 -0.0519  0.3165 -0.4308
19363TIP3    H279581   0.074   3.174   4.438 -0.1651 -0.2352 -1.0928
19364TIP3   OH279582   6.372   0.945  13.667  0.3271  0.1891 -0.1483
19364TIP3    H179583   6.436   0.888  13.710 -0.5779 -1.4991 -0.9376
19364TIP3    H279584   6.393   0.937  13.574 -0.7244 -0.0018 -0.3751
19365TIP3   OH279585   1.979   1.381  13.916  0.2240 -0.2625  0.0537
19365TIP3    H179586   2.030   1.456  13.945  0.0512 -0.7252  1.6651
19365TIP3    H279587   1.914   1.417  13.855  0.2429  0.8572  0.6876
19366TIP3   OH279588   6.604   2.124  15.401  0.1580  0.6994 -0.0996
19366TIP3    H179589   6.581   2.059  15.467 -0.1982  1.4924  0.5709
19366TIP3    H279590   6.627   2.202  15.451  3.2283  0.3327 -0.7696
19367TIP3   OH279591   2.148   6.668  14.154  0.1279  0.1220  0.4638
19367TIP3    H179592   2.120   6.759  14.143  0.2348  0.3385  1.7414
19367TIP3    H279593   2.240   6.668  14.127 -0.1646  0.1374 -0.5798
19368TIP3   OH279594   4.465   1.207   0.809 -0.3014 -0.6294 -0.2341
19368TIP3    H179595   4.450   1.293   0.771  2.5424 -0.3897 -1.0515
19368TIP3    H279596   4.403   1.149   0.765  0.7525  0.2349 -3.0120
19369TIP3   OH279597   5.439   3.368   3.992  0.1407 -0.2736 -0.0220
19369TIP3    H179598   5.530   3.355   4.018  0.4042  0.5842 -0.4634
19369TIP3    H279599   5.392   3.383   4.074  0.6137  0.4464  0.1264
19370TIP3   OH279600   5.120   5.595  15.684  0.0291 -0.3702 -0.5979
19370TIP3    H179601   5.068   5.620  15.609  0.0508  1.1086 -0.1477
19370TIP3    H279602   5.211   5.613  15.658  0.2366 -1.7693 -0.9301
19371TIP3   OH279603   5.162   6.733   0.469 -0.3870 -0.3720  0.6639
19371TIP3    H179604   5.138   6.665   0.407 -0.8437 -0.3106  0.7645
19371TIP3    H279605   5.207   6.800   0.417 -1.0464 -0.1737  0.3404
19372TIP3   OH279606   0.233   5.574   5.551  0.4831  0.0120 -0.0472
19372TIP3    H179607   0.312   5.622   5.579 -0.4689  2.1657 -0.7898
19372TIP3    H279608   0.190   5.548   5.632  0.9771  0.5532  0.3950
19373TIP3   OH279609   2.844   2.362   3.200 -0.2806  0.0458 -0.5134
19373TIP3    H179610   2.936   2.355   3.226 -0.0603 -2.6031 -1.7026
19373TIP3    H279611   2.796   2.363   3.283  0.7125 -1.8713  0.1596
19374TIP3   OH279612   6.815   6.061   3.772 -0.5004 -0.1126  0.0404
19374TIP3    H179613   6.828   5.985   3.829 -1.1193 -1.1401 -1.1441
19374TIP3    H279614   6.877   6.048   3.700  0.5030  1.3340  0.6067
19375TIP3   OH279615   2.107   5.238   6.066  0.0551  0.7654 -0.1387
19375TIP3    H179616   2.202   5.235   6.058 -0.0674 -1.5388 -1.8345
19375TIP3    H279617   2.086   5.176   6.135 -0.2672 -0.4323 -1.2677
19376TIP3   OH279618   5.250   6.692  15.682  0.1403 -0.5960 -0.6205
19376TIP3    H179619   5.292   6.655  15.760  0.2982 -0.7835 -0.7952
19376TIP3    H279620   5.289   6.779  15.674  1.4859 -1.2570 -1.5399
19377TIP3   OH279621   3.033   5.604  16.822  0.7075  0.3462 -0.2182
19377TIP3    H179622   3.069   5.597  16.733 -0.3700 -1.0524 -0.5841
19377TIP3    H279623   3.034   5.514  16.855 -2.0607  0.2640 -0.1365
19378TIP3   OH279624   0.060   5.449  13.872 -0.2214  0.6740  0.6179
19378TIP3    H179625   0.082   5.401  13.952 -1.8525  0.2999  0.8917
19378TIP3    H279626   0.036   5.537  13.903 -2.9086 -0.0547  0.8817
19379TIP3   OH279627   0.734   3.403  12.760 -0.1052  0.2734 -0.3152
19379TIP3    H179628   0.782   3.328  12.794 -1.3382 -0.4961 -0.1890
19379TIP3    H279629   0.789   3.478  12.781  1.6932 -0.6611 -1.4287
19380TIP3   OH279630   1.706   4.021   5.208  1.0041 -0.5011  0.0696
19380TIP3    H179631   1.750   4.105   5.194  1.5478 -0.7597  0.1792
19380TIP3    H279632   1.737   3.992   5.294  0.0609 -0.3596  0.4646
19381TIP3   OH279633   4.268   5.899  14.886 -0.9026 -0.1818 -0.6548
19381TIP3    H179634   4.280   5.983  14.841  1.5570 -0.8152 -1.3301
19381TIP3    H279635   4.356   5.865  14.897 -1.7957 -2.4235  0.1490
19382TIP3   OH279636   0.002   3.602   2.158  0.1115  0.3324  0.3240
19382TIP3    H179637  -0.048   3.575   2.081  0.5122  0.2762  0.0765
19382TIP3    H279638   0.004   3.698   2.152  0.6263  0.3057 -0.0575
19383TIP3   OH279639   1.051   2.937   1.032 -0.5906  0.1978  0.1595
19383TIP3    H179640   1.060   3.032   1.041  0.4357 -0.0342  2.1311
19383TIP3    H279641   0.975   2.925   0.975 -1.1760  2.1903  0.4609
19384TIP3   OH279642   2.581   4.318  15.144  0.2930 -0.0206  0.2294
19384TIP3    H179643   2.635   4.301  15.067 -2.2711 -3.7752 -1.0435
19384TIP3    H279644   2.630   4.279  15.216  0.7650 -0.4842 -0.3306
19385TIP3   OH279645   0.500   4.770   5.153 -0.1051  0.0007  0.5064
19385TIP3    H179646   0.433   4.762   5.221 -0.2626  3.5877  0.9575
19385TIP3    H279647   0.582   4.748   5.197 -0.3977  0.6970  1.4224
19386TIP3   OH279648   0.457   4.729  16.943  0.0389 -0.6845 -0.2919
19386TIP3    H179649   0.465   4.799  16.879 -0.3144 -0.1956  0.1923
19386TIP3    H279650   0.547   4.713  16.972  0.1228 -0.4347 -0.4100
19387TIP3   OH279651   0.312   3.805   0.550 -0.4697  0.3878 -0.0066
19387TIP3    H179652   0.364   3.731   0.521 -1.2109 -0.4564  0.7703
19387TIP3    H279653   0.263   3.831   0.472  1.7167  1.7884 -1.0125
19388TIP3   OH279654   3.218   5.482   4.929 -0.2251 -0.4613 -0.2205
19388TIP3    H179655   3.229   5.414   4.995 -0.6880 -0.3820 -0.0538
19388TIP3    H279656   3.128   5.512   4.941  0.0712  0.4045 -0.0708
19389TIP3   OH279657   2.042   2.406  12.692  0.0761  0.1810  0.3037
19389TIP3    H179658   2.110   2.439  12.633  0.4299  1.0629  1.1787
19389TIP3    H279659   1.997   2.339  12.641  1.3956 -0.1974 -0.4112
19390TIP3   OH279660   5.593   0.325  10.584  0.3521 -0.5256 -0.4052
19390TIP3    H179661   5.531   0.363  10.522 -0.3343 -2.7412 -1.1555
19390TIP3    H279662   5.560   0.237  10.601  1.6461 -0.6971  1.5567
19391TIP3   OH279663   0.489   1.535  13.882  0.3971 -0.2086  0.1267
19391TIP3    H179664   0.421   1.500  13.940 -0.6104  0.6898 -0.4796
19391TIP3    H279665   0.462   1.508  13.794  0.8564  0.1114 -0.1166
19392TIP3   OH279666   1.168   2.879  13.782  0.0387  0.6385 -0.5370
19392TIP3    H179667   1.117   2.875  13.863 -0.3341  0.0722 -0.7891
19392TIP3    H279668   1.170   2.971  13.759  1.5669  1.0568  0.9999
19393TIP3   OH279669   0.968   6.717  12.400  0.1601  0.0711 -0.5526
19393TIP3    H179670   1.061   6.730  12.381  0.0653  0.0448 -1.0730
19393TIP3    H279671   0.929   6.701  12.314 -0.0716 -1.5936 -0.1649
19394TIP3   OH279672   5.501   5.276  16.139 -0.2548 -0.3481  0.5658
19394TIP3    H179673   5.446   5.222  16.081 -1.4864  1.3464  0.0485
19394TIP3    H279674   5.439   5.331  16.186  0.9332  0.5936  1.0892
19395TIP3   OH279675   3.529   6.850  16.846 -0.2571  0.1499  0.0015
19395TIP3    H179676   3.617   6.877  16.817  0.5141 -1.6782  0.5066
19395TIP3    H279677   3.525   6.875  16.938 -0.6115  1.0037 -0.2363
19396TIP3   OH279678   0.773   2.924   5.883 -0.5674  0.0492  0.4083
19396TIP3    H179679   0.841   2.924   5.950 -0.1217  0.2150 -0.0332
19396TIP3    H279680   0.770   3.014   5.851 -0.5257 -0.0993 -0.0343
19397TIP3   OH279681   4.114   6.657   3.610 -0.3993  0.0523 -0.0932
19397TIP3    H179682   4.096   6.684   3.700 -1.0441  1.3522 -0.5905
19397TIP3    H279683   4.045   6.699   3.558  0.3090 -0.1926 -1.2613
19398TIP3   OH279684   4.992   5.413   1.901 -0.2521 -0.0125 -0.0327
19398TIP3    H179685   4.939   5.491   1.884 -0.5713 -0.3838 -0.7866
19398TIP3    H279686   5.081   5.439   1.881 -0.3777  0.1211 -0.4123
19399TIP3   OH279687   0.207   0.083  15.235 -0.4280  0.4101 -0.0282
19399TIP3    H179688   0.279   0.106  15.177 -0.7303  1.7939  0.0988
19399TIP3    H279689   0.129   0.113  15.190 -0.8187 -0.0016  0.3621
19400TIP3   OH279690   6.693   1.784  15.340  0.9541 -0.0420 -0.1504
19400TIP3    H179691   6.687   1.707  15.283  3.3776 -0.6973  0.3447
19400TIP3    H279692   6.735   1.851  15.285  1.4051 -0.0059  0.2283
19401TIP3   OH279693   0.516   2.914   3.530 -0.2055 -0.1111  0.1562
19401TIP3    H179694   0.508   2.946   3.440  1.6850 -0.1316 -0.0559
19401TIP3    H279695   0.586   2.848   3.526  0.6404  0.6200  1.7976
19402TIP3   OH279696   4.998   4.932   5.650 -0.1670  0.7166  0.2972
19402TIP3    H179697   4.932   4.885   5.701 -0.7670  1.0507 -0.1612
19402TIP3    H279698   5.078   4.880   5.661  0.1555  1.6295  2.8780
19403TIP3   OH279699   3.674   0.216  15.821 -0.2716  0.3233  0.1943
19403TIP3    H179700   3.766   0.216  15.794 -0.5047 -1.6423 -0.7772
19403TIP3    H279701   3.673   0.266  15.903  1.4018  1.6062 -0.4993
19404TIP3   OH279702   2.126   5.840  13.588  0.4862  0.2857  0.0384
19404TIP3    H179703   2.060   5.905  13.613 -2.2980 -1.8737 -1.2244
19404TIP3    H279704   2.171   5.819  13.671 -0.6048  1.5821  1.0017
19405TIP3   OH279705   0.895   2.071  12.892  0.5496 -0.0055 -0.1711
19405TIP3    H179706   0.849   2.151  12.865  0.6697  1.2511  2.9074
19405TIP3    H279707   0.980   2.076  12.849  0.1075  0.8890 -0.9849
19406TIP3   OH279708   3.708   2.013  11.242  0.2917  0.1344  0.1112
19406TIP3    H179709   3.636   2.054  11.194  0.5923 -1.2578 -1.6439
19406TIP3    H279710   3.695   1.919  11.229  0.3551 -0.3494  2.9130
19407TIP3   OH279711   5.170   6.015   5.965 -0.1038  0.1013 -0.4403
19407TIP3    H179712   5.112   6.084   5.932  0.5233  0.0942 -1.5995
19407TIP3    H279713   5.230   5.997   5.893 -0.4220 -1.8595 -0.2689
19408TIP3   OH279714   3.504   4.016  11.921 -0.2335  0.0796 -0.6406
19408TIP3    H179715   3.438   4.081  11.945 -0.1135 -0.1454  0.3384
19408TIP3    H279716   3.573   4.027  11.987  0.0394 -0.6595 -0.7971
19409TIP3   OH279717   3.640   3.594   5.932 -0.0132 -0.2245  0.2823
19409TIP3    H179718   3.579   3.577   6.004 -2.6564  1.8282 -1.2745
19409TIP3    H279719   3.585   3.629   5.862  2.5136 -1.4994 -2.5579
19410TIP3   OH279720   1.574   3.832  16.563  0.2237 -0.0672 -0.1076
19410TIP3    H179721   1.484   3.857  16.584  0.4862 -0.7136  1.9182
19410TIP3    H279722   1.585   3.745  16.602  1.5431 -0.2943 -0.9131
19411TIP3   OH279723   2.151   2.418  11.384 -0.0679 -0.1281 -0.6177
19411TIP3    H179724   2.143   2.378  11.298  2.8355 -0.7883 -0.6889
19411TIP3    H279725   2.125   2.509  11.371 -0.4711 -0.4278 -1.9936
19412TIP3   OH279726   4.510   5.657   4.591  0.1766 -0.2055  0.4731
19412TIP3    H179727   4.558   5.702   4.661  1.6013 -2.3211  0.9480
19412TIP3    H279728   4.451   5.598   4.637 -0.9102  0.3751 -0.1376
19413TIP3   OH279729   4.065   0.768  12.959  0.0825  0.2259  0.3527
19413TIP3    H179730   3.980   0.795  12.992 -0.0464  0.2382  0.0160
19413TIP3    H279731   4.045   0.698  12.896  0.3507 -0.0718  0.5960
19414TIP3   OH279732   1.405   6.271   0.333  0.1033 -0.4598 -0.1528
19414TIP3    H179733   1.326   6.241   0.289  1.0104 -4.0998  0.3793
19414TIP3    H279734   1.373   6.319   0.410 -1.4664  1.9955 -2.1885
19415TIP3   OH279735   0.999   6.269  15.671 -0.9775  0.1685  0.6599
19415TIP3    H179736   0.961   6.188  15.706 -0.7018 -0.6097 -0.7810
19415TIP3    H279737   1.092   6.248  15.658 -0.8534  0.7947  0.5059
19416TIP3   OH279738   6.478   0.169   4.067 -0.2947 -0.3587  0.3084
19416TIP3    H179739   6.557   0.185   4.118 -0.9274  0.9793  0.8997
19416TIP3    H279740   6.494   0.214   3.984 -0.5348  0.1402  0.5295
19417TIP3   OH279741   1.243   6.659   0.888  0.2071 -0.1327 -0.1954
19417TIP3    H179742   1.221   6.711   0.965  1.2550 -1.0157  0.7444
19417TIP3    H279743   1.188   6.694   0.819 -1.8227 -0.2266  1.2722
19418TIP3   OH279744   5.238   0.231   5.008  0.2601 -0.1960 -0.1951
19418TIP3    H179745   5.317   0.247   4.956  1.4554 -0.1864  1.5287
19418TIP3    H279746   5.166   0.251   4.949  1.5477  0.1315 -1.7278
19419TIP3   OH279747   0.865   0.721  11.197  0.2163  0.7383 -0.2605
19419TIP3    H179748   0.878   0.816  11.195  1.2400  0.6823  1.2709
19419TIP3    H279749   0.939   0.686  11.149  1.3262  0.6733  1.4126
19420TIP3   OH279750   0.292   0.618   6.105  0.6243  0.1490  0.0772
19420TIP3    H179751   0.240   0.603   6.184  1.2436 -1.5854  0.2106
19420TIP3    H279752   0.381   0.629   6.137  0.6236  1.3102 -0.2753
19421TIP3   OH279753   0.541   0.854  14.568 -0.4035 -0.0174 -0.5671
19421TIP3    H179754   0.503   0.898  14.491 -1.4564 -0.1977 -0.1687
19421TIP3    H279755   0.606   0.795  14.531 -0.9305 -0.1410 -1.3374
19422TIP3   OH279756   6.293   4.932  15.492  0.6588  0.3358  0.4113
19422TIP3    H179757   6.382   4.957  15.466  1.2979  0.1716  2.3181
19422TIP3    H279758   6.299   4.838  15.509 -0.5376 -0.2301 -1.8880
19423TIP3   OH279759   0.778   5.371  12.508 -0.6829  0.1334  0.0707
19423TIP3    H179760   0.693   5.409  12.486 -0.4461  0.7828  0.2570
19423TIP3    H279761   0.789   5.299  12.446 -1.4052 -0.0057  0.0980
19424TIP3   OH279762   3.380   6.075   1.083 -0.3402  0.1935  0.2295
19424TIP3    H179763   3.352   5.990   1.117  0.6802 -0.1291  0.3061
19424TIP3    H279764   3.411   6.056   0.994  2.6653 -0.1300  1.2205
19425TIP3   OH279765   2.616   6.342  15.775  0.3799  0.2307 -0.7839
19425TIP3    H179766   2.592   6.250  15.762 -0.7690  0.3724  0.1142
19425TIP3    H279767   2.595   6.359  15.867  1.2427  1.2043 -0.7533
19426TIP3   OH279768   3.210   2.213   6.036  0.1702  0.4532 -0.8431
19426TIP3    H179769   3.273   2.189   6.104 -0.5844 -1.5052 -0.7821
19426TIP3    H279770   3.265   2.241   5.962  1.2152 -2.0206 -1.1027
19427TIP3   OH279771   2.806   6.593  16.802  0.3184 -0.3177 -0.2970
19427TIP3    H179772   2.871   6.638  16.856  0.6532 -1.4426  0.2775
19427TIP3    H279773   2.813   6.634  16.716  2.1052 -0.6884 -0.3647
19428TIP3   OH279774   4.767   2.955   1.437 -0.1032  0.0378 -0.3118
19428TIP3    H179775   4.797   2.870   1.469  1.2638  0.1664 -1.1764
19428TIP3    H279776   4.843   3.013   1.447 -1.1709  1.3391  0.7917
19429TIP3   OH279777   2.132   0.079   3.783 -0.4191  0.3567 -0.7048
19429TIP3    H179778   2.151   0.153   3.841  0.3660 -0.7913  0.5712
19429TIP3    H279779   2.204   0.078   3.720  1.0111 -0.7750  0.8395
19430TIP3   OH279780   2.736   0.914   3.277  0.0288  0.4751 -0.0327
19430TIP3    H179781   2.743   0.829   3.233  0.4008  0.3525  0.2632
19430TIP3    H279782   2.766   0.898   3.367 -0.6535  0.7386  0.2516
19431TIP3   OH279783   0.602   5.919  15.696 -0.4189 -0.3561  0.1987
19431TIP3    H179784   0.633   5.859  15.628 -1.8298 -1.0641  0.1535
19431TIP3    H279785   0.581   6.000  15.649  1.5895  0.2758  0.2762
19432TIP3   OH279786   2.203   4.169   4.162 -0.9392 -0.4681  0.0063
19432TIP3    H179787   2.120   4.125   4.144 -0.3685 -0.9986 -1.5119
19432TIP3    H279788   2.232   4.201   4.077 -0.7418  1.8854  0.8650
19433TIP3   OH279789   4.582   1.002  12.621  0.2198  0.0274  0.3640
19433TIP3    H179790   4.491   0.983  12.645 -0.2531 -2.1623 -2.6420
19433TIP3    H279791   4.631   0.925  12.649  0.3483 -0.6952 -1.6990
19434TIP3   OH279792   5.788   3.251  10.902 -0.0053 -0.3435 -0.5467
19434TIP3    H179793   5.872   3.224  10.864  0.8576  0.4872  0.6648
19434TIP3    H279794   5.772   3.338  10.866 -0.6653 -0.7423 -1.2362
19435TIP3   OH279795   0.598   1.102   2.137  0.0521  0.0964 -0.2401
19435TIP3    H179796   0.564   1.168   2.076  0.6064  0.4433 -0.1748
19435TIP3    H279797   0.519   1.060   2.173 -0.3009 -1.3099 -2.4555
19436TIP3   OH279798   5.448   0.859   3.561  0.1465 -0.0857  0.0780
19436TIP3    H179799   5.413   0.860   3.471 -0.8488 -0.3593  0.4496
19436TIP3    H279800   5.539   0.887   3.551  0.2743 -0.8282 -1.1081
19437TIP3   OH279801   2.353   6.144   2.442 -0.3724  0.0083 -0.0916
19437TIP3    H179802   2.263   6.137   2.411 -0.7818  0.8015  0.8575
19437TIP3    H279803   2.358   6.083   2.516  0.5957 -1.8835 -1.6260
19438TIP3   OH279804   2.017   3.436  14.013  0.4463 -0.2454 -0.5353
19438TIP3    H179805   2.088   3.411  13.954  0.2369 -1.6110 -0.2368
19438TIP3    H279806   2.059   3.443  14.099  0.2631 -0.8727 -0.3911
19439TIP3   OH279807   2.709   0.741  15.330  0.3036 -0.1851 -0.0991
19439TIP3    H179808   2.709   0.686  15.409  1.4592 -1.7522 -1.1060
19439TIP3    H279809   2.715   0.830  15.362 -1.9335 -0.5841  1.6428
19440TIP3   OH279810   3.911   4.026  12.705  0.7882  0.5308  0.7374
19440TIP3    H179811   3.875   4.082  12.775 -2.1020 -1.7610  1.2875
19440TIP3    H279812   3.944   3.949  12.751 -0.8882 -0.8739 -0.2806
19441TIP3   OH279813   5.927   2.948  12.412  0.3616 -0.0777  0.4147
19441TIP3    H179814   5.947   3.035  12.446 -2.7075  1.7458 -1.9625
19441TIP3    H279815   5.950   2.952  12.319  0.3934 -1.9082  0.3077
19442TIP3   OH279816   3.702   4.654  14.723  0.9722 -0.1834  0.2184
19442TIP3    H179817   3.639   4.709  14.771 -0.3207 -1.2964 -0.1470
19442TIP3    H279818   3.748   4.606  14.792 -1.0406 -1.9484  0.4357
19443TIP3   OH279819   5.512   4.905  10.915  0.0753 -0.2709  0.1631
19443TIP3    H179820   5.502   4.833  10.977 -0.1059  0.5805  1.1502
19443TIP3    H279821   5.513   4.984  10.969  0.4886  0.4677 -0.8719
19444TIP3   OH279822   0.764   0.034   4.721 -0.3355 -0.6209 -0.3297
19444TIP3    H179823   0.746   0.118   4.678 -0.1953  1.9563  4.0484
19444TIP3    H279824   0.679  -0.011   4.720 -1.8982  2.0043  1.7153
19445TIP3   OH279825   3.260   5.542   1.334  0.4131  0.6143  0.6486
19445TIP3    H179826   3.328   5.533   1.267 -0.5761 -2.1480 -0.0764
19445TIP3    H279827   3.297   5.499   1.411 -0.2926 -0.4159  0.4168
19446TIP3   OH279828   0.618   1.039  10.822 -0.3130 -0.2166  0.2616
19446TIP3    H179829   0.602   1.122  10.777 -0.4553 -0.3499  0.0637
19446TIP3    H279830   0.668   0.987  10.760 -1.3572 -0.7681 -0.1401
19447TIP3   OH279831   3.582   5.039  16.639  0.6059  0.5223 -0.0190
19447TIP3    H179832   3.665   5.081  16.616  1.6303 -1.8659 -1.0909
19447TIP3    H279833   3.604   4.945  16.643 -1.7201 -0.0392  1.2544
19448TIP3   OH279834   1.440   2.591  11.630 -0.0586 -0.0014  0.0078
19448TIP3    H179835   1.363   2.535  11.625  0.3580 -0.5877  0.0456
19448TIP3    H279836   1.507   2.545  11.579 -0.1447  1.2102 -1.2873
19449TIP3   OH279837   5.960   3.091  15.852 -0.1173 -0.1323 -0.1373
19449TIP3    H179838   6.026   3.156  15.877  0.7260 -0.7975 -0.5727
19449TIP3    H279839   5.972   3.020  15.915 -0.5905 -0.1509 -0.0674
19450TIP3   OH279840   4.774   4.443   2.428 -0.4930 -0.5099 -0.0475
19450TIP3    H179841   4.800   4.406   2.512 -0.8173  1.6356  1.0763
19450TIP3    H279842   4.699   4.391   2.401 -0.6444 -0.9839  1.2053
19451TIP3   OH279843   5.070   2.113  10.742 -0.8002  0.8370 -0.2237
19451TIP3    H179844   5.084   2.181  10.808  0.2772  0.0998  0.3269
19451TIP3    H279845   5.138   2.128  10.676  1.0631 -1.1331  1.1231
19452TIP3   OH279846   0.654   5.534  16.802  0.0307  0.0970  0.3479
19452TIP3    H179847   0.562   5.531  16.829  0.0396 -1.4983  0.2932
19452TIP3    H279848   0.702   5.497  16.876  0.4323 -0.7744 -0.3329
19453TIP3   OH279849   1.423   4.639   1.660 -0.1500  0.0770  0.4595
19453TIP3    H179850   1.496   4.685   1.619 -0.9425  0.7788 -0.1914
19453TIP3    H279851   1.400   4.570   1.598 -0.1832 -0.0046  0.5613
19454TIP3   OH279852   3.482   0.296  10.609 -0.0936  0.3265 -0.0058
19454TIP3    H179853   3.501   0.243  10.686  0.4158  1.2498  0.5084
19454TIP3    H279854   3.538   0.372  10.617  0.0126  0.4090 -1.3296
19455TIP3   OH279855   5.807   2.805  11.691 -0.4550  0.4588  0.2499
19455TIP3    H179856   5.736   2.741  11.688  0.4837 -0.5741 -0.9284
19455TIP3    H279857   5.766   2.884  11.726 -1.9517 -0.3826  0.5037
19456TIP3   OH279858   4.366   2.252   1.590 -0.0413  0.1960 -0.0650
19456TIP3    H179859   4.294   2.315   1.584 -0.9694 -0.9581 -1.6982
19456TIP3    H279860   4.325   2.167   1.572  1.6767 -0.5298 -0.6810
19457TIP3   OH279861   0.825   1.241   1.813  0.1723 -0.3024 -0.0844
19457TIP3    H179862   0.834   1.147   1.828 -0.0691 -0.2209  0.6280
19457TIP3    H279863   0.758   1.249   1.745  1.7908 -0.7179 -1.7910
19458TIP3   OH279864   3.716   6.203   3.054 -0.1598 -1.1865  0.1929
19458TIP3    H179865   3.634   6.154   3.049  0.1376 -1.6286 -0.5024
19458TIP3    H279866   3.705   6.275   2.991 -1.0541  0.3827  2.0431
19459TIP3   OH279867   3.234   5.508   4.095 -0.1296  0.1882  0.0883
19459TIP3    H179868   3.239   5.450   4.019  1.5105 -2.4911  2.0458
19459TIP3    H279869   3.321   5.546   4.102  0.3911 -1.1743  1.6775
19460TIP3   OH279870   5.122   0.562   5.443  0.2782  0.0191 -0.1025
19460TIP3    H179871   5.087   0.494   5.501 -1.8164  1.8328  0.8981
19460TIP3    H279872   5.162   0.513   5.371 -3.1608 -2.3510 -0.6543
19461TIP3   OH279873   3.629   0.965   5.172  0.1757 -0.2386  0.7822
19461TIP3    H179874   3.632   0.887   5.117 -2.0674 -0.0757  0.3207
19461TIP3    H279875   3.660   1.036   5.116  0.8141 -0.5503  0.7352
19462TIP3   OH279876   4.167   5.381   1.321  0.4646  0.1727 -0.1326
19462TIP3    H179877   4.074   5.385   1.342 -0.3439  0.7620 -3.3217
19462TIP3    H279878   4.203   5.461   1.359 -1.3320  2.3525 -2.6293
19463TIP3   OH279879   0.595   2.269   3.053 -0.1323  0.1768  0.1419
19463TIP3    H179880   0.602   2.204   2.984 -0.2917 -0.9313  1.1404
19463TIP3    H279881   0.539   2.228   3.119  0.4618  0.9879  1.1708
19464TIP3   OH279882   1.289   5.850  10.507 -0.1707 -0.4359  0.0938
19464TIP3    H179883   1.304   5.860  10.413  0.6121 -2.5192 -0.0626
19464TIP3    H279884   1.209   5.797  10.514  0.1093 -0.8168  0.5534
19465TIP3   OH279885   3.650   4.272   1.838 -0.1390 -0.0445  0.2672
19465TIP3    H179886   3.696   4.268   1.754  1.6574  1.0635  1.1403
19465TIP3    H279887   3.568   4.318   1.818  0.0857 -0.1444 -0.9472
19466TIP3   OH279888   0.409   6.595  15.663  0.5065  0.1889  0.2714
19466TIP3    H179889   0.363   6.675  15.638  0.5784 -0.1308 -0.9459
19466TIP3    H279890   0.455   6.568  15.583  1.5010 -0.3780  1.0206
19467TIP3   OH279891   0.811   1.708   3.856  0.5936  0.4592 -0.8414
19467TIP3    H179892   0.806   1.751   3.771 -0.1622  0.3300 -0.8660
19467TIP3    H279893   0.721   1.688   3.878  0.9442 -1.3511 -0.9324
19468TIP3   OH279894   6.570   4.638  13.208 -0.3188  1.3630  0.5051
19468TIP3    H179895   6.611   4.714  13.250 -0.2384  1.6310 -0.0494
19468TIP3    H279896   6.546   4.669  13.121 -1.1976  1.0433  0.6253
19469TIP3   OH279897   2.101   3.696   1.933  0.1560  0.7002 -0.2060
19469TIP3    H179898   2.088   3.633   1.863  0.5729 -1.0331  1.2093
19469TIP3    H279899   2.194   3.688   1.956  0.2462  1.9285 -0.0587
19470TIP3   OH279900   5.624   1.150  13.870  0.5606  0.6498 -0.4905
19470TIP3    H179901   5.691   1.105  13.818 -0.0593 -0.2729 -0.5043
19470TIP3    H279902   5.550   1.159  13.810  1.1818  3.1443 -1.0238
19471TIP3   OH279903   4.297   3.115   0.327 -0.2739 -0.2004 -0.2220
19471TIP3    H179904   4.257   3.185   0.377  0.0189  0.0389 -0.3179
19471TIP3    H279905   4.224   3.069   0.286 -0.4933 -0.2218  0.1917
19472TIP3   OH279906   2.700   1.434   6.467  0.1187 -0.3331  0.1045
19472TIP3    H179907   2.656   1.357   6.432  0.3188  0.5258 -2.2461
19472TIP3    H279908   2.629   1.494   6.492 -0.0367 -0.7006  0.5426
19473TIP3   OH279909   0.398   0.138  15.806 -0.7690  0.3519 -0.0665
19473TIP3    H179910   0.332   0.187  15.854  0.3458  1.1803  0.6569
19473TIP3    H279911   0.477   0.192  15.810  0.5583 -1.5362  0.9040
19474TIP3   OH279912   1.624   0.670  16.241 -0.3075  0.4629  0.0912
19474TIP3    H179913   1.680   0.700  16.170  0.4984  0.3572  0.6725
19474TIP3    H279914   1.685   0.643  16.310 -1.0332 -1.0759  0.1728
19475TIP3   OH279915   2.192   1.633   2.502 -0.1286 -0.1049 -0.1669
19475TIP3    H179916   2.162   1.542   2.503  0.4530 -0.3013  0.4045
19475TIP3    H279917   2.112   1.685   2.505 -0.4395 -0.6115  0.7520
19476TIP3   OH279918   6.137   5.442  16.666 -0.5925  0.4503  0.2013
19476TIP3    H179919   6.093   5.438  16.750 -0.1938 -1.0453  0.3609
19476TIP3    H279920   6.119   5.358  16.624  2.5442 -0.5633  0.5547
19477TIP3   OH279921   3.191   2.883   0.549 -0.6193 -0.5061 -0.2850
19477TIP3    H179922   3.180   2.918   0.638  0.3351 -0.1791 -0.2838
19477TIP3    H279923   3.114   2.914   0.501 -0.0135  1.2756 -0.1719
19478TIP3   OH279924   2.859   1.051  15.682  0.6808  0.1013  0.3685
19478TIP3    H179925   2.765   1.042  15.665  0.5521 -0.4822  1.2684
19478TIP3    H279926   2.863   1.085  15.772  1.3335  0.5390  0.1823
19479TIP3   OH279927   5.748   2.508   0.526 -0.6136 -0.1553 -0.1178
19479TIP3    H179928   5.830   2.534   0.568 -0.4477  0.2890 -0.7028
19479TIP3    H279929   5.734   2.574   0.458 -3.6136  2.2660  2.5217
19480TIP3   OH279930   1.888   4.010  14.611  0.3638 -0.1207 -0.0250
19480TIP3    H179931   1.870   4.097  14.574  1.6410 -0.0353 -0.5194
19480TIP3    H279932   1.974   4.019  14.651  0.3120 -1.0461  0.3182
19481TIP3   OH279933   6.688   3.384  16.798  0.4017  0.1329 -0.0836
19481TIP3    H179934   6.776   3.348  16.787  0.3933  0.6178 -2.2850
19481TIP3    H279935   6.638   3.315  16.842  1.8980 -0.0743  1.3709
19482TIP3   OH279936   5.192   6.763   3.237 -0.2069 -0.2895 -0.1352
19482TIP3    H179937   5.159   6.798   3.154  0.7574  2.1501  0.4360
19482TIP3    H279938   5.114   6.750   3.291 -0.5647  2.7053  0.2121
19483TIP3   OH279939   3.419   1.582  15.066  0.1459 -0.4370  0.1470
19483TIP3    H179940   3.495   1.566  15.009  1.4987  3.4139  0.5419
19483TIP3    H279941   3.347   1.599  15.006  1.1588  1.8860 -0.5459
19484TIP3   OH279942   0.371   6.294  13.881  0.2946 -0.2975  0.1922
19484TIP3    H179943   0.391   6.324  13.969 -0.3078  1.7328 -0.3126
19484TIP3    H279944   0.431   6.221  13.866  0.2803 -0.8184  2.3231
19485TIP3   OH279945   0.785   5.542   4.336  0.2649 -0.1343  0.8582
19485TIP3    H179946   0.746   5.474   4.391  0.8364 -0.2148  1.1748
19485TIP3    H279947   0.745   5.528   4.250  1.1300 -1.5642  0.6428
19486TIP3   OH279948   2.077   5.381   5.128  0.2292  0.0828  0.4778
19486TIP3    H179949   2.131   5.405   5.053  1.3156 -0.8683  0.9199
19486TIP3    H279950   2.032   5.462   5.152 -0.2934  0.3522 -1.3011
19487TIP3   OH279951   2.658   6.238   1.339 -0.4182  0.2885 -0.2130
19487TIP3    H179952   2.740   6.188   1.339  0.7969  2.1602  0.2610
19487TIP3    H279953   2.621   6.223   1.253 -0.3700 -1.7859  0.0748
19488TIP3   OH279954   5.869   4.930   4.612 -0.3804  0.3364 -0.0659
19488TIP3    H179955   5.946   4.916   4.666  0.3249 -0.5410 -1.2394
19488TIP3    H279956   5.818   4.997   4.658  0.2706 -0.2460  1.5570
19489TIP3   OH279957   6.761   3.054   2.655 -0.2373 -0.0195 -0.0439
19489TIP3    H179958   6.802   2.994   2.593  0.9838  0.9347 -0.1994
19489TIP3    H279959   6.800   3.030   2.740 -0.1497  0.2144 -0.0193
19490TIP3   OH279960   4.172   3.689  11.434 -0.0565 -0.1111  0.5997
19490TIP3    H179961   4.254   3.684  11.384 -0.0601  0.8192  0.4850
19490TIP3    H279962   4.185   3.629  11.507 -0.0087 -1.4306 -0.4385
19491TIP3   OH279963   6.260   4.620  13.692  0.2945 -0.0774 -0.0477
19491TIP3    H179964   6.344   4.575  13.678  1.6134  1.9635  0.8383
19491TIP3    H279965   6.242   4.607  13.786 -1.8262 -2.7405 -0.7108
19492TIP3   OH279966   6.082   2.959  16.427 -0.5765  0.2306 -0.5481
19492TIP3    H179967   6.015   3.025  16.406 -0.5691  0.4730  0.1406
19492TIP3    H279968   6.151   3.009  16.470  1.0710  0.3579 -3.1472
19493TIP3   OH279969   2.881   2.882   4.337  0.2731  0.1269  0.4601
19493TIP3    H179970   2.854   2.843   4.253  1.3149 -2.9926  1.4462
19493TIP3    H279971   2.976   2.886   4.332  0.2434  2.5471  0.5189
19494TIP3   OH279972   2.763   5.386   4.879  0.5363 -0.0465  0.0758
19494TIP3    H179973   2.773   5.433   4.962  0.4651 -0.6626  0.4390
19494TIP3    H279974   2.794   5.447   4.813  0.4648  0.5049  0.5430
19495TIP3   OH279975   6.515   4.790   5.566  0.1716 -0.1868  0.0198
19495TIP3    H179976   6.540   4.865   5.619 -0.4981  0.5311 -0.6519
19495TIP3    H279977   6.597   4.742   5.553  0.1492 -1.2448  2.9298
19496TIP3   OH279978   2.584   6.050  15.841  0.8572 -0.1692 -0.5250
19496TIP3    H179979   2.600   6.020  15.751 -1.6708  0.5276 -1.3048
19496TIP3    H279980   2.625   5.983  15.896  0.7902 -1.6924 -2.2090
19497TIP3   OH279981   2.908   4.692   4.581 -0.3420 -0.0510 -0.0185
19497TIP3    H179982   2.905   4.751   4.656 -1.1264  0.9090 -0.7732
19497TIP3    H279983   2.943   4.746   4.510  0.2625 -0.9052 -0.3862
19498TIP3   OH279984   1.648   1.603  14.684  0.5167 -0.0700 -0.0455
19498TIP3    H179985   1.735   1.564  14.692  1.4293  2.0418  1.2496
19498TIP3    H279986   1.654   1.660  14.608 -0.2469 -1.0206 -0.8487
19499TIP3   OH279987   2.307   2.966   5.450  0.2557 -0.1949  0.5091
19499TIP3    H179988   2.353   2.935   5.528 -0.5812  1.8133  1.9131
19499TIP3    H279989   2.257   2.891   5.419 -1.2989 -0.4890  3.4065
19500TIP3   OH279990   6.034   6.580   2.059 -0.0871  0.3491  0.6022
19500TIP3    H179991   6.097   6.638   2.017  0.2002  0.3441  1.0211
19500TIP3    H279992   5.951   6.627   2.056  0.4281  1.4126  2.2387
19501TIP3   OH279993   4.272   4.883   5.600  0.7755  0.1359  0.5462
19501TIP3    H179994   4.179   4.907   5.598  0.5627 -0.2571 -3.3443
19501TIP3    H279995   4.273   4.792   5.628 -0.2459 -0.2658 -0.5957
19502TIP3   OH279996   2.966   3.694  13.213  0.0721  0.1287 -0.3372
19502TIP3    H179997   2.874   3.686  13.190  0.7141 -0.8224 -2.8407
19502TIP3    H279998   3.013   3.694  13.129  2.5604 -2.2603  0.8957
19503TIP3   OH279999   2.828   3.276   1.470  0.7287 -0.0046 -0.1498
19503TIP3    H180000   2.793   3.299   1.384  2.5210  2.3751 -0.3499
19503TIP3    H280001   2.852   3.183   1.463 -2.5558 -0.9115 -0.9186
19504TIP3   OH280002   2.612   4.591  10.364 -0.2401  0.2602  1.3246
19504TIP3    H180003   2.653   4.641  10.294 -2.9589  0.5182 -0.2188
19504TIP3    H280004   2.681   4.531  10.394  1.6227  1.5464 -0.1209
19505TIP3   OH280005   2.649   0.489  12.032  0.0163 -0.7582 -0.2309
19505TIP3    H180006   2.643   0.533  12.117  0.8047  1.7146 -1.3714
19505TIP3    H280007   2.718   0.424  12.043 -0.8178 -1.4292  1.3673
19506TIP3   OH280008   6.296   0.332   0.330 -0.2569 -0.0426  0.2892
19506TIP3    H180009   6.349   0.278   0.272  0.1214  0.0094  0.5839
19506TIP3    H280010   6.219   0.278   0.350 -1.0136  0.4056 -1.2475
19507TIP3   OH280011   3.022   0.396  14.531  0.0095 -0.6049 -0.2359
19507TIP3    H180012   2.971   0.317  14.511  0.6826 -0.8689 -0.9569
19507TIP3    H280013   3.014   0.406  14.626 -0.8619 -1.0006 -0.2596
19508TIP3   OH280014   0.007   0.218  11.487  0.5791 -0.0141  0.3175
19508TIP3    H180015  -0.088   0.229  11.494  0.3575 -0.6719 -1.1662
19508TIP3    H280016   0.032   0.276  11.415  1.2393 -0.1697  0.4172
19509TIP3   OH280017   5.908   4.853  15.649  0.4261  0.1676  0.1493
19509TIP3    H180018   5.991   4.897  15.669 -0.4624  0.8724  2.6036
19509TIP3    H280019   5.842   4.922  15.652 -0.5401 -0.7416  0.6062
19510TIP3   OH280020   1.451   3.807   5.304 -0.2008 -0.2149 -0.2494
19510TIP3    H180021   1.360   3.778   5.309  0.2921 -1.6495  1.4318
19510TIP3    H280022   1.484   3.800   5.394  1.7702 -0.4290 -0.9283
19511TIP3   OH280023   3.351   5.768   2.304  0.9913  0.5054 -0.1438
19511TIP3    H180024   3.270   5.814   2.324  0.3476  0.2829 -2.0117
19511TIP3    H280025   3.323   5.687   2.262  2.1650  0.2140 -0.4099
19512TIP3   OH280026   6.234   1.713   0.053  0.4328  0.0415 -0.2014
19512TIP3    H180027   6.140   1.725   0.038 -0.4774 -3.7010  1.3647
19512TIP3    H280028   6.275   1.785   0.005 -3.0898  0.5712 -2.8700
19513TIP3   OH280029   5.557   4.122  15.167  0.1475 -0.0760 -0.0123
19513TIP3    H180030   5.552   4.029  15.148 -0.1396 -0.1692  0.4913
19513TIP3    H280031   5.485   4.138  15.228 -0.2574  0.6245 -0.6587
19514TIP3   OH280032   1.576   6.535   3.097 -0.0652 -0.2557 -0.0832
19514TIP3    H180033   1.547   6.539   3.006 -0.3299 -1.3669 -0.0704
19514TIP3    H280034   1.630   6.613   3.109 -1.6305  0.9551 -0.6086
19515TIP3   OH280035   5.727   5.277   0.289  0.2587 -0.6033 -0.0332
19515TIP3    H180036   5.658   5.343   0.278  1.6653  0.9218 -0.0415
19515TIP3    H280037   5.780   5.309   0.361  0.6555 -2.0429  0.3432
19516TIP3   OH280038   3.911   5.979  16.570  0.7866 -0.2358 -0.3920
19516TIP3    H180039   3.874   5.894  16.549 -1.2197  1.0249 -2.4406
19516TIP3    H280040   3.880   6.037  16.500  1.0763  2.4519  1.5302
19517TIP3   OH280041   5.225   5.428  13.795 -0.2276 -0.5617  0.1474
19517TIP3    H180042   5.176   5.496  13.840 -0.3097 -0.6507  0.1928
19517TIP3    H280043   5.310   5.424  13.839  1.3546  2.2427 -2.2695
19518TIP3   OH280044   3.117   0.530  13.855 -0.3660 -0.1225  0.1632
19518TIP3    H180045   3.049   0.574  13.805  0.3158 -1.6664 -2.2846
19518TIP3    H280046   3.197   0.581  13.837 -0.0690 -0.8318 -0.5618
19519TIP3   OH280047   6.810   1.514  12.387  0.6103  0.2935  0.1671
19519TIP3    H180048   6.864   1.441  12.357  0.7513  0.5012 -0.0987
19519TIP3    H280049   6.863   1.558  12.452  1.4434  1.4266 -1.2119
19520TIP3   OH280050   1.265   1.726   2.081  0.1311 -0.8041  0.4672
19520TIP3    H180051   1.254   1.633   2.061  0.7352 -0.8063  0.1404
19520TIP3    H280052   1.315   1.728   2.162  1.3945 -0.7649 -0.2871
19521TIP3   OH280053   0.606   3.179   0.804 -0.1607  0.2974  0.4471
19521TIP3    H180054   0.660   3.130   0.742 -1.9367 -1.0933 -0.0802
19521TIP3    H280055   0.651   3.263   0.814  0.4288  0.3947 -2.3335
19522TIP3   OH280056   2.708   4.445  15.364 -0.5176  0.2557 -0.0191
19522TIP3    H180057   2.733   4.495  15.442 -1.1100  0.1201  0.2674
19522TIP3    H280058   2.686   4.358  15.397  2.5226 -0.8911 -0.7755
19523TIP3   OH280059   1.942   0.654   3.518 -0.2383  0.1866 -0.2169
19523TIP3    H180060   1.877   0.600   3.475 -1.1030  0.3214  0.8685
19523TIP3    H280061   1.931   0.636   3.611  0.0276  1.5767  0.1180
19524TIP3   OH280062   6.173   5.866  16.515  0.0043  0.5176 -0.1647
19524TIP3    H180063   6.187   5.949  16.562 -1.7889 -1.0459  3.5392
19524TIP3    H280064   6.211   5.799  16.573 -0.5796 -1.4661 -1.9642
19525TIP3   OH280065   1.560   0.126  10.283 -0.2685 -0.4807 -0.3179
19525TIP3    H180066   1.581   0.049  10.336  0.0930 -0.0464  0.1827
19525TIP3    H280067   1.465   0.135  10.290 -0.0933  0.4621  1.5577
19526TIP3   OH280068   2.821   2.284  15.440  0.0601  0.0632  0.0718
19526TIP3    H180069   2.748   2.329  15.483 -0.7869 -0.6147 -0.6046
19526TIP3    H280070   2.856   2.348  15.378 -0.9436 -0.0717 -0.6705
19527TIP3   OH280071   4.078   3.632  15.913 -0.0561  0.6627 -0.3145
19527TIP3    H180072   4.020   3.617  15.839  0.0642 -0.4167 -0.1990
19527TIP3    H280073   4.022   3.676  15.978 -0.6343  0.0295 -0.3742
19528TIP3   OH280074   5.580   5.845   6.382  0.2703  0.5084  0.3017
19528TIP3    H180075   5.543   5.788   6.314  2.1910  0.4902 -0.7940
19528TIP3    H280076   5.527   5.925   6.377  0.3958  0.5235 -1.2722
19529TIP3   OH280077   3.210   4.519  15.696 -0.7715  0.0447  0.6140
19529TIP3    H180078   3.290   4.568  15.679  0.2689 -2.0223 -0.7945
19529TIP3    H280079   3.217   4.492  15.787  0.8076 -1.1604  0.1864
19530TIP3   OH280080   1.924   1.414   0.610 -0.1431 -0.3435  0.1729
19530TIP3    H180081   2.016   1.420   0.637  0.5290 -0.4105 -1.9243
19530TIP3    H280082   1.894   1.331   0.648  1.3348 -1.4173 -0.8478
19531TIP3   OH280083   1.831   0.142   3.072 -0.4630 -0.0283  0.3748
19531TIP3    H180084   1.901   0.198   3.039 -0.6159 -0.2700 -0.3779
19531TIP3    H280085   1.779   0.199   3.129  1.6155 -0.3841  2.8176
19532TIP3   OH280086   2.454   2.388  10.517  0.3687  0.3691  0.0924
19532TIP3    H180087   2.389   2.390  10.447 -0.8670 -0.5846  1.1645
19532TIP3    H280088   2.510   2.314  10.496 -0.2837 -0.2017  0.3515
19533TIP3   OH280089   6.182   4.863   0.323 -0.3158 -0.2379 -0.1529
19533TIP3    H180090   6.252   4.862   0.258 -0.5739 -1.0945 -0.4313
19533TIP3    H280091   6.177   4.954   0.352  0.6914 -0.1010 -0.3646
19534TIP3   OH280092   4.578   5.624  15.948 -0.2645 -0.2512 -0.0169
19534TIP3    H180093   4.599   5.535  15.976  2.0347  0.3662  0.3943
19534TIP3    H280094   4.625   5.635  15.865  0.5631  0.9782  0.5812
19535TIP3   OH280095   5.512   1.555  14.936 -0.5742 -0.3746 -0.0331
19535TIP3    H180096   5.569   1.519  15.004 -0.6824 -0.8468 -0.1867
19535TIP3    H280097   5.569   1.611  14.883  0.0366 -1.7161 -0.8666
19536TIP3   OH280098   1.067   0.088   1.198 -0.0042 -0.1272 -0.2025
19536TIP3    H180099   1.074   0.091   1.294 -0.7345 -0.7007 -0.1202
19536TIP3    H280100   1.145   0.041   1.170 -0.0536 -0.4285  0.1559
19537TIP3   OH280101   5.792   2.472   4.509  0.3185  0.2434 -0.7749
19537TIP3    H180102   5.817   2.492   4.599  1.3901  0.9687 -1.2179
19537TIP3    H280103   5.875   2.464   4.462 -0.2348  0.5510 -1.8373
19538TIP3   OH280104   1.368   1.737   1.147 -0.3888  0.1437 -0.0839
19538TIP3    H180105   1.437   1.802   1.162 -0.1336  0.1489 -1.2165
19538TIP3    H280106   1.387   1.667   1.210  1.1084 -0.2141 -0.8813
19539TIP3   OH280107   3.202   6.648   5.676  0.2634  0.2283 -0.3409
19539TIP3    H180108   3.109   6.656   5.657 -0.2005  0.6539  1.9080
19539TIP3    H280109   3.220   6.554   5.671 -0.3173  0.1301 -0.5912
19540TIP3   OH280110   6.315   6.012  11.667  0.7410 -0.0783 -0.2940
19540TIP3    H180111   6.312   6.082  11.602 -2.3880  0.5336  0.3310
19540TIP3    H280112   6.370   6.046  11.737  0.2316  1.3034 -0.5258
19541TIP3   OH280113   3.113   5.828   3.245 -0.3271 -0.0268 -0.1415
19541TIP3    H180114   3.084   5.906   3.198 -0.3801 -0.5705 -1.0500
19541TIP3    H280115   3.043   5.764   3.231  0.5344 -0.8239 -0.9804
19542TIP3   OH280116   0.047   2.973  12.340 -0.4828 -0.2233  0.6902
19542TIP3    H180117   0.059   3.068  12.338 -0.2838 -0.2310  1.1724
19542TIP3    H280118   0.115   2.938  12.283 -0.0630 -0.1125  1.1182
19543TIP3   OH280119   5.197   5.148   1.049 -0.3018  0.6562  0.0236
19543TIP3    H180120   5.165   5.063   1.079 -1.2179 -0.4489 -3.6127
19543TIP3    H280121   5.185   5.206   1.125 -0.6841 -2.1415  2.2805
19544TIP3   OH280122   0.054   2.921  16.393  0.0332  0.7961  0.0760
19544TIP3    H180123  -0.017   2.872  16.351 -0.1343  2.2705 -1.4980
19544TIP3    H280124   0.086   2.980  16.324  2.5517  0.4484  0.8461
19545TIP3   OH280125   4.487   3.924  15.117  0.7755 -0.1063 -0.1510
19545TIP3    H180126   4.554   3.990  15.103  1.2534 -0.5983 -0.1948
19545TIP3    H280127   4.523   3.866  15.184  1.0941 -1.2969 -1.3192
19546TIP3   OH280128   2.456   4.397   4.595  0.1138 -0.0596 -0.3416
19546TIP3    H180129   2.544   4.418   4.563 -0.7195  1.2154 -1.9354
19546TIP3    H280130   2.409   4.367   4.517 -0.9668 -0.4000  0.4235
19547TIP3   OH280131   1.042   1.368   4.320 -0.4303  0.1393 -0.6907
19547TIP3    H180132   1.119   1.380   4.265 -0.3589 -0.6167 -0.7611
19547TIP3    H280133   1.072   1.394   4.408  0.8214 -2.9017 -0.1015
19548TIP3   OH280134   0.830   1.289   3.537 -0.3230  0.1449  0.3353
19548TIP3    H180135   0.756   1.254   3.488  1.2107 -1.3959 -0.9747
19548TIP3    H280136   0.893   1.217   3.541  0.2629  0.6854  3.3018
19549TIP3   OH280137   5.358   4.941  13.632  0.5353 -0.2255  0.2113
19549TIP3    H180138   5.365   5.028  13.592 -2.1987 -0.3164 -0.6583
19549TIP3    H280139   5.310   4.957  13.714 -0.8777 -1.0022 -0.4398
19550TIP3   OH280140   0.259   1.483  12.868 -0.3613 -0.2716  0.4561
19550TIP3    H180141   0.252   1.570  12.907 -2.0770 -0.1564 -0.0280
19550TIP3    H280142   0.320   1.436  12.925  1.4625  1.5275  0.1335
19551TIP3   OH280143   4.033   4.704   3.983  0.3508 -0.9448  0.5605
19551TIP3    H180144   4.001   4.793   3.968 -0.0180 -1.2832 -0.7712
19551TIP3    H280145   3.962   4.648   3.951  1.1496 -1.7164  0.1166
19552TIP3   OH280146   1.893   4.508   3.361 -0.2386 -0.4520  0.3682
19552TIP3    H180147   1.897   4.413   3.370 -0.4349 -0.3919  1.2847
19552TIP3    H280148   1.975   4.539   3.401 -0.5643 -0.2018  0.8528
19553TIP3   OH280149   4.089   6.436   4.325 -0.8114  0.2406  0.4784
19553TIP3    H180150   4.145   6.377   4.375 -2.0800  0.0213  1.6973
19553TIP3    H280151   4.000   6.408   4.346 -1.4064  0.2488 -1.7886
19554TIP3   OH280152   4.055   2.575   0.734  0.1772 -0.6480  0.5360
19554TIP3    H180153   4.061   2.482   0.757  0.4843 -0.9465 -0.7221
19554TIP3    H280154   4.029   2.576   0.642 -2.8003  0.5311  1.2538
19555TIP3   OH280155   5.461   4.864  15.631 -0.1674  0.1195  0.5894
19555TIP3    H180156   5.371   4.890  15.609 -0.6278 -1.1088  0.9487
19555TIP3    H280157   5.457   4.769  15.639  1.7340 -0.2488 -1.8755
19556TIP3   OH280158   0.092   6.673   0.752  0.1621 -0.3137 -0.3705
19556TIP3    H180159   0.128   6.667   0.840 -0.6514  0.7095  0.0582
19556TIP3    H280160   0.168   6.682   0.695  0.6303  0.7080  0.3983
19557TIP3   OH280161   2.825   1.803   3.876  0.1773  0.1268  0.2083
19557TIP3    H180162   2.830   1.707   3.877  1.2100  0.1664 -0.0856
19557TIP3    H280163   2.765   1.823   3.805  0.4533 -0.2956 -0.1536
19558TIP3   OH280164   2.848   5.317  12.083  0.8079 -0.1463 -0.3264
19558TIP3    H180165   2.764   5.322  12.128  1.6882  0.1355  1.3813
19558TIP3    H280166   2.879   5.407  12.080  1.6418 -0.3935  0.3033
19559TIP3   OH280167   0.087   3.551   0.055  0.0694  0.2707 -0.1416
19559TIP3    H180168   0.023   3.502   0.107 -3.0950  1.0511 -2.9934
19559TIP3    H280169   0.146   3.588   0.121 -1.2948 -1.9154  2.5640
19560TIP3   OH280170   4.325   2.926  10.116 -0.2490  0.6015  0.1775
19560TIP3    H180171   4.324   3.002  10.174  0.8502  1.2223 -0.5831
19560TIP3    H280172   4.316   2.851  10.175  0.5094  1.2296  1.1183
19561TIP3   OH280173   6.821   4.371   4.936  0.7060 -0.2875  0.2036
19561TIP3    H180174   6.757   4.442   4.933 -0.3720 -1.2200  0.2721
19561TIP3    H280175   6.830   4.343   4.845  0.8119 -0.3428  0.2304
19562TIP3   OH280176   1.790   4.738   6.222 -0.1820  0.6665  0.3981
19562TIP3    H180177   1.796   4.646   6.245 -1.6050  0.2733 -0.6346
19562TIP3    H280178   1.875   4.760   6.185 -0.6714 -1.0414 -1.9621
19563TIP3   OH280179   1.791   6.339   0.898  0.1774 -0.2912  0.2526
19563TIP3    H180180   1.871   6.345   0.845 -1.2459  1.2357 -1.8866
19563TIP3    H280181   1.776   6.245   0.909  1.5923 -0.6112 -0.3474
19564TIP3   OH280182   5.080   0.668   3.040 -0.1881 -0.2294  0.1824
19564TIP3    H180183   5.044   0.611   2.972  0.0397 -2.7885  2.0378
19564TIP3    H280184   5.003   0.703   3.086 -0.3260  0.9845 -0.9048
19565TIP3   OH280185   0.156   0.720   4.950 -0.0352 -0.3885  0.5573
19565TIP3    H180186   0.063   0.740   4.941 -0.1146 -1.0407 -0.1452
19565TIP3    H280187   0.197   0.805   4.964 -0.5624  0.1178 -0.7574
19566TIP3   OH280188   5.359   0.601   0.059 -0.2303  0.5122 -0.4429
19566TIP3    H180189   5.418   0.676   0.062  1.4091 -0.6998 -1.0823
19566TIP3    H280190   5.306   0.614  -0.019  0.6483  0.5742 -1.0342
19567TIP3   OH280191   0.751   3.285  14.720  0.0772  0.0564 -0.0487
19567TIP3    H180192   0.724   3.349  14.655  1.0290  1.8995  1.2703
19567TIP3    H280193   0.811   3.226  14.673 -2.2086 -1.0616 -1.7284
19568TIP3   OH280194   5.278   6.560   3.864 -0.5000  0.2919 -0.4385
19568TIP3    H180195   5.278   6.558   3.769  3.6905 -1.9564 -0.6309
19568TIP3    H280196   5.229   6.482   3.890  0.5395 -0.5356 -0.9045
19569TIP3   OH280197   3.728   0.326  13.742 -0.5922 -0.1330 -0.0408
19569TIP3    H180198   3.749   0.253  13.684  0.2639  0.4856 -0.5294
19569TIP3    H280199   3.728   0.287  13.830  3.7888 -0.0887  0.1931
19570TIP3   OH280200   6.273   6.404  16.283  0.5525  0.2016  0.0390
19570TIP3    H180201   6.267   6.349  16.360 -0.2121  0.8019  0.4172
19570TIP3    H280202   6.357   6.450  16.293  1.2383 -0.9476 -0.3311
19571TIP3   OH280203   5.841   3.156  11.146  0.1192  0.1244  0.6467
19571TIP3    H180204   5.847   3.222  11.078  1.3580  0.7978  1.3845
19571TIP3    H280205   5.747   3.142  11.158 -0.1305  0.8895 -0.3340
19572TIP3   OH280206   0.084   3.086   0.249  0.4042  0.2085  0.7151
19572TIP3    H180207   0.132   3.084   0.166 -0.7452 -0.7250  0.0388
19572TIP3    H280208   0.152   3.070   0.316  1.4963  1.9373  0.0723
19573TIP3   OH280209   2.672   1.864   0.351  0.1659  0.0146 -0.1719
19573TIP3    H180210   2.675   1.781   0.398  1.1961  0.0324 -0.1870
19573TIP3    H280211   2.603   1.851   0.286 -0.0263 -0.6509  0.1485
19574TIP3   OH280212   0.765   6.239  16.601  0.3101 -0.3570  0.0684
19574TIP3    H180213   0.787   6.319  16.553  0.2316 -1.0125 -1.0805
19574TIP3    H280214   0.777   6.168  16.538  2.1131 -1.4671  1.5834
19575TIP3   OH280215   6.310   3.823  12.504  0.4611 -0.0482 -0.0541
19575TIP3    H180216   6.265   3.876  12.570 -0.5987 -1.3705  0.3462
19575TIP3    H280217   6.246   3.812  12.434  0.7786 -0.4979 -0.2790
19576TIP3   OH280218   0.814   4.155   0.910  0.4942  0.6878  0.7702
19576TIP3    H180219   0.804   4.060   0.916  2.1061  0.4082 -0.2864
19576TIP3    H280220   0.831   4.183   0.999 -0.5870  0.0718  1.1852
19577TIP3   OH280221   4.013   1.503  13.968 -0.3240  0.0849  0.0135
19577TIP3    H180222   4.106   1.523  13.978 -0.4525  0.9016 -0.3653
19577TIP3    H280223   3.970   1.588  13.957 -1.2030 -0.2298  0.8251
19578TIP3   OH280224   0.810   2.197  10.589  0.4648 -0.1843  0.3731
19578TIP3    H180225   0.890   2.158  10.626  0.8132 -0.3854 -0.5669
19578TIP3    H280226   0.817   2.181  10.495  0.5572  2.0270 -0.0536
19579TIP3   OH280227   4.698   2.577  15.694  0.7508  0.4791 -0.6848
19579TIP3    H180228   4.612   2.562  15.655  0.6103  1.1616 -0.6490
19579TIP3    H280229   4.759   2.571  15.620  0.3456  3.2156 -1.3364
19580TIP3   OH280230   5.148   0.169   0.530 -0.2945  0.0778 -0.4188
19580TIP3    H180231   5.155   0.261   0.506 -0.0327  0.1260 -0.1692
19580TIP3    H280232   5.202   0.123   0.466  1.5977  0.3458  0.8756
19581TIP3   OH280233   3.754   3.926   1.350  0.1009  0.5788  0.1781
19581TIP3    H180234   3.791   3.842   1.376  0.3092  0.8956  0.9215
19581TIP3    H280235   3.727   3.967   1.432 -1.2262  0.6728 -0.2946
19582TIP3   OH280236   1.539   6.101  16.632 -0.2091 -0.4267 -0.0916
19582TIP3    H180237   1.591   6.079  16.709 -2.4233  0.9179  1.9177
19582TIP3    H280238   1.448   6.092  16.661 -1.1278  1.4262 -2.1177
19583TIP3   OH280239   0.192   0.617  13.232  0.2039 -0.0276 -0.0364
19583TIP3    H180240   0.209   0.565  13.154 -0.2602  0.0849 -0.2195
19583TIP3    H280241   0.120   0.571  13.277 -0.7153  0.8253 -0.5769
19584TIP3   OH280242   3.466   4.638   2.220 -0.3884  0.1083 -0.8293
19584TIP3    H180243   3.383   4.684   2.215 -0.0293  0.6442 -2.1568
19584TIP3    H280244   3.528   4.704   2.251 -0.7398 -0.7397  1.9868
19585TIP3   OH280245   1.745   6.540  14.281 -0.3978  0.1872  0.5741
19585TIP3    H180246   1.784   6.498  14.205  1.7577 -1.5660  2.4839
19585TIP3    H280247   1.653   6.514  14.279 -0.4209  0.3257 -1.4655
19586TIP3   OH280248   3.573   0.225   4.637 -0.0953  0.3018 -0.3349
19586TIP3    H180249   3.521   0.202   4.714 -0.2868  1.0616 -0.2352
19586TIP3    H280250   3.531   0.303   4.602 -0.3071 -0.3207 -1.5059
19587TIP3   OH280251   0.832   0.127   3.013 -0.3233 -0.1236 -0.2553
19587TIP3    H180252   0.795   0.210   3.041 -0.1257 -0.4917  1.1319
19587TIP3    H280253   0.778   0.101   2.938 -4.2371 -1.5917  2.7628
19588TIP3   OH280254   1.356   6.615   1.522  0.4570 -0.0979  0.2456
19588TIP3    H180255   1.326   6.699   1.487  0.9950  0.4552  1.0906
19588TIP3    H280256   1.373   6.562   1.444  0.8222  0.8302 -0.3173
19589TIP3   OH280257   5.420   4.239   5.137 -0.0038  0.1499  0.4413
19589TIP3    H180258   5.439   4.183   5.061  1.5977 -0.2370  1.0738
19589TIP3    H280259   5.326   4.231   5.150  0.0538 -1.7767 -0.0097
19590TIP3   OH280260   1.415   0.296   2.153 -0.9089  0.6153 -0.0223
19590TIP3    H180261   1.390   0.360   2.087  0.1923 -1.6437 -2.8235
19590TIP3    H280262   1.506   0.275   2.133 -1.1600 -1.6407  0.9097
19591TIP3   OH280263   3.284   1.041  12.180  0.6440  0.3154  0.0241
19591TIP3    H180264   3.255   1.010  12.266 -0.9941  0.8800 -0.2945
19591TIP3    H280265   3.241   1.126  12.169  0.5858  0.1165 -1.4688
19592TIP3   OH280266   0.861   1.288  10.471 -0.5932 -0.3022 -0.0119
19592TIP3    H180267   0.914   1.362  10.442 -2.1061  0.4238 -1.0891
19592TIP3    H280268   0.901   1.259  10.553  0.5362  1.1504 -0.0246
19593TIP3   OH280269   3.053   6.404   3.892  0.0216 -0.4244 -0.3435
19593TIP3    H180270   3.054   6.323   3.840 -1.4724  0.4092 -1.7538
19593TIP3    H280271   3.115   6.387   3.964  1.6303 -1.8814 -1.9791
19594TIP3   OH280272   5.197   2.897   1.514 -0.5875 -0.0441 -0.3332
19594TIP3    H180273   5.275   2.950   1.496 -0.1921 -0.8164 -0.9227
19594TIP3    H280274   5.218   2.810   1.480 -0.1980 -1.3552  2.8474
19595TIP3   OH280275   0.004   5.679  12.885 -0.3201 -0.4016 -0.3782
19595TIP3    H180276  -0.013   5.617  12.814 -0.2819 -1.9802  0.9223
19595TIP3    H280277  -0.080   5.689  12.929  0.3739 -2.4179  1.5862
19596TIP3   OH280278   0.462   0.457   1.327 -0.2797 -0.7574  0.5408
19596TIP3    H180279   0.408   0.513   1.383 -2.1216 -0.5687 -1.3022
19596TIP3    H280280   0.437   0.368   1.352 -0.2548 -0.6947  0.7933
19597TIP3   OH280281   5.948   0.914  15.368 -0.1467 -0.2117  0.2882
19597TIP3    H180282   5.946   0.995  15.419 -1.8843  0.5454 -0.9246
19597TIP3    H280283   5.972   0.942  15.280 -1.8073 -0.8314 -0.3942
19598TIP3   OH280284   4.037   2.005  16.774  0.5834 -0.3927  0.0272
19598TIP3    H180285   4.110   1.980  16.830 -0.0013 -0.7906  0.6326
19598TIP3    H280286   3.986   1.924  16.764  0.7842 -0.3708 -1.2375
19599TIP3   OH280287   0.300   4.728  13.532  0.6449  0.5376 -0.2283
19599TIP3    H180288   0.241   4.794  13.495  0.2057 -0.5991 -1.6566
19599TIP3    H280289   0.281   4.728  13.626 -1.8101  0.0501 -0.6658
19600TIP3   OH280290   4.762   4.343  14.848 -0.0810  0.2443  0.0930
19600TIP3    H180291   4.825   4.390  14.903  0.7277 -2.5054  1.6925
19600TIP3    H280292   4.803   4.339  14.762  0.4016  1.3026  0.2574
19601TIP3   OH280293   6.805   1.713   3.762  0.0878  0.6860  0.3742
19601TIP3    H180294   6.763   1.792   3.795 -0.1632  0.0532  1.6236
19601TIP3    H280295   6.870   1.745   3.700 -0.4568  1.8313  0.3631
19602TIP3   OH280296   2.975   0.417   3.717 -0.1520 -0.0650 -0.9048
19602TIP3    H180297   2.941   0.438   3.630  2.0213  0.5782 -1.6496
19602TIP3    H280298   2.985   0.502   3.760 -0.7964 -0.3522 -0.1545
19603TIP3   OH280299   2.849   3.988  12.452  0.1642 -0.4034  0.0963
19603TIP3    H180300   2.871   3.941  12.371 -1.0202  0.6295 -0.8764
19603TIP3    H280301   2.788   4.056  12.424 -0.8646 -0.4756  1.9988
19604TIP3   OH280302   6.567   6.701   1.415  0.4716  0.3223 -0.6776
19604TIP3    H180303   6.552   6.607   1.427  2.0263 -0.0573 -1.4219
19604TIP3    H280304   6.657   6.707   1.383 -0.0145  1.9732 -1.8957
19605TIP3   OH280305   0.932   1.488   2.412 -0.2548  0.5646 -0.0336
19605TIP3    H180306   0.982   1.505   2.332  0.8010 -1.5339  0.1221
19605TIP3    H280307   0.887   1.406   2.396 -0.2294  0.2408  1.4338
19606TIP3   OH280308   1.909   1.114  16.965 -0.2064 -0.2512  0.1136
19606TIP3    H180309   1.969   1.169  17.015 -2.5568  1.3409  1.3305
19606TIP3    H280310   1.893   1.163  16.885 -1.3479  0.2869  0.6525
19607TIP3   OH280311   1.636   1.978   5.743  0.2533 -0.3435  0.4026
19607TIP3    H180312   1.640   2.072   5.724 -0.4481 -0.6021 -1.1765
19607TIP3    H280313   1.628   1.974   5.839  1.4464  1.1486  0.6019
19608TIP3   OH280314   5.604   2.171  14.450  0.2591 -0.1566 -0.2860
19608TIP3    H180315   5.578   2.117  14.525  0.9307 -0.1667 -0.0622
19608TIP3    H280316   5.541   2.146  14.381 -0.2346 -0.2912  0.2037
19609TIP3   OH280317   4.266   5.415   2.003 -0.1824 -0.5916 -0.4809
19609TIP3    H180318   4.195   5.476   1.983 -0.1281 -0.4802 -0.3375
19609TIP3    H280319   4.327   5.424   1.930 -0.8352 -1.4849 -1.1668
19610TIP3   OH280320   3.241   1.781   4.584  0.0903 -0.2608  0.1172
19610TIP3    H180321   3.253   1.687   4.596 -1.1663 -0.2836  1.4376
19610TIP3    H280322   3.258   1.796   4.491 -0.5852 -1.9353 -0.2956
19611TIP3   OH280323   0.260   2.684  16.106  0.0673 -0.0751 -1.0596
19611TIP3    H180324   0.206   2.743  16.055 -0.7529 -0.8653 -1.1294
19611TIP3    H280325   0.199   2.643  16.168  0.5480 -1.0632 -1.2173
19612TIP3   OH280326   5.500   4.942  14.273 -0.1636 -0.4491 -0.1013
19612TIP3    H180327   5.538   4.854  14.278  2.1939  0.5623  1.3140
19612TIP3    H280328   5.451   4.951  14.355  0.5839 -0.0378  0.3058
19613TIP3   OH280329   5.637   3.572  12.569  0.5688 -0.7358  0.1422
19613TIP3    H180330   5.572   3.624  12.520  0.9720  0.3799  0.7543
19613TIP3    H280331   5.648   3.620  12.651  2.8240 -0.3894 -0.3052
19614TIP3   OH280332   6.445   3.660   3.758 -0.3766 -0.2714 -0.4705
19614TIP3    H180333   6.393   3.623   3.687  0.3889  0.1846 -1.2968
19614TIP3    H280334   6.520   3.701   3.713  0.1494 -0.0320  0.6055
19615TIP3   OH280335   5.296   0.628   3.496  0.3584 -0.1668 -0.1234
19615TIP3    H180336   5.339   0.710   3.521  0.2767  1.0268 -3.4886
19615TIP3    H280337   5.211   0.654   3.462 -0.7472 -1.9690  1.0448
19616TIP3   OH280338   5.102   2.651  14.891  0.1345  0.1755  0.0439
19616TIP3    H180339   5.009   2.652  14.866 -0.3658  0.9784  1.7638
19616TIP3    H280340   5.135   2.736  14.862  0.7991 -0.7057 -1.9857
19617TIP3   OH280341   3.551   2.229  16.633 -0.0116  0.8466 -0.2911
19617TIP3    H180342   3.475   2.191  16.676  1.0937 -1.4668 -0.2381
19617TIP3    H280343   3.624   2.213  16.693  0.7870  1.6881 -1.0009
19618TIP3   OH280344   5.002   4.964   6.365 -0.4053 -0.2666  0.5896
19618TIP3    H180345   4.922   4.995   6.407 -1.1887  0.3358 -1.2544
19618TIP3    H280346   5.013   5.021   6.289  0.5488 -1.7479 -0.4385
19619TIP3   OH280347   6.014   6.266  15.782  0.2594 -0.2995  0.0521
19619TIP3    H180348   6.004   6.177  15.750 -1.9535 -0.1251  0.0612
19619TIP3    H280349   6.071   6.309  15.719 -1.9725 -0.6371 -2.3405
19620TIP3   OH280350   5.929   3.034  13.169 -0.6788 -0.0695  0.8359
19620TIP3    H180351   5.865   3.083  13.118 -1.4973  0.1279  2.0017
19620TIP3    H280352   6.010   3.037  13.117 -0.7803  2.2805  0.7211
19621TIP3   OH280353   1.386   2.958   0.337 -0.5064 -0.2602 -0.1954
19621TIP3    H180354   1.469   2.947   0.291 -0.0078 -1.1210  0.8675
19621TIP3    H280355   1.410   2.971   0.428 -1.5483 -1.0229  0.2139
19622TIP3   OH280356   3.005   0.442   6.686  0.1823  0.4952  0.2092
19622TIP3    H180357   3.032   0.351   6.702  1.9433  1.2308  1.7712
19622TIP3    H280358   3.061   0.471   6.614 -1.5277 -0.0789 -1.4548
19623TIP3   OH280359   4.168   4.278   5.119 -0.0080 -0.2285  0.2597
19623TIP3    H180360   4.125   4.356   5.156  0.9224  0.1346  0.6019
19623TIP3    H280361   4.165   4.292   5.024  0.5206  0.4308  0.3343
19624TIP3   OH280362   1.578   6.465   4.017  0.2630  0.3545  0.5683
19624TIP3    H180363   1.558   6.456   3.924 -0.0941  0.2359  0.6551
19624TIP3    H280364   1.627   6.386   4.040  1.3070  0.8908  0.2333
19625TIP3   OH280365   1.597   2.950  14.082 -1.4056 -0.4508 -0.6013
19625TIP3    H180366   1.634   3.034  14.110 -0.4758 -0.7898 -0.7749
19625TIP3    H280367   1.545   2.921  14.157 -0.3272 -0.5402  0.1268
19626TIP3   OH280368   3.638   3.010   4.614 -0.9661 -0.5485 -0.3727
19626TIP3    H180369   3.715   3.066   4.621 -0.4574 -1.3411  0.5812
19626TIP3    H280370   3.621   2.982   4.704 -1.3942 -1.6696 -0.7900
19627TIP3   OH280371   3.014   1.697   0.631 -0.2572  0.0885  0.1597
19627TIP3    H180372   2.967   1.780   0.641 -1.6847 -0.7492  0.7010
19627TIP3    H280373   3.086   1.703   0.693 -1.9694 -0.1560  2.2905
19628TIP3   OH280374   4.399   6.620  12.657  0.4936 -0.6589 -0.3301
19628TIP3    H180375   4.352   6.545  12.621  0.5893 -0.2846 -1.2690
19628TIP3    H280376   4.353   6.640  12.739 -1.4402  0.1110 -1.5348
19629TIP3   OH280377   2.292   1.664  14.164  0.3594 -0.0003  0.1778
19629TIP3    H180378   2.198   1.666  14.147  0.3526  1.7634  0.1579
19629TIP3    H280379   2.322   1.753  14.142  1.7266 -0.0250  1.7280
19630TIP3   OH280380   0.622   3.101   1.967  0.9614  0.1395 -0.0812
19630TIP3    H180381   0.670   3.151   2.033  1.9556 -0.2270 -0.5128
19630TIP3    H280382   0.581   3.030   2.017  2.3050 -0.5627  0.0519
19631TIP3   OH280383   2.987   5.262  12.805 -0.0546 -0.6128  0.2363
19631TIP3    H180384   3.024   5.288  12.720  2.3845 -1.0936  1.0792
19631TIP3    H280385   2.953   5.174  12.789 -3.4953  0.8119 -1.2425
19632TIP3   OH280386   4.586   3.549   4.971  0.4347  0.4821 -0.7745
19632TIP3    H180387   4.650   3.599   5.022 -0.6942  0.0487  1.1795
19632TIP3    H280388   4.531   3.615   4.929  0.8245  0.8553 -0.6996
19633TIP3   OH280389   3.397   5.420   1.542 -0.2813 -0.3286 -0.3070
19633TIP3    H180390   3.447   5.450   1.618  1.8934 -0.6356 -1.5397
19633TIP3    H280391   3.338   5.352   1.577  0.5505 -0.3625  1.1133
19634TIP3   OH280392   1.406   3.294  16.893 -0.2135  0.2701  0.4206
19634TIP3    H180393   1.350   3.286  16.970  0.5020  0.8982  1.0165
19634TIP3    H280394   1.472   3.226  16.904  0.1871  0.6878  0.6220
19635TIP3   OH280395   2.025   5.133  12.380  0.2146 -0.2013 -0.6092
19635TIP3    H180396   1.957   5.172  12.436 -1.2998 -2.5519 -0.6876
19635TIP3    H280397   1.993   5.144  12.291  0.1117 -0.9430 -0.6731
19636TIP3   OH280398   5.232   0.033  16.439 -0.3063 -0.3191 -0.4705
19636TIP3    H180399   5.186   0.086  16.373 -1.1326  0.2320  0.5117
19636TIP3    H280400   5.180   0.045  16.519  0.2717 -1.5434  0.1045
19637TIP3   OH280401   1.169   6.428  16.267  0.1019 -0.2996  0.1634
19637TIP3    H180402   1.112   6.365  16.223  0.5772 -0.6993  0.1137
19637TIP3    H280403   1.211   6.477  16.197 -0.9701  0.7287  0.2060
19638TIP3   OH280404   6.558   1.669   3.628 -0.5367 -0.3340  0.4577
19638TIP3    H180405   6.589   1.736   3.568 -2.3512 -0.0323 -0.2032
19638TIP3    H280406   6.626   1.663   3.695  0.9976  0.1238 -0.9995
19639TIP3   OH280407   2.612   2.448   1.511  0.3135 -0.5325 -0.5579
19639TIP3    H180408   2.526   2.419   1.481 -0.1783  0.0848  0.2060
19639TIP3    H280409   2.602   2.457   1.606  1.1684 -0.2919 -0.4873
19640TIP3   OH280410   3.900   4.818  15.214  0.1135 -0.5812 -0.1461
19640TIP3    H180411   3.820   4.779  15.178  0.1988 -0.2718 -0.6812
19640TIP3    H280412   3.904   4.786  15.304  1.0467 -3.1969 -1.0266
19641TIP3   OH280413   6.184   0.984   2.823 -0.5143 -0.3551 -0.1052
19641TIP3    H180414   6.187   1.079   2.806 -0.5845 -0.3080  0.1399
19641TIP3    H280415   6.142   0.977   2.909 -0.2370 -0.5940  0.0106
19642TIP3   OH280416   0.321   2.654   5.226 -0.4700  0.2676  0.4206
19642TIP3    H180417   0.403   2.616   5.259  0.7701  1.1504 -1.5034
19642TIP3    H280418   0.327   2.747   5.248 -1.6943  0.1049  1.6048
19643TIP3   OH280419   1.217   2.109   4.321  0.0519  0.4229 -0.6362
19643TIP3    H180420   1.292   2.159   4.352  0.5338 -1.2486  1.1177
19643TIP3    H280421   1.141   2.151   4.363  0.5052 -0.5591  1.2873
19644TIP3   OH280422   1.057   1.535   1.156  0.1787  0.5505 -0.5925
19644TIP3    H180423   1.140   1.530   1.202  0.8854  1.2385 -1.7366
19644TIP3    H280424   0.996   1.484   1.210  1.1337  0.7095  0.6736
19645TIP3   OH280425   4.941   5.542  14.160  0.5175 -0.3186 -0.6357
19645TIP3    H180426   4.993   5.570  14.085 -0.1868 -0.2394 -1.1020
19645TIP3    H280427   4.868   5.604  14.164  1.0337  0.2360  0.6693
19646TIP3   OH280428   5.700   6.089   4.476 -0.2808 -0.5029 -0.8287
19646TIP3    H180429   5.762   6.072   4.406  1.1019  0.8774  0.0080
19646TIP3    H280430   5.651   6.007   4.485  1.9634 -1.9402 -0.9818
19647TIP3   OH280431   2.539   1.675  14.377 -0.3206 -0.2643  0.2640
19647TIP3    H180432   2.491   1.749  14.341 -0.1756  0.4823  1.5707
19647TIP3    H280433   2.504   1.664  14.465 -2.3581 -3.5186 -0.7329
19648TIP3   OH280434   4.065   2.381  13.413 -0.3534  0.5299  0.6808
19648TIP3    H180435   4.001   2.316  13.387  0.8394 -0.5122  0.2499
19648TIP3    H280436   4.024   2.429  13.485 -1.2963 -0.5995  0.9105
19649TIP3   OH280437   5.508   3.182  14.420  0.2875 -0.1704  0.6156
19649TIP3    H180438   5.442   3.228  14.369  0.9592  1.6643  1.3107
19649TIP3    H280439   5.592   3.212  14.385  0.7618 -1.0760  0.9349
19650TIP3   OH280440   4.423   0.625   5.453 -0.2497 -0.1200 -0.5275
19650TIP3    H180441   4.395   0.644   5.542 -0.5613 -0.1080 -0.6268
19650TIP3    H280442   4.367   0.679   5.397 -0.5679 -0.6807 -0.7645
19651TIP3   OH280443   0.331   2.953  10.452  0.5460  0.3799  0.1094
19651TIP3    H180444   0.385   2.955  10.373 -0.2863  1.3173 -0.4629
19651TIP3    H280445   0.275   2.876  10.440  0.3392  0.5889 -0.2773
19652TIP3   OH280446   3.834   2.745  13.693 -0.1717 -0.2162  0.0124
19652TIP3    H180447   3.856   2.658  13.661  0.7423  0.7733 -2.3159
19652TIP3    H280448   3.905   2.768  13.753  1.8801  0.3975 -2.4505
19653TIP3   OH280449   6.164   6.133   4.266  0.2379  0.1092  0.3994
19653TIP3    H180450   6.200   6.062   4.319  1.0314 -0.2787 -0.6090
19653TIP3    H280451   6.227   6.204   4.275 -0.2710  0.4946  0.9650
19654TIP3   OH280452   1.215   0.938   5.053  0.5017  0.3509  0.0883
19654TIP3    H180453   1.183   0.929   4.963  1.5397  0.8773 -0.3420
19654TIP3    H280454   1.136   0.959   5.104  0.1581  1.7990 -0.9850
19655TIP3   OH280455   5.795   0.427  13.130 -0.0651 -0.3023 -0.1860
19655TIP3    H180456   5.764   0.437  13.220  1.4573 -0.8114  0.4279
19655TIP3    H280457   5.715   0.418  13.078 -1.0008  0.8492  0.9924
19656TIP3   OH280458   1.502   5.052   2.717  0.4400  0.3552  0.3768
19656TIP3    H180459   1.577   5.046   2.657  0.6622  0.7440  0.6102
19656TIP3    H280460   1.525   5.123   2.776  1.6943 -2.0208  2.9545
19657TIP3   OH280461   0.609   1.785   3.025 -0.6890 -0.7907 -0.1018
19657TIP3    H180462   0.570   1.837   2.955  0.0098  0.6285  0.5173
19657TIP3    H280463   0.687   1.746   2.985 -1.0278 -1.0992 -0.4723
19658TIP3   OH280464   5.913   3.153  11.791 -0.2887 -0.0161  0.1474
19658TIP3    H180465   5.830   3.134  11.747 -0.8542 -0.2678  1.2763
19658TIP3    H280466   5.895   3.230  11.845 -1.1041 -2.4405  3.6569
19659TIP3   OH280467   4.308   6.474   3.656 -0.0288  0.2982 -0.1760
19659TIP3    H180468   4.226   6.482   3.608  0.2619 -0.3535 -0.7954
19659TIP3    H280469   4.376   6.497   3.591  0.2244  2.2093  0.6872
19660TIP3   OH280470   6.052   1.244   4.138  0.2585 -0.6595  0.2142
19660TIP3    H180471   6.096   1.300   4.074  0.5329 -0.4814  0.5550
19660TIP3    H280472   5.959   1.262   4.126  0.4102  2.0539  2.2335
19661TIP3   OH280473   2.030   5.415   1.919 -0.1772 -0.6605 -0.1271
19661TIP3    H180474   1.982   5.425   1.837 -0.6082 -0.5486  0.1342
19661TIP3    H280475   1.978   5.464   1.983  1.0781  0.7591 -0.1304
19662TIP3   OH280476   1.741   5.247   3.779  0.1259 -0.3989  0.2126
19662TIP3    H180477   1.749   5.195   3.859  2.8181 -0.4009  0.0393
19662TIP3    H280478   1.762   5.336   3.806  0.7642 -0.3510 -0.3989
19663TIP3   OH280479   2.123   5.877   5.266 -0.4099 -0.0061  0.1426
19663TIP3    H180480   2.214   5.861   5.243 -0.5212  0.9396 -1.0456
19663TIP3    H280481   2.083   5.909   5.185 -1.4984  0.7665  0.9546
19664TIP3   OH280482   4.839   3.293  15.956  0.0845 -0.1149 -0.3080
19664TIP3    H180483   4.909   3.313  16.018  1.0219 -0.5759 -1.1937
19664TIP3    H280484   4.795   3.216  15.993  1.5992 -1.3368 -0.9297
19665TIP3   OH280485   5.837   0.090  11.101 -0.4184 -0.2034 -0.0275
19665TIP3    H180486   5.888   0.169  11.120  1.3889 -0.7866 -2.0367
19665TIP3    H280487   5.771   0.119  11.038 -0.1883 -0.1481 -0.2458
19666TIP3   OH280488   5.129   2.826   5.637  0.1759  0.0393  0.6840
19666TIP3    H180489   5.058   2.855   5.694  1.4941  1.2794  1.7708
19666TIP3    H280490   5.122   2.881   5.559  0.3708  0.6713  1.1046
19667TIP3   OH280491   6.738   4.922   1.464 -0.1781  0.3618 -0.5971
19667TIP3    H180492   6.820   4.884   1.434  0.9979  1.8447  0.6191
19667TIP3    H280493   6.715   4.987   1.397  0.2560  0.7391 -0.3866
19668TIP3   OH280494   4.806   2.118  15.743  0.2309  0.3000 -0.0297
19668TIP3    H180495   4.879   2.172  15.774  0.5884  0.8880 -1.7721
19668TIP3    H280496   4.837   2.081  15.660  0.3760 -3.4555  1.4956
19669TIP3   OH280497   0.661   6.732   1.737 -0.3409  0.3380  0.1404
19669TIP3    H180498   0.575   6.750   1.776 -1.1816  1.9255 -2.2425
19669TIP3    H280499   0.641   6.692   1.653  1.3582 -0.9363  0.2784
19670TIP3   OH280500   2.225   1.697   0.075  0.6208  0.2955 -0.1152
19670TIP3    H180501   2.200   1.626   0.133 -0.0671 -0.0453 -0.8209
19670TIP3    H280502   2.223   1.775   0.131  2.0809 -0.2989  0.8486
19671TIP3   OH280503   5.081   6.156   1.662 -0.1215 -0.5433 -0.3454
19671TIP3    H180504   5.089   6.213   1.586  0.3498  0.6400  0.5536
19671TIP3    H280505   5.170   6.124   1.678  0.1075  0.5278  0.6608
19672TIP3   OH280506   3.823   2.250  13.375  0.2271  0.3325 -0.5293
19672TIP3    H180507   3.796   2.199  13.299 -1.9968  0.0664  0.3618
19672TIP3    H280508   3.740   2.279  13.415  1.1247 -1.6828  3.2300
19673TIP3   OH280509   5.878   3.083   4.837 -0.1206  0.4361  0.0349
19673TIP3    H180510   5.820   3.139   4.889 -0.0699  0.0698  0.4973
19673TIP3    H280511   5.904   3.013   4.898  1.6771  1.1779  0.1836
19674TIP3   OH280512   2.989   0.698  15.253  0.2421  0.4567 -0.0230
19674TIP3    H180513   2.969   0.677  15.162 -0.2044 -2.6617  0.6862
19674TIP3    H280514   2.903   0.713  15.293  0.1196 -1.5626  0.5580
19675TIP3   OH280515   0.993   5.068   0.010 -0.1443  1.0573 -0.3303
19675TIP3    H180516   1.065   5.059   0.072  0.6673 -0.1317 -1.3975
19675TIP3    H280517   1.035   5.078  -0.075 -0.8856 -4.4211 -1.7740
19676TIP3   OH280518   1.757   3.400   1.580 -0.6989 -0.2221  0.4126
19676TIP3    H180519   1.769   3.361   1.666 -0.4383 -2.7088 -0.6794
19676TIP3    H280520   1.823   3.359   1.525 -1.4912  0.5689 -1.1974
19677TIP3   OH280521   0.342   3.978  12.518  0.0465  0.0281  0.2857
19677TIP3    H180522   0.345   3.990  12.613 -0.2113  1.5215  0.1314
19677TIP3    H280523   0.278   3.908  12.504  0.3262 -0.4235  1.2131
19678TIP3   OH280524   0.214   3.179  13.277  0.2850 -0.6318  0.4164
19678TIP3    H180525   0.190   3.242  13.345  0.3787 -0.4249  0.2575
19678TIP3    H280526   0.130   3.149  13.241  0.1922  2.1582 -2.0682
19679TIP3   OH280527   2.185   4.197   5.935 -0.4462 -0.2138 -0.5965
19679TIP3    H180528   2.191   4.217   5.842  0.2674 -0.5427 -0.6309
19679TIP3    H280529   2.232   4.268   5.978 -0.4888 -0.2368 -0.5120
19680TIP3   OH280530   2.282   4.620  13.660  0.2185  0.0207 -0.1123
19680TIP3    H180531   2.280   4.696  13.718  0.7064 -0.0380 -0.0130
19680TIP3    H280532   2.272   4.545  13.719 -3.1709  0.0518 -0.4312
19681TIP3   OH280533   3.842   1.918   4.013 -0.2182  0.6491 -0.4069
19681TIP3    H180534   3.788   1.954   3.943 -0.4214  0.5546 -0.3020
19681TIP3    H280535   3.856   1.992   4.073 -1.3148  0.3687  0.2222
19682TIP3   OH280536   1.013   0.379  16.552 -0.3571  0.3629 -0.0847
19682TIP3    H180537   1.062   0.331  16.618  0.5929  0.3022 -0.8230
19682TIP3    H280538   1.041   0.342  16.468 -1.3005  0.6561 -0.5481
19683TIP3   OH280539   3.932   3.051  14.205  1.0521  0.3889  0.2736
19683TIP3    H180540   3.867   3.074  14.272  1.2127 -1.6733  1.2334
19683TIP3    H280541   3.880   3.034  14.127  0.4162 -0.9982  0.9629
19684TIP3   OH280542   3.217   5.445  15.375  0.1445 -0.5255  0.1247
19684TIP3    H180543   3.257   5.427  15.460  1.5426 -0.1045 -0.4194
19684TIP3    H280544   3.282   5.496  15.327 -1.9484  2.3142  0.0273
19685TIP3   OH280545   1.475   3.544   2.222  0.2424 -0.2259 -0.4028
19685TIP3    H180546   1.418   3.609   2.263 -0.3996 -0.0793 -1.4850
19685TIP3    H280547   1.418   3.468   2.207  0.4195 -0.2195 -1.1452
19686TIP3   OH280548   3.289   4.757   1.891 -0.6385  0.4544 -0.0007
19686TIP3    H180549   3.219   4.721   1.946  0.3767 -0.8212  0.5164
19686TIP3    H280550   3.310   4.686   1.830  0.1826  0.8280 -0.1660
19687TIP3   OH280551   1.621   0.544  15.745  0.0445 -0.3585 -0.1197
19687TIP3    H180552   1.614   0.465  15.692 -0.2864 -1.2859  1.2789
19687TIP3    H280553   1.542   0.594  15.723  0.8523  0.2077 -1.9282
19688TIP3   OH280554   6.310   5.010   4.954 -0.1858 -0.4892 -0.1952
19688TIP3    H180555   6.325   4.998   5.047  0.8599 -0.9423 -0.4073
19688TIP3    H280556   6.397   5.002   4.914 -0.6593 -0.6486 -1.2361
19689TIP3   OH280557   0.891   3.415  15.844  0.0900  0.3101 -0.3761
19689TIP3    H180558   0.931   3.381  15.925  0.7740  2.2039  0.1317
19689TIP3    H280559   0.857   3.337  15.800  1.3195 -0.9880  0.8504
19690TIP3   OH280560   0.555   2.029   2.487 -0.2006  0.3071 -0.0881
19690TIP3    H180561   0.629   2.088   2.469 -0.7813  0.9978 -0.2664
19690TIP3    H280562   0.573   1.952   2.434  0.1813  0.6518 -0.4728
19691TIP3   OH280563   4.805   5.468  11.386  0.3207  0.3901 -0.1023
19691TIP3    H180564   4.777   5.541  11.441  0.1176 -0.5111  1.0293
19691TIP3    H280565   4.731   5.451  11.329  0.1579  0.7121  0.0091
19692TIP3   OH280566   3.799   3.887   0.321 -0.5549 -0.1446 -0.0644
19692TIP3    H180567   3.774   3.853   0.407 -0.7113 -1.2068 -0.5066
19692TIP3    H280568   3.894   3.886   0.321 -0.5463 -1.5180 -0.3963
19693TIP3   OH280569   3.894   3.449   4.854  0.5233 -0.0974  0.3356
19693TIP3    H180570   3.887   3.541   4.880  1.2112 -0.6914  2.8834
19693TIP3    H280571   3.806   3.414   4.866  0.6977 -0.2156  1.3855
19694TIP3   OH280572   4.613   3.746  16.961  0.1434  0.4735  0.1712
19694TIP3    H180573   4.559   3.804  16.907  1.1913  1.8625  0.5719
19694TIP3    H280574   4.635   3.673  16.904 -0.3373  0.9748 -0.6721
19695TIP3   OH280575   4.767   6.584  15.255 -0.8286 -0.5589 -0.3158
19695TIP3    H180576   4.765   6.533  15.174  0.5279 -1.2390  0.0580
19695TIP3    H280577   4.845   6.638  15.248 -0.0355 -1.4671  1.0056
19696TIP3   OH280578   6.235   2.671  15.622 -0.1461 -0.0506  0.1016
19696TIP3    H180579   6.181   2.746  15.647  0.3659 -0.1531  1.6085
19696TIP3    H280580   6.172   2.606  15.591 -0.7770  0.2400  0.7577
19697TIP3   OH280581   6.229   1.208  10.194  0.8976 -0.1487 -0.4311
19697TIP3    H180582   6.155   1.176  10.143  2.2511 -0.5697 -2.2456
19697TIP3    H280583   6.275   1.129  10.222  2.2760  0.0731 -1.8944
19698TIP3   OH280584   5.316   3.647   1.481  0.1790 -0.6463 -0.0696
19698TIP3    H180585   5.234   3.682   1.514  0.3659 -0.9563  0.7595
19698TIP3    H280586   5.382   3.677   1.543  0.7390 -0.1946 -0.8609
19699TIP3   OH280587   4.148   4.600  13.421 -1.0240  0.0577  0.6814
19699TIP3    H180588   4.141   4.542  13.345 -0.5532  0.1151  0.5937
19699TIP3    H280589   4.138   4.688  13.385 -3.0862 -0.0000  0.9782
19700TIP3   OH280590   4.993   1.190  16.976  0.0378 -0.1876 -0.1687
19700TIP3    H180591   4.990   1.179  16.881  0.4705 -0.2001 -0.1836
19700TIP3    H280592   5.023   1.280  16.988  0.7018 -0.4212 -0.0472
19701TIP3   OH280593   2.608   6.272   1.888 -0.3235  0.2728 -0.1893
19701TIP3    H180594   2.553   6.301   1.815  0.7763 -0.7344 -1.4797
19701TIP3    H280595   2.546   6.244   1.956 -1.4568 -1.5156 -1.8588
19702TIP3   OH280596   2.560   5.653   5.497 -0.6578 -0.4897 -0.5396
19702TIP3    H180597   2.615   5.584   5.459 -2.5054 -2.3295 -0.0202
19702TIP3    H280598   2.543   5.623   5.587 -1.2163  0.8257 -0.1935
19703TIP3   OH280599   5.939   3.164   3.506 -0.2305  0.2300 -0.8244
19703TIP3    H180600   6.003   3.235   3.500  1.1691 -0.8425  0.6222
19703TIP3    H280601   5.887   3.185   3.584  1.4858 -1.2483  0.8240
19704TIP3   OH280602   4.288   0.916  12.935  0.4340  0.1231  0.1654
19704TIP3    H180603   4.204   0.871  12.947  0.0508  0.8018  0.0357
19704TIP3    H280604   4.319   0.931  13.025  1.5863 -2.2484  0.2374
19705TIP3   OH280605   2.056   5.012   5.543  0.1579  0.0092  0.0115
19705TIP3    H180606   1.975   4.979   5.583  0.8098 -1.9771 -0.2073
19705TIP3    H280607   2.027   5.060   5.465 -0.7711 -1.6934 -0.7381
19706TIP3   OH280608   0.093   5.512   0.465  0.0412 -0.0900 -0.0619
19706TIP3    H180609   0.035   5.552   0.529  2.0144 -0.7663  2.2984
19706TIP3    H280610   0.050   5.430   0.441 -0.7575  0.2033  0.3535
19707TIP3   OH280611   6.688   6.192   0.576  0.1017 -0.2010 -0.0869
19707TIP3    H180612   6.754   6.256   0.550 -0.8298  0.6702 -0.3532
19707TIP3    H280613   6.730   6.143   0.647  0.5903  1.1704  0.6192
19708TIP3   OH280614   1.755   2.791  17.075  0.4747  0.2705  0.2841
19708TIP3    H180615   1.808   2.863  17.110  1.0627  0.2341 -0.5090
19708TIP3    H280616   1.799   2.712  17.104 -0.2721  0.2138  1.3072
19709TIP3   OH280617   1.191   6.627  15.635  0.0029 -0.2519  0.6181
19709TIP3    H180618   1.166   6.649  15.545 -2.3708 -1.7343  0.8528
19709TIP3    H280619   1.267   6.569  15.625  1.3359  1.5292 -0.2618
19710TIP3   OH280620   0.856   1.725   2.852  0.5798  0.8269 -0.7134
19710TIP3    H180621   0.841   1.751   2.761  2.1829  2.0912 -0.6463
19710TIP3    H280622   0.918   1.653   2.846  0.4797  0.7339 -0.6299
19711TIP3   OH280623   3.972   6.290  14.048 -0.1941  0.0592 -0.2630
19711TIP3    H180624   4.019   6.209  14.030  0.0422  0.0818  0.2215
19711TIP3    H280625   3.894   6.286  13.994  1.3680  0.9911 -2.7904
19712TIP3   OH280626   5.751   2.581  15.617  0.3594 -0.4302 -0.2793
19712TIP3    H180627   5.698   2.609  15.691  0.9907 -0.1189  0.0669
19712TIP3    H280628   5.692   2.582  15.542 -0.1101 -0.0665  0.0954
19713TIP3   OH280629   4.738   0.324  12.161  0.0499 -0.0538  0.5790
19713TIP3    H180630   4.793   0.340  12.084 -1.7854 -0.4712 -0.8676
19713TIP3    H280631   4.733   0.228  12.167 -0.2044 -0.0189  0.9329
19714TIP3   OH280632   1.380   0.415   4.528  0.4950 -0.5840  0.0937
19714TIP3    H180633   1.437   0.446   4.599  0.3398  2.5562 -0.9905
19714TIP3    H280634   1.291   0.422   4.564  0.5620 -2.2002  0.6413
19715TIP3   OH280635   2.572   5.543   5.744 -0.3805 -0.6532  0.0148
19715TIP3    H180636   2.598   5.451   5.748 -0.9197 -0.9797 -2.4696
19715TIP3    H280637   2.650   5.591   5.774  0.3447 -1.8648  0.1261
19716TIP3   OH280638   6.095   0.554   0.563  0.3804  0.0616 -0.2898
19716TIP3    H180639   6.009   0.522   0.535  0.1898  0.4643 -0.1694
19716TIP3    H280640   6.084   0.649   0.571  1.3569  0.4014 -2.2016
19717TIP3   OH280641   0.031   2.214   0.672  0.1051  0.0116 -0.0488
19717TIP3    H180642   0.103   2.270   0.700  0.6149 -0.7748  0.2165
19717TIP3    H280643  -0.019   2.270   0.612  1.0722  0.4857 -0.4442
19718TIP3   OH280644   4.964   6.181  15.062  0.8053 -0.1100  0.6931
19718TIP3    H180645   4.973   6.145  14.974 -3.2455 -0.3088  0.1759
19718TIP3    H280646   5.009   6.118  15.118  1.8035 -1.0072 -1.0345
19719TIP3   OH280647   2.818   2.690  13.940  0.2749 -0.6810 -0.5444
19719TIP3    H180648   2.802   2.680  13.846  0.9628  1.1489 -0.9016
19719TIP3    H280649   2.872   2.769  13.947  2.8287 -2.4300  1.1784
19720TIP3   OH280650   3.902   3.929  14.914 -0.1858 -0.0603  0.0237
19720TIP3    H180651   3.878   3.848  14.960  2.3284 -1.4180 -0.9087
19720TIP3    H280652   3.955   3.900  14.840  2.0500  2.5090  0.4914
19721TIP3   OH280653   3.606   1.445   5.235 -0.2929 -0.0287 -0.7319
19721TIP3    H180654   3.524   1.487   5.210  0.3495  1.9195  0.2791
19721TIP3    H280655   3.593   1.420   5.327 -0.3466 -1.3274 -1.0674
19722TIP3   OH280656   2.556   2.448  13.087  0.1676 -0.4480 -0.4097
19722TIP3    H180657   2.566   2.488  13.173 -0.5823 -0.7062 -0.1916
19722TIP3    H280658   2.627   2.484  13.034  0.6578 -0.3190  0.3295
19723TIP3   OH280659   4.693   5.353  15.179  0.0384 -0.1274  0.3363
19723TIP3    H180660   4.642   5.427  15.147  0.2084  0.0334  0.4365
19723TIP3    H280661   4.652   5.331  15.263 -0.0726 -0.2084  0.2606
19724TIP3   OH280662   5.365   2.428  13.245  0.5664 -0.0642 -0.1806
19724TIP3    H180663   5.330   2.445  13.332  1.4378 -2.6591  0.7753
19724TIP3    H280664   5.454   2.463  13.248 -0.1930  2.1097 -0.9589
19725TIP3   OH280665   0.008   1.887  15.027 -0.2847  0.1644  0.0176
19725TIP3    H180666  -0.025   1.964  15.073  2.0101  3.2103 -2.9308
19725TIP3    H280667   0.089   1.916  14.986  0.2503 -3.6056 -2.0865
19726TIP3   OH280668   5.486   0.565  15.039  0.1148 -0.2350 -0.1842
19726TIP3    H180669   5.406   0.610  15.065 -0.2420 -1.2039  0.4387
19726TIP3    H280670   5.508   0.602  14.953 -1.3904 -0.4574 -0.6834
19727TIP3   OH280671   3.932   3.239   0.421  0.5857 -0.1733  0.7492
19727TIP3    H180672   4.006   3.299   0.414 -0.5701  1.3128  0.6452
19727TIP3    H280673   3.857   3.296   0.438 -0.5669 -1.6067  0.6655
19728TIP3   OH280674   2.353   2.467   2.771  0.1440 -0.1764 -0.5451
19728TIP3    H180675   2.337   2.515   2.690 -0.0747  0.4762 -0.1223
19728TIP3    H280676   2.271   2.473   2.820  0.9254  1.3900  0.7108
19729TIP3   OH280677   2.803   1.062  14.672  0.1115 -0.1711  0.2338
19729TIP3    H180678   2.856   1.095  14.600  1.2504  1.5167  1.7263
19729TIP3    H280679   2.867   1.033  14.737 -0.7194  1.3971  1.8545
19730TIP3   OH280680   3.866   3.423   3.889  0.2069  0.7086 -0.6820
19730TIP3    H180681   3.778   3.414   3.853  0.5159  3.8756 -2.5256
19730TIP3    H280682   3.918   3.359   3.840 -0.7351 -0.0731 -0.7019
19731TIP3   OH280683   3.705   5.013  11.788  0.1269 -0.1621  0.6086
19731TIP3    H180684   3.700   5.049  11.876  1.0486  0.7424  0.3158
19731TIP3    H280685   3.688   5.088  11.730  0.0572 -0.6316  0.0112
19732TIP3   OH280686   4.435   0.576   0.102 -0.1053  0.0794  0.1189
19732TIP3    H180687   4.526   0.548   0.114  0.9465  2.1087 -2.1799
19732TIP3    H280688   4.408   0.535   0.020 -0.4838  1.1779 -0.3282
19733TIP3   OH280689   0.856   3.517   5.715  0.0524  0.3190 -0.0952
19733TIP3    H180690   0.793   3.521   5.787  0.2308  1.4718  0.0277
19733TIP3    H280691   0.941   3.526   5.757  0.1355  1.4308 -0.4649
19734TIP3   OH280692   0.947   4.824   2.414 -0.3554 -0.3971  0.4736
19734TIP3    H180693   0.916   4.869   2.492  0.6063 -0.3743  0.8454
19734TIP3    H280694   1.003   4.754   2.446 -0.7023 -0.9777 -0.1601
19735TIP3   OH280695   1.114   4.425  11.131 -0.8792  0.0366  0.0452
19735TIP3    H180696   1.140   4.369  11.057 -1.3274  0.5247 -0.4936
19735TIP3    H280697   1.064   4.495  11.091 -0.3748  0.7992  0.7187
19736TIP3   OH280698   3.592   0.236  16.718  0.2010  0.1072 -0.3619
19736TIP3    H180699   3.612   0.242  16.811  1.7284  0.1499 -0.6645
19736TIP3    H280700   3.524   0.301  16.704 -0.9858 -0.7960  0.9489
19737TIP3   OH280701   4.642   6.086  13.069  0.5299  0.1392  0.2805
19737TIP3    H180702   4.644   6.092  12.974  2.6253 -1.0289  0.1883
19737TIP3    H280703   4.716   6.139  13.099 -1.3776  2.3200  1.4688
19738TIP3   OH280704   3.885   1.525  14.335 -0.0645 -0.2360 -0.5041
19738TIP3    H180705   3.814   1.491  14.280 -0.5335 -0.1485  0.0306
19738TIP3    H280706   3.840   1.565  14.410  0.4890  1.0470 -0.8313
19739TIP3   OH280707   2.846   0.855   3.011 -0.5234  0.2435  0.0708
19739TIP3    H180708   2.885   0.850   2.923  2.5069 -2.5523  1.3412
19739TIP3    H280709   2.888   0.931   3.052 -0.1408  0.1586 -0.1595
19740TIP3   OH280710   3.644   4.572   3.161 -0.2202  0.1736 -0.1216
19740TIP3    H180711   3.665   4.542   3.249  3.3212  0.9852 -0.5433
19740TIP3    H280712   3.642   4.492   3.108  0.9918 -0.0576  0.1536
19741TIP3   OH280713   1.216   0.438  13.956 -0.1522 -0.0200 -0.1926
19741TIP3    H180714   1.123   0.437  13.981 -0.4074 -1.3273 -1.0659
19741TIP3    H280715   1.249   0.522  13.988 -1.7601  0.6983 -0.3158
19742TIP3   OH280716   3.308   6.726  14.227  0.1649 -0.5289 -0.0593
19742TIP3    H180717   3.393   6.711  14.269 -1.0005  0.3008  2.8779
19742TIP3    H280718   3.273   6.638  14.213  1.3106 -0.8680 -0.9533
19743TIP3   OH280719   2.264   2.912   0.965  0.3742  0.9933  0.1980
19743TIP3    H180720   2.338   2.945   1.017 -0.0535  1.4842  0.5027
19743TIP3    H280721   2.221   2.849   1.023  2.5937 -2.0963 -1.1990
19744TIP3   OH280722   6.762   2.412  11.873 -0.1927 -0.5117  0.2674
19744TIP3    H180723   6.676   2.408  11.915  0.7284  0.4469  2.3880
19744TIP3    H280724   6.814   2.467  11.931  2.1368 -1.8596 -0.4275
19745TIP3   OH280725   3.749   4.256  16.485 -0.5056 -1.0349 -0.0469
19745TIP3    H180726   3.839   4.224  16.490 -0.7369 -1.6608  0.2753
19745TIP3    H280727   3.751   4.340  16.531 -0.0933 -1.0622 -0.0088
19746TIP3   OH280728   6.606   6.299   2.335  0.9017 -0.1665 -0.4094
19746TIP3    H180729   6.556   6.354   2.396  1.5092  0.2705 -0.2958
19746TIP3    H280730   6.543   6.276   2.267  0.3789 -0.1360  0.0518
19747TIP3   OH280731   1.744   0.912  16.885 -0.0037  0.4534 -0.1564
19747TIP3    H180732   1.754   0.996  16.930 -0.3762 -0.0966  0.9887
19747TIP3    H280733   1.735   0.935  16.793  0.2282  1.6480  0.1068
19748TIP3   OH280734   5.095   1.032   3.679 -0.4511  0.2866 -0.3052
19748TIP3    H180735   5.150   1.061   3.753  2.1335  0.8110 -2.2718
19748TIP3    H280736   5.033   1.103   3.665 -1.3780 -0.0699  1.6465
19749TIP3   OH280737   3.742   6.597   4.928  0.0650  0.0790  0.5254
19749TIP3    H180738   3.829   6.638   4.928 -0.6752  1.7112  0.9364
19749TIP3    H280739   3.716   6.595   4.837  0.0587  0.6233  0.5157
19750TIP3   OH280740   3.861   1.958  14.875  0.3235  0.1127 -0.3394
19750TIP3    H180741   3.768   1.980  14.881  0.3056 -0.1314  0.3851
19750TIP3    H280742   3.864   1.864  14.893  0.9052  0.4781  1.6972
19751TIP3   OH280743   4.317   6.097  10.975  0.0645 -0.4704 -0.1040
19751TIP3    H180744   4.267   6.051  10.907  0.2142  0.6344 -1.0030
19751TIP3    H280745   4.404   6.108  10.936 -0.1416  1.1016 -0.1974
19752TIP3   OH280746   2.135   6.234  16.901 -0.3276  0.3055 -0.7207
19752TIP3    H180747   2.139   6.321  16.940  0.5674 -0.2093  0.3865
19752TIP3    H280748   2.042   6.219  16.884 -0.6389  0.9266  0.3583
19753TIP3   OH280749   0.099   2.164  13.928  0.3153  0.0958 -0.6001
19753TIP3    H180750   0.058   2.085  13.893  0.3566 -0.0949 -0.2176
19753TIP3    H280751   0.026   2.225  13.941 -0.0396 -0.6505  1.2023
19754TIP3   OH280752   5.094   4.897  16.892  0.0933  0.7373 -0.3879
19754TIP3    H180753   5.094   4.836  16.818  0.8231 -1.3811  1.2362
19754TIP3    H280754   5.171   4.952  16.876  0.6784 -0.1740 -0.8740
19755TIP3   OH280755   0.310   4.420  16.460  0.1037 -0.1632 -0.4046
19755TIP3    H180756   0.293   4.512  16.438 -1.3238 -0.5946 -1.2123
19755TIP3    H280757   0.405   4.412  16.453  0.4443  1.6042  1.2084
19756TIP3   OH280758   0.578   4.064   1.704 -0.4531  0.1711 -0.4331
19756TIP3    H180759   0.509   4.059   1.770 -0.2062  0.6401 -0.1354
19756TIP3    H280760   0.587   3.974   1.672 -2.0076  0.2780 -1.3104
19757TIP3   OH280761   2.299   6.734   4.994 -0.1080 -0.2392  0.3894
19757TIP3    H180762   2.288   6.728   5.089 -0.8494 -1.1692  0.2603
19757TIP3    H280763   2.221   6.692   4.958  0.2812 -0.1221 -0.6320
19758TIP3   OH280764   5.704   0.874  10.805  0.4701  0.7435 -0.0470
19758TIP3    H180765   5.763   0.816  10.758 -2.4674 -0.4629 -2.5890
19758TIP3    H280766   5.668   0.821  10.876 -0.2079  0.2646 -0.7309
19759TIP3   OH280767   5.398   5.577   0.667 -0.2939 -0.0036  0.3238
19759TIP3    H180768   5.385   5.643   0.599  0.0429  0.5660  0.7985
19759TIP3    H280769   5.421   5.628   0.745 -0.9569 -0.6297  0.9402
19760TIP3   OH280770   1.877   5.825  14.595  0.0255 -0.2078  0.0163
19760TIP3    H180771   1.846   5.843  14.684  0.0981  0.0653 -0.0126
19760TIP3    H280772   1.907   5.735  14.599 -2.0459 -0.9629 -0.3199
19761TIP3   OH280773   1.054   6.164   2.175 -0.1334 -0.4978 -0.2544
19761TIP3    H180774   1.148   6.169   2.193 -0.3350  0.3595  0.6145
19761TIP3    H280775   1.016   6.237   2.223 -1.3845 -1.4463  0.2491
19762TIP3   OH280776   2.068   2.502  11.752 -0.6882  0.2222 -0.7520
19762TIP3    H180777   2.003   2.559  11.793 -0.1269  0.2111  0.1762
19762TIP3    H280778   2.031   2.414  11.759 -0.9346  0.3089 -0.9520
19763TIP3   OH280779   1.787   5.002   6.220 -0.2343  0.1873  0.5885
19763TIP3    H180780   1.787   4.908   6.240  0.1868  0.1928  0.6135
19763TIP3    H280781   1.876   5.031   6.239  1.0609 -0.3108 -3.7515
19764TIP3   OH280782   5.478   0.552   4.396 -0.3074  0.3146 -0.1532
19764TIP3    H180783   5.571   0.529   4.402 -0.3453  0.2533  0.2167
19764TIP3    H280784   5.476   0.645   4.420 -0.1950  0.6411 -1.3251
19765TIP3   OH280785   5.871   1.559   3.175 -0.2116 -0.6835  0.2016
19765TIP3    H180786   5.837   1.630   3.229  0.6494  0.7075 -0.9895
19765TIP3    H280787   5.964   1.554   3.197  0.0299 -0.4738 -0.7042
19766TIP3   OH280788   2.625   2.544   6.523  0.1252  0.2461  0.2782
19766TIP3    H180789   2.553   2.604   6.545 -0.5972 -0.4274 -0.2281
19766TIP3    H280790   2.595   2.459   6.555  0.4515 -0.1398 -0.4301
19767TIP3   OH280791   4.612   3.342  16.865 -0.0429  0.0163  0.1869
19767TIP3    H180792   4.519   3.317  16.865 -0.1825  0.5103 -0.5451
19767TIP3    H280793   4.619   3.406  16.936 -0.6965  1.4627 -0.9945
19768TIP3   OH280794   5.136   6.137  17.114  0.3470  0.3115 -0.1187
19768TIP3    H180795   5.116   6.206  17.051 -0.2423 -0.1017 -0.3894
19768TIP3    H280796   5.225   6.110  17.091 -0.8021 -1.7543 -2.6388
19769TIP3   OH280797   1.363   1.353  15.008 -0.0944 -0.3738 -0.4357
19769TIP3    H180798   1.431   1.369  14.942 -1.2731  0.2931 -1.5360
19769TIP3    H280799   1.281   1.351  14.958 -0.8877 -1.2553  0.8413
19770TIP3   OH280800   2.245   0.288  15.816 -0.3144 -0.0570  0.1880
19770TIP3    H180801   2.302   0.358  15.785 -1.1338  0.2764 -0.5978
19770TIP3    H280802   2.280   0.266  15.902  2.0342 -1.0089 -0.9162
19771TIP3   OH280803   6.447   1.363  14.681 -0.2026 -0.5462 -0.2776
19771TIP3    H180804   6.533   1.401  14.660  0.8820 -1.9554  1.3608
19771TIP3    H280805   6.424   1.313  14.603  1.0825 -1.1349 -0.3225
19772TIP3   OH280806   3.564   3.918   3.639  0.3542  0.1022  0.3116
19772TIP3    H180807   3.483   3.890   3.681  0.2542 -0.4435 -0.2242
19772TIP3    H280808   3.617   3.838   3.635 -0.2413 -0.2373 -1.9667
19773TIP3   OH280809   5.447   5.745   0.186  0.8967  0.5215 -0.0637
19773TIP3    H180810   5.505   5.669   0.180  2.4369  1.5344  1.1645
19773TIP3    H280811   5.480   5.804   0.118  1.7775  1.3583  1.0440
19774TIP3   OH280812   1.719   2.633  15.965  0.3317 -0.3260 -0.2479
19774TIP3    H180813   1.779   2.611  16.035 -0.6580 -1.0203  0.4030
19774TIP3    H280814   1.646   2.677  16.008 -0.8425 -1.7918 -0.6364
19775TIP3   OH280815   4.093   3.178  16.886  0.5943  0.3571 -0.8203
19775TIP3    H180816   4.059   3.089  16.875  0.0573  0.6630 -1.6796
19775TIP3    H280817   4.179   3.165  16.927 -0.4086 -0.4359  1.2041
19776TIP3   OH280818   4.598   4.197  11.723 -0.0617  1.0206  0.6226
19776TIP3    H180819   4.690   4.222  11.726 -0.2799  2.0801 -0.4178
19776TIP3    H280820   4.597   4.105  11.751  1.5582  0.3893 -1.1059
19777TIP3   OH280821   4.604   3.066   5.667 -0.2942 -0.2051  0.2135
19777TIP3    H180822   4.616   2.983   5.621 -0.3459 -0.2387  0.2610
19777TIP3    H280823   4.564   3.042   5.751 -1.1735 -0.0447 -0.1522
19778TIP3   OH280824   3.321   6.452   1.781 -0.2052 -0.2304  0.4240
19778TIP3    H180825   3.389   6.390   1.754 -0.6605 -1.2453  1.4920
19778TIP3    H280826   3.240   6.402   1.775 -0.9746  1.1145 -1.3319
19779TIP3   OH280827   2.225   2.683  16.958 -1.0369 -0.3141 -0.0750
19779TIP3    H180828   2.190   2.597  16.981 -0.5872 -0.7028 -0.8472
19779TIP3    H280829   2.212   2.735  17.038 -1.1817 -1.1252  0.4461
19780TIP3   OH280830   2.546   5.749  15.479  0.1547 -0.2098 -0.1234
19780TIP3    H180831   2.468   5.801  15.460 -0.7563 -1.3926  0.2412
19780TIP3    H280832   2.562   5.760  15.572  0.0462 -0.4736 -0.0732
19781TIP3   OH280833   4.244   6.321  13.094 -0.7457 -0.1406 -0.3287
19781TIP3    H180834   4.287   6.292  13.174 -0.3754  0.4101 -0.3231
19781TIP3    H280835   4.185   6.391  13.122  1.3098  1.9019 -0.8651
19782TIP3   OH280836   0.602   3.658   5.005  0.7265 -0.7148  0.2404
19782TIP3    H180837   0.609   3.646   5.100  0.5347 -0.1922  0.3230
19782TIP3    H280838   0.569   3.747   4.994 -0.0275 -1.0454 -0.2981
19783TIP3   OH280839   6.153   5.905   1.114  0.1181 -1.0554 -0.1490
19783TIP3    H180840   6.174   5.998   1.108  0.1411 -1.1343 -2.1887
19783TIP3    H280841   6.161   5.884   1.207 -0.1874  1.0304  0.4002
19784TIP3   OH280842   6.555   1.393   3.547 -0.0455  0.7061 -0.3170
19784TIP3    H180843   6.573   1.486   3.561  2.1535  0.2690  0.2067
19784TIP3    H280844   6.641   1.355   3.528 -0.6780 -1.4152  0.7165
19785TIP3   OH280845   5.802   2.787  10.913 -0.1333 -0.0623 -0.5701
19785TIP3    H180846   5.874   2.725  10.896  0.2527  1.0185 -3.4282
19785TIP3    H280847   5.846   2.870  10.930 -0.6401 -0.4433  3.5286
19786TIP3   OH280848   1.231   1.208  11.457 -0.4664 -0.2117  0.0627
19786TIP3    H180849   1.279   1.187  11.537  1.6445  1.0806 -0.7708
19786TIP3    H280850   1.255   1.299  11.438 -0.2764 -0.7079 -2.4178
19787TIP3   OH280851   2.040   1.824  16.525 -0.4975  0.5018 -0.1874
19787TIP3    H180852   1.988   1.757  16.571  0.7104  0.7056  1.5895
19787TIP3    H280853   2.009   1.907  16.563  1.7038  0.5759  1.6661
19788TIP3   OH280854   6.137   2.051   2.839 -0.0433  0.0965  0.1386
19788TIP3    H180855   6.065   2.099   2.798  0.7823  2.1305  0.9128
19788TIP3    H280856   6.210   2.060   2.778  0.1325 -0.1573  0.3103
19789TIP3   OH280857   6.513   2.755  16.733  0.0049  0.1200 -0.1173
19789TIP3    H180858   6.433   2.782  16.778 -0.5811 -2.1696  0.3245
19789TIP3    H280859   6.581   2.761  16.800 -0.5011 -1.3922  0.5574
19790TIP3   OH280860   4.341   4.485   5.404 -0.2813  0.0659  0.3912
19790TIP3    H180861   4.429   4.518   5.388  0.2622 -0.8882  1.2191
19790TIP3    H280862   4.353   4.418   5.472 -1.2056 -2.2155 -1.5314
19791TIP3   OH280863   6.580   2.166  12.829  0.2711 -0.2659  0.7568
19791TIP3    H180864   6.583   2.139  12.737  0.0142  1.0640  0.3467
19791TIP3    H280865   6.641   2.107  12.872  1.7090  0.1884 -0.5665
19792TIP3   OH280866   3.997   2.245  15.847  0.5479  0.2436 -0.0019
19792TIP3    H180867   3.903   2.234  15.834  0.6396 -0.0185 -0.4658
19792TIP3    H280868   4.004   2.305  15.922  0.0232 -0.7311  0.8547
19793TIP3   OH280869   0.707   5.227   3.980 -0.5773 -0.1440  0.2363
19793TIP3    H180870   0.764   5.156   3.950 -0.7892 -0.2290  0.0291
19793TIP3    H280871   0.621   5.205   3.944 -0.8234 -0.2116  0.8525
19794TIP3   OH280872   1.918   5.946  12.917 -0.2384 -0.3118 -0.4140
19794TIP3    H180873   1.832   5.979  12.891  0.5254  0.0735 -2.7450
19794TIP3    H280874   1.980   5.995  12.863  1.2749 -2.2260 -0.5530
19795TIP3   OH280875   5.863   0.282   0.669 -0.1934  0.2173  0.5949
19795TIP3    H180876   5.823   0.355   0.622 -0.7969 -0.7227 -0.4111
19795TIP3    H280877   5.945   0.265   0.623  0.1784  0.5593  1.1240
19796TIP3   OH280878   3.969   0.490   3.254  0.8603  0.6404  0.4377
19796TIP3    H180879   4.008   0.419   3.203  1.0404  1.1719 -0.1933
19796TIP3    H280880   4.044   0.535   3.294  0.9533  1.7178 -0.8495
19797TIP3   OH280881   2.146   4.081  16.481 -0.3732  0.1663 -0.7348
19797TIP3    H180882   2.109   4.160  16.441 -1.9165  0.2306  0.7217
19797TIP3    H280883   2.168   4.108  16.570 -1.8595 -1.2644  0.1113
19798TIP3   OH280884   4.111   3.806   5.561  0.4091 -0.2903  0.4026
19798TIP3    H180885   4.086   3.772   5.647 -1.4684 -1.2765 -0.4708
19798TIP3    H280886   4.046   3.874   5.543 -0.1750 -1.1639 -0.8812
19799TIP3   OH280887   3.240   2.880   3.681  0.2988  0.0025 -0.3708
19799TIP3    H180888   3.311   2.876   3.618 -1.8911 -0.9604 -2.9913
19799TIP3    H280889   3.281   2.859   3.765  3.2227  0.5091 -1.5535
19800TIP3   OH280890   4.132   2.870   6.517  0.6950 -0.5717  0.2107
19800TIP3    H180891   4.094   2.924   6.448  0.9629 -1.1634 -0.4045
19800TIP3    H280892   4.062   2.812   6.545 -0.0811  1.1264  1.9836
19801TIP3   OH280893   3.701   4.947  14.173  0.0172  0.1115 -0.7105
19801TIP3    H180894   3.773   4.888  14.196  1.0485  1.7302  0.4097
19801TIP3    H280895   3.683   4.927  14.081 -0.3777 -2.6050 -0.1302
19802TIP3   OH280896   0.833   0.566  14.940  0.3235  0.1767  0.1810
19802TIP3    H180897   0.892   0.491  14.936  0.5908  0.3671  0.4624
19802TIP3    H280898   0.792   0.561  15.026 -0.5909 -0.3347 -0.2691
19803TIP3   OH280899   6.682   6.609  11.791 -0.4458 -0.6578 -0.3410
19803TIP3    H180900   6.676   6.654  11.707  2.2194 -1.8527 -1.2691
19803TIP3    H280901   6.655   6.519  11.772 -1.2604 -0.5965  0.4475
19804TIP3   OH280902   4.430   4.149   0.870 -0.0453 -0.2347 -0.0474
19804TIP3    H180903   4.520   4.165   0.842  0.0600 -1.1580 -0.2372
19804TIP3    H280904   4.408   4.063   0.835 -0.7153 -0.3905  0.7195
19805TIP3   OH280905   6.053   4.502  14.598  0.2520 -0.4131 -0.6875
19805TIP3    H180906   6.031   4.594  14.586  2.1946  0.2713  0.3637
19805TIP3    H280907   6.079   4.496  14.690  2.0041 -1.5505 -1.2055
19806TIP3   OH280908   3.560   6.442  15.801 -0.1713  0.3113  0.0730
19806TIP3    H180909   3.507   6.382  15.748 -0.0327 -1.0566  1.4099
19806TIP3    H280910   3.649   6.409  15.790 -0.3097 -1.0186  2.3418
19807TIP3   OH280911   2.788   4.653   0.520  0.5309  0.4173 -0.5744
19807TIP3    H180912   2.845   4.726   0.499 -1.1653  2.3946  1.1236
19807TIP3    H280913   2.773   4.661   0.615  0.5528 -2.3794 -0.2553
19808TIP3   OH280914   3.251   5.249   0.968 -0.1499 -0.0609 -0.1118
19808TIP3    H180915   3.302   5.232   0.889  0.9062  1.3080  0.2191
19808TIP3    H280916   3.196   5.172   0.979  1.7710 -1.5777 -0.5622
19809TIP3   OH280917   2.193   1.708   5.973  0.3908 -0.0092 -0.3510
19809TIP3    H180918   2.150   1.748   6.048  0.7336  0.7597 -0.5568
19809TIP3    H280919   2.283   1.738   5.978  0.3151  0.4304 -1.3243
19810TIP3   OH280920   4.793   3.676   1.586  0.3400  0.1660  0.2178
19810TIP3    H180921   4.711   3.676   1.635  0.5380 -2.7918  0.7364
19810TIP3    H280922   4.774   3.627   1.506  2.0489 -2.7195  1.4266
19811TIP3   OH280923   0.605   1.984   4.297  0.0291  0.7722 -0.6192
19811TIP3    H180924   0.678   1.991   4.359 -1.3530 -0.2874  1.2519
19811TIP3    H280925   0.622   1.903   4.250 -0.5184 -0.1549  0.7029
19812TIP3   OH280926   6.689   5.894   4.679  0.0523  0.0685  0.0660
19812TIP3    H180927   6.652   5.979   4.659 -2.4854 -0.7804  0.7856
19812TIP3    H280928   6.732   5.906   4.764 -0.9634  0.4790  0.5389
19813TIP3   OH280929   4.886   3.867  10.818  0.1706 -0.1499  0.0501
19813TIP3    H180930   4.917   3.958  10.818  2.4917 -0.8353  1.6173
19813TIP3    H280931   4.895   3.839  10.909 -1.2461 -1.7362 -0.2626
19814TIP3   OH280932   4.643   1.049   3.462 -0.1302 -0.2565 -0.1488
19814TIP3    H180933   4.632   1.028   3.555 -0.2823  0.8560  0.1077
19814TIP3    H280934   4.591   0.984   3.416 -0.9009 -0.1995  0.6160
19815TIP3   OH280935   1.843   5.906   5.659 -0.0141  0.7155 -0.0635
19815TIP3    H180936   1.758   5.902   5.616 -0.3028  0.1463  0.5532
19815TIP3    H280937   1.904   5.871   5.594 -0.5044 -0.5156  0.1125
19816TIP3   OH280938   1.520   3.222   2.524 -0.1392 -0.5625 -0.5370
19816TIP3    H180939   1.498   3.161   2.594  0.3822  0.8196  0.8950
19816TIP3    H280940   1.500   3.309   2.561  1.1461  0.2658 -1.7015
19817TIP3   OH280941   2.860   3.369   1.737  0.1162 -0.5139  0.1692
19817TIP3    H180942   2.859   3.274   1.729 -1.8727 -0.6131  0.9818
19817TIP3    H280943   2.835   3.401   1.651  4.4017 -0.4722 -1.2962
19818TIP3   OH280944   1.029   2.033   6.363 -0.4861 -0.0584 -0.0185
19818TIP3    H180945   1.084   2.111   6.369  0.4492 -0.7351  0.4608
19818TIP3    H280946   0.982   2.044   6.281  1.8995 -0.4153 -1.5466
19819TIP3   OH280947   3.702   3.427  13.558 -0.1350 -0.1050  0.1146
19819TIP3    H180948   3.713   3.348  13.506 -0.5767 -0.3451  0.3785
19819TIP3    H280949   3.776   3.482  13.534 -0.2152 -0.2996 -0.6070
19820TIP3   OH280950   5.748   1.241  13.104  0.0830 -0.1965  0.0252
19820TIP3    H180951   5.770   1.328  13.071  1.5472 -0.9677 -1.1795
19820TIP3    H280952   5.710   1.196  13.029  1.1841 -1.1953  0.0322
19821TIP3   OH280953   5.108   4.333  12.357  0.2660 -0.3833 -0.1966
19821TIP3    H180954   5.071   4.386  12.428  1.7052  0.7276 -0.2178
19821TIP3    H280955   5.068   4.368  12.277 -0.1565 -0.5585 -0.0628
19822TIP3   OH280956   3.727   1.238   3.623  0.3800  0.4198 -0.4342
19822TIP3    H180957   3.750   1.318   3.575  0.5077  2.3710  2.6373
19822TIP3    H280958   3.641   1.213   3.587  0.8020  1.2926 -2.1669
19823TIP3   OH280959   3.841   1.801  16.851 -0.1741  0.0183  0.1754
19823TIP3    H180960   3.819   1.754  16.932  1.8222 -0.2870  0.5905
19823TIP3    H280961   3.839   1.734  16.783  1.0702 -0.3671  0.4966
19824TIP3   OH280962   5.619   2.398   1.901 -0.1697 -0.3291  0.3006
19824TIP3    H180963   5.635   2.309   1.870 -0.2202  0.2525 -1.5270
19824TIP3    H280964   5.573   2.441   1.829  0.8575  1.5056  0.6626
19825TIP3   OH280965   1.506   3.489  13.168 -0.4124 -1.1408  0.1431
19825TIP3    H180966   1.465   3.443  13.095  1.8160 -1.1471 -1.2037
19825TIP3    H280967   1.532   3.574  13.132 -1.2544 -0.2309  1.5881
19826TIP3   OH280968   4.443   0.542  15.810 -0.5518  0.0452  0.4518
19826TIP3    H180969   4.430   0.506  15.723  2.7505  0.8484 -0.5442
19826TIP3    H280970   4.416   0.634  15.802 -0.3677  0.0860  0.2737
19827TIP3   OH280971   4.668   2.495  13.318  0.3207  0.1203 -0.0373
19827TIP3    H180972   4.678   2.412  13.364 -1.1545 -1.2264 -1.9362
19827TIP3    H280973   4.748   2.503  13.266  1.0463  0.5902  1.1138
19828TIP3   OH280974   1.523   2.511  12.029  0.1827  0.1272  0.1332
19828TIP3    H180975   1.505   2.422  12.000 -0.3744  0.6659 -1.2548
19828TIP3    H280976   1.571   2.501  12.111 -0.5052 -1.4361  0.3677
19829TIP3   OH280977   2.840   0.538   2.000  0.1348 -0.1344 -0.3535
19829TIP3    H180978   2.815   0.451   2.030  3.6679 -1.7779 -1.6772
19829TIP3    H280979   2.851   0.529   1.905  0.8605  1.6484 -0.4836
19830TIP3   OH280980   1.533   3.439   4.152 -0.3544 -0.7384 -0.3237
19830TIP3    H180981   1.467   3.385   4.197  0.1493 -0.1061  1.2434
19830TIP3    H280982   1.543   3.515   4.208  0.4696  0.0053 -1.4467
19831TIP3   OH280983   5.262   4.346  14.072 -0.2318 -0.5349  0.1254
19831TIP3    H180984   5.249   4.422  14.015  0.4355  0.1163  0.8174
19831TIP3    H280985   5.219   4.371  14.154 -0.8845 -1.3218  0.0315
19832TIP3   OH280986   1.624   5.692   1.925 -0.1711  0.4351 -0.1759
19832TIP3    H180987   1.549   5.653   1.881 -1.2118  1.9209  0.1874
19832TIP3    H280988   1.586   5.754   1.988  1.3572  1.7398 -0.4551
19833TIP3   OH280989   6.453   0.236  15.149  0.1138 -0.4712  0.9306
19833TIP3    H180990   6.399   0.187  15.087  1.2425 -0.5379 -0.0395
19833TIP3    H280991   6.435   0.328  15.130 -1.9216 -0.4143  2.6788
19834TIP3   OH280992   6.476   3.605  11.203 -0.3437 -0.1017 -0.2837
19834TIP3    H180993   6.385   3.610  11.232 -0.0543  1.3459  0.4326
19834TIP3    H280994   6.517   3.542  11.262 -0.5190  0.4149  0.3943
19835TIP3   OH280995   4.824   1.144  14.927  0.2772  0.4408  0.0788
19835TIP3    H180996   4.909   1.149  14.970  1.0470  2.6505 -1.4941
19835TIP3    H280997   4.844   1.125  14.836 -1.1482 -1.7240  0.1634
19836TIP3   OH280998   0.155   3.250   2.967 -0.3436  0.4560  0.2187
19836TIP3    H180999   0.100   3.323   2.993  2.2162  2.3911  0.6133
19836TIP3    H281000   0.211   3.234   3.042 -0.7206 -1.8909  0.0845
19837TIP3   OH281001   5.899   1.781  14.105  0.2414 -0.1046  0.3451
19837TIP3    H181002   5.838   1.800  14.177  0.3479  1.3987  0.0665
19837TIP3    H281003   5.844   1.743  14.037  0.0512 -1.0531  1.0057
19838TIP3   OH281004   0.672   6.703  12.985 -0.0564 -0.0082 -0.0327
19838TIP3    H181005   0.666   6.637  12.916  1.6267 -2.0073  1.5776
19838TIP3    H281006   0.751   6.753  12.964  1.2115 -1.4656  1.0232
19839TIP3   OH281007   2.744   2.316   5.667  0.2665  0.2087 -0.0975
19839TIP3    H181008   2.697   2.235   5.686  1.2238 -0.7540 -1.5931
19839TIP3    H281009   2.821   2.288   5.618  0.2023  2.0803 -1.3827
19840TIP3   OH281010   0.019   6.185   0.808  0.2511 -0.6642  0.2030
19840TIP3    H181011   0.106   6.162   0.842  0.3439 -0.1857  0.3048
19840TIP3    H281012   0.028   6.277   0.781 -0.8390  0.1333  2.3271
19841TIP3   OH281013   5.256   1.010  11.149  0.0930 -0.1834 -0.3958
19841TIP3    H181014   5.182   1.066  11.171  0.1697 -0.0551 -0.4625
19841TIP3    H281015   5.218   0.940  11.095 -0.4731 -1.6559  1.7700
19842TIP3   OH281016   6.060   0.018  11.891 -0.6222  0.1233 -0.1121
19842TIP3    H181017   6.061  -0.039  11.814  1.1858 -1.7337  1.1680
19842TIP3    H281018   5.976   0.001  11.933 -0.4858 -0.9196 -0.2385
19843TIP3   OH281019   5.016   3.277  12.539  0.2424  0.0825  0.2052
19843TIP3    H181020   4.947   3.341  12.524 -0.2163 -0.5256 -0.3433
19843TIP3    H281021   4.969   3.194  12.549  0.7780 -0.0735  1.5636
19844TIP3   OH281022   6.494   4.417   4.292  0.1511 -0.4235 -0.4724
19844TIP3    H181023   6.583   4.445   4.272  0.0059  0.0976 -0.3818
19844TIP3    H281024   6.443   4.441   4.215 -0.4264  1.6683  0.4983
19845TIP3   OH281025   4.390   0.824   1.394  0.0543  0.3924 -0.1662
19845TIP3    H181026   4.295   0.829   1.400 -0.0383  0.8811 -1.6409
19845TIP3    H281027   4.410   0.851   1.304  1.5133 -0.6742 -0.1951
19846TIP3   OH281028   3.290   4.419  16.572  0.0814  0.0137  0.1537
19846TIP3    H181029   3.274   4.486  16.505  1.0404  0.6980  0.5884
19846TIP3    H281030   3.344   4.354  16.527  0.8885  0.5694  0.3076
19847TIP3   OH281031   6.095   0.530   4.507 -0.0743 -0.1841  0.0443
19847TIP3    H181032   6.071   0.522   4.599 -0.9955  2.2044  0.0892
19847TIP3    H281033   6.036   0.597   4.473  1.1259 -0.0746 -1.9536
19848TIP3   OH281034   5.911   4.805   0.732 -0.3529 -0.6435  0.2374
19848TIP3    H181035   5.943   4.735   0.675  4.2766  0.2986  1.2941
19848TIP3    H281036   5.897   4.762   0.817 -1.2326 -0.8969 -0.0199
19849TIP3   OH281037   1.011   3.734  16.558 -0.4570 -0.0371  0.0287
19849TIP3    H181038   0.946   3.672  16.525  0.0507 -0.7565  0.3628
19849TIP3    H281039   0.963   3.786  16.623 -0.8727 -0.1067 -0.2132
19850TIP3   OH281040   3.395   0.275   1.740 -0.6788 -0.5064  0.2623
19850TIP3    H181041   3.306   0.312   1.741 -1.2292 -1.6677 -1.2870
19850TIP3    H281042   3.390   0.200   1.799 -0.9303 -0.9422 -0.2971
19851TIP3   OH281043   0.036   2.353   4.124 -0.1963 -0.1146  0.0847
19851TIP3    H181044   0.006   2.430   4.075  2.2928  0.4923 -0.6456
19851TIP3    H281045   0.097   2.388   4.189 -0.5645 -1.3066  1.1117
19852TIP3   OH281046   3.465   1.519  12.967  0.2001  0.1972  0.1477
19852TIP3    H181047   3.447   1.514  13.061  2.2867  0.1799  0.5812
19852TIP3    H281048   3.405   1.455  12.928 -1.9474  1.4566  1.2338
19853TIP3   OH281049   2.776   5.318   1.651 -0.1962 -0.4059 -0.9197
19853TIP3    H181050   2.688   5.287   1.629 -0.2651 -0.9205  0.0347
19853TIP3    H281051   2.774   5.412   1.632 -0.9831 -0.3978 -0.8158
19854TIP3   OH281052   2.427   3.090  15.241  0.5903  0.1038 -0.1902
19854TIP3    H181053   2.410   3.106  15.334 -0.2700  0.0493 -0.3280
19854TIP3    H281054   2.344   3.056  15.207  0.0092  2.7145 -1.5766
19855TIP3   OH281055   5.707   5.312  11.243  0.2987 -0.0292  0.1204
19855TIP3    H181056   5.620   5.349  11.257  0.0480  0.2551 -1.9326
19855TIP3    H281057   5.761   5.386  11.215  0.9480 -0.3951  0.3790
19856TIP3   OH281058   6.236   2.132  12.949  0.3105  0.6780  0.6988
19856TIP3    H181059   6.285   2.063  12.993  1.5465  1.4252  0.5380
19856TIP3    H281060   6.291   2.210  12.958  0.9452  0.7810 -2.6711
19857TIP3   OH281061   1.386   2.720  11.307 -0.1969  0.3701 -0.6678
19857TIP3    H181062   1.374   2.707  11.401 -0.8619 -3.1312 -1.1305
19857TIP3    H281063   1.457   2.784  11.301  0.6460 -0.1663  2.2148
19858TIP3   OH281064   3.430   4.004   6.037 -0.7415 -0.3692  0.3067
19858TIP3    H181065   3.483   3.944   6.090 -0.8498 -1.5350 -0.8543
19858TIP3    H281066   3.459   3.988   5.947 -1.8003  0.2915 -0.1696
19859TIP3   OH281067   1.785   3.470  11.031  0.1689 -0.5470 -0.3248
19859TIP3    H181068   1.741   3.426  10.958 -0.3726 -0.3512 -0.1186
19859TIP3    H281069   1.746   3.557  11.034  1.3782  0.0367 -0.8590
19860TIP3   OH281070   3.472   5.115  13.233  0.1571 -0.1290 -0.8814
19860TIP3    H181071   3.477   5.020  13.222 -0.6214 -0.1025 -1.5204
19860TIP3    H281072   3.511   5.151  13.154  2.1235  0.1175  0.1440
19861TIP3   OH281073   6.475   4.345   2.593  0.2330 -0.4843  0.2132
19861TIP3    H181074   6.488   4.400   2.516 -1.4020 -0.4036 -0.0328
19861TIP3    H281075   6.563   4.330   2.627  0.8330  1.0244 -0.5912
19862TIP3   OH281076   3.960   6.732   4.896 -0.0069 -0.8518  0.4698
19862TIP3    H181077   3.948   6.781   4.814 -0.9526 -1.3022  0.3286
19862TIP3    H281078   4.015   6.790   4.950  1.0391 -0.7592 -0.6432
19863TIP3   OH281079   5.205   3.372  16.777  0.0393  0.3014 -0.3365
19863TIP3    H181080   5.208   3.297  16.836  0.9358  1.0959  0.6564
19863TIP3    H281081   5.195   3.448  16.834 -0.1494  1.0109 -1.2763
19864TIP3   OH281082   1.865   1.444   2.665 -0.1471 -0.1095 -0.0700
19864TIP3    H181083   1.933   1.426   2.730 -0.3729 -1.3034 -0.1461
19864TIP3    H281084   1.899   1.405   2.584  0.2525  1.5832 -0.7569
19865TIP3   OH281085   1.699   0.586   5.282  0.3092 -0.4785  0.4560
19865TIP3    H181086   1.787   0.623   5.289  1.0831 -2.0881 -0.1425
19865TIP3    H281087   1.683   0.546   5.368  0.2030 -0.2904  0.5247
19866TIP3   OH281088   2.985   1.355   2.694  0.6777 -0.0121  0.2423
19866TIP3    H181089   3.076   1.368   2.721  1.7545 -3.4678 -1.1142
19866TIP3    H281090   2.958   1.274   2.738 -1.2425  0.1115 -0.5863
19867TIP3   OH281091   6.841   2.476  15.203  0.0183 -0.0103  0.0785
19867TIP3    H181092   6.915   2.442  15.253 -0.6719  0.9554  1.8295
19867TIP3    H281093   6.784   2.516  15.268 -0.5929  1.9475 -1.5446
19868TIP3   OH281094   0.156   3.294   1.478  0.1498 -0.0559  0.5254
19868TIP3    H181095   0.183   3.386   1.478  1.4144 -0.4043  0.8637
19868TIP3    H281096   0.201   3.257   1.402  0.1640 -0.5376  0.7720
19869TIP3   OH281097   6.112   1.241  13.437 -0.3583  0.1499  0.4747
19869TIP3    H181098   6.165   1.248  13.517  0.5370  0.9239 -0.1580
19869TIP3    H281099   6.149   1.166  13.390 -0.7607 -0.1885  0.6971
19870TIP3   OH281100   6.709   3.976  15.854 -0.3341 -0.0362  0.1406
19870TIP3    H181101   6.727   4.007  15.943 -0.4193  1.9450 -0.4793
19870TIP3    H281102   6.698   3.882  15.863 -1.1548  0.2133  2.3604
19871TIP3   OH281103   6.351   5.772   0.650 -0.4210  0.4640 -0.2566
19871TIP3    H181104   6.309   5.712   0.711  1.0468 -0.0221  0.3103
19871TIP3    H281105   6.406   5.828   0.704  0.2759  0.5644 -1.0371
19872TIP3   OH281106   3.559   1.441   6.012  0.2047  0.5897 -0.1436
19872TIP3    H181107   3.616   1.365   6.005  1.7941  1.7567 -0.4698
19872TIP3    H281108   3.538   1.447   6.105 -1.4422 -1.2363 -0.3213
19873TIP3   OH281109   5.504   0.894  13.009  0.5172  0.1722  0.2007
19873TIP3    H181110   5.412   0.884  12.986  0.4908 -0.8103  0.6754
19873TIP3    H281111   5.532   0.973  12.963 -0.2067 -0.2681 -1.0338
19874TIP3   OH281112   4.927   1.634  15.989  0.0935 -0.3124 -0.1970
19874TIP3    H181113   4.852   1.690  15.968 -1.0589 -1.1665  1.3483
19874TIP3    H281114   4.899   1.547  15.962 -0.2366 -0.9251  1.9201
19875TIP3   OH281115   0.786   4.536   0.990  0.0655 -0.0123  0.3922
19875TIP3    H181116   0.704   4.503   1.028  0.8618 -1.3559  1.0048
19875TIP3    H281117   0.764   4.624   0.960 -1.2994  0.1074  1.6100
19876TIP3   OH281118   0.626   4.448  16.517  0.1224  0.5134 -0.3741
19876TIP3    H181119   0.701   4.393  16.539 -1.9361 -2.2172  0.3331
19876TIP3    H281120   0.643   4.477  16.428  1.3512 -1.2758 -0.7777
19877TIP3   OH281121   3.365   6.540  11.373  0.6814 -0.5090  0.0609
19877TIP3    H181122   3.389   6.589  11.452  2.4641 -1.9223  0.4597
19877TIP3    H281123   3.422   6.575  11.305  0.7237 -0.8116 -0.0612
19878TIP3   OH281124   1.383   0.231  14.798 -0.2741 -0.2144 -0.4074
19878TIP3    H181125   1.316   0.200  14.736 -0.9643  1.0817 -0.3365
19878TIP3    H281126   1.386   0.326  14.785  0.8917 -0.1450  0.2630
19879TIP3   OH281127   1.205   1.708   0.893  0.5251  0.5206  0.6387
19879TIP3    H181128   1.275   1.744   0.840  0.3168  0.3487  0.2400
19879TIP3    H281129   1.233   1.723   0.984  1.0907  0.4203  0.4852
19880TIP3   OH281130   1.036   0.738   1.010 -0.4806  0.6652  0.5926
19880TIP3    H181131   1.100   0.668   0.996 -2.2101 -0.6280 -1.6459
19880TIP3    H281132   1.068   0.810   0.956 -0.5194  0.2601  0.0126
19881TIP3   OH281133   0.256   4.355   6.054 -0.2080  0.4463 -1.1390
19881TIP3    H181134   0.190   4.417   6.083  0.1625  0.4078 -0.1717
19881TIP3    H281135   0.310   4.404   5.992  0.6523  1.4141  0.3044
19882TIP3   OH281136   3.829   5.218   5.719  0.1339  0.4113 -0.0292
19882TIP3    H181137   3.897   5.272   5.679  0.5702  0.2295  0.4678
19882TIP3    H281138   3.754   5.278   5.728  0.9936  1.2890  1.6078
19883TIP3   OH281139   5.494   6.413  12.448  0.1044  0.2250 -0.4199
19883TIP3    H181140   5.585   6.385  12.447  0.1758  0.1493 -3.9261
19883TIP3    H281141   5.444   6.334  12.425 -0.3304  1.1496 -3.0780
19884TIP3   OH281142   5.838   0.490  14.613  0.2078 -0.1785  0.5577
19884TIP3    H181143   5.813   0.469  14.703 -1.7052  0.0002  0.1205
19884TIP3    H281144   5.858   0.584  14.615  0.5558 -0.2568  0.8579
19885TIP3   OH281145   1.011   4.059  13.446  0.5351 -0.5538  0.0255
19885TIP3    H181146   1.047   4.137  13.405  1.2633 -0.1884  1.3083
19885TIP3    H281147   0.966   4.013  13.375  0.9563  0.5115 -0.9594
19886TIP3   OH281148   0.966   2.922   1.811 -0.0335  0.4034  0.5280
19886TIP3    H181149   0.949   2.860   1.882 -0.1983  1.7755  1.7420
19886TIP3    H281150   1.005   2.869   1.741 -0.4669 -1.1010  1.3901
19887TIP3   OH281151   4.079   5.679  14.711  0.5062  0.2528 -0.1133
19887TIP3    H181152   4.059   5.772  14.718 -0.1424  0.1775 -0.8052
19887TIP3    H281153   4.099   5.667  14.618 -0.4285 -0.4916 -0.2253
19888TIP3   OH281154   0.759   6.334  12.455  0.2791  0.7550  0.0621
19888TIP3    H181155   0.742   6.335  12.549  0.6907 -0.6209  0.1697
19888TIP3    H281156   0.713   6.410  12.421 -1.9820 -0.1175  1.0266
19889TIP3   OH281157   2.112   5.901  16.622  0.0205  0.6460  0.3155
19889TIP3    H181158   2.205   5.905  16.644 -0.3011  0.9303  1.7019
19889TIP3    H281159   2.067   5.892  16.706 -1.1703 -0.3726 -0.3738
19890TIP3   OH281160   6.021   6.418   2.444 -0.7614 -0.0292 -0.5030
19890TIP3    H181161   5.931   6.386   2.439 -0.4864 -1.1047  0.7886
19890TIP3    H281162   6.060   6.394   2.360 -0.5474 -3.2997  0.3941
19891TIP3   OH281163   3.155   4.984  15.099 -0.5386 -0.4829 -0.3620
19891TIP3    H181164   3.085   4.940  15.148  0.8909 -1.2147  1.1386
19891TIP3    H281165   3.130   5.076  15.099 -1.7370 -0.7916 -0.2932
19892TIP3   OH281166   3.641   4.974  11.390 -0.4373  0.2756 -0.0622
19892TIP3    H181167   3.679   4.971  11.302  2.1776  0.4757  0.9541
19892TIP3    H281168   3.679   5.053  11.429 -1.3460  0.0536  1.3425
19893TIP3   OH281169   2.256   2.273   1.777  0.2978  0.3561 -0.2209
19893TIP3    H181170   2.271   2.202   1.840 -2.0948 -0.2601 -0.2563
19893TIP3    H281171   2.292   2.239   1.695  0.8150 -0.0431  0.1593
19894TIP3   OH281172   6.623   2.686   2.012  0.6033 -0.4230  0.6975
19894TIP3    H181173   6.554   2.693   1.946  0.9440  1.3625  0.4837
19894TIP3    H281174   6.700   2.726   1.971  1.5079 -1.5066  1.2929
19895TIP3   OH281175   5.770   4.011  12.752 -0.3594  0.1600  0.3059
19895TIP3    H181176   5.794   4.068  12.679  2.2241  1.1368  1.8037
19895TIP3    H281177   5.706   4.061  12.802  0.9147  1.2662  0.8862
19896TIP3   OH281178   4.663   1.441   1.123 -0.0367  0.2123 -0.0147
19896TIP3    H181179   4.741   1.386   1.132 -0.6877 -0.7159  0.1554
19896TIP3    H281180   4.596   1.396   1.175 -0.1262  2.1540  1.7043
19897TIP3   OH281181   2.715   3.252   4.848  0.0844  0.0653 -0.4458
19897TIP3    H181182   2.688   3.175   4.899 -0.2407  1.0301  0.8981
19897TIP3    H281183   2.658   3.250   4.771  1.2459 -1.9633 -1.3366
19898TIP3   OH281184   4.656   1.242   4.963  0.4264  0.0154 -0.0891
19898TIP3    H181185   4.585   1.221   5.024  1.1739  0.7262  1.0822
19898TIP3    H281186   4.612   1.280   4.887 -0.6225 -1.9018 -0.5215
19899TIP3   OH281187   2.760   1.444  14.990 -0.3378  0.3278 -0.1365
19899TIP3    H181188   2.759   1.432  14.895 -0.6174  0.0684 -0.1033
19899TIP3    H281189   2.706   1.372  15.024 -0.3466  0.4940  0.2090
19900TIP3   OH281190   6.667   4.281  15.559 -0.3732  0.0585 -0.3055
19900TIP3    H181191   6.616   4.283  15.478 -1.3192  0.4701  0.2842
19900TIP3    H281192   6.613   4.230  15.620  1.8561 -3.3814 -0.9101
19901TIP3   OH281193   0.624   5.636   3.914 -0.5596 -0.0802  0.6954
19901TIP3    H181194   0.639   5.648   3.820  0.4498 -0.2679  0.8163
19901TIP3    H281195   0.694   5.577   3.942 -1.4538 -0.8604  1.3751
19902TIP3   OH281196   0.440   2.158  13.315 -0.1515 -0.0852  0.3828
19902TIP3    H181197   0.369   2.172  13.378 -1.8679  0.5418 -1.5863
19902TIP3    H281198   0.517   2.194  13.358 -1.5655  1.8134  1.4879
19903TIP3   OH281199   0.780   0.555  11.388 -0.7885 -1.0874  0.2228
19903TIP3    H181200   0.803   0.601  11.468 -2.4162  1.5735 -0.7016
19903TIP3    H281201   0.840   0.590  11.322 -2.6577  0.6281 -0.6931
19904TIP3   OH281202   0.427   1.241  15.148 -0.4284  0.4783  0.0849
19904TIP3    H181203   0.436   1.331  15.179  1.7807 -0.0496  1.2176
19904TIP3    H281204   0.432   1.188  15.228  0.0576 -0.7136 -0.7113
19905TIP3   OH281205   6.378   6.665  16.042 -0.2874 -0.2343  0.5173
19905TIP3    H181206   6.430   6.590  16.011 -0.9951  0.3301 -2.3070
19905TIP3    H281207   6.360   6.645  16.134 -0.5143 -3.5939 -0.1327
19906TIP3   OH281208   2.686   0.323   4.603 -0.2469  0.0834  0.5231
19906TIP3    H181209   2.774   0.330   4.641 -0.5364  0.1849  1.1829
19906TIP3    H281210   2.628   0.310   4.678 -0.5151 -2.9502 -0.0891
19907TIP3   OH281211   5.450   0.064  14.001  0.6528  0.0736  0.8672
19907TIP3    H181212   5.508   0.113  13.941 -0.1748  0.8145  0.6479
19907TIP3    H281213   5.388   0.019  13.943 -0.4761  1.2054  1.1511
19908TIP3   OH281214   4.982   1.865  16.163  0.0452  0.3037 -0.1793
19908TIP3    H181215   4.953   1.775  16.177  1.4331  0.1253  2.0313
19908TIP3    H281216   4.962   1.883  16.071 -1.6203 -1.7336 -0.2860
19909TIP3   OH281217   2.698   4.084   4.418 -0.4918 -0.2003 -0.6136
19909TIP3    H181218   2.640   4.086   4.342 -1.6432  1.8528  0.2590
19909TIP3    H281219   2.770   4.143   4.395 -1.3407  1.1958  0.2376
19910TIP3   OH281220   5.057   4.703  11.289 -0.0609 -0.1696 -0.1254
19910TIP3    H181221   5.147   4.673  11.274 -0.1886 -0.2239 -0.8191
19910TIP3    H281222   5.016   4.699  11.203 -0.1933  1.6481 -0.1832
19911TIP3   OH281223   1.598   5.807  17.109 -0.0709  0.0708  0.6124
19911TIP3    H181224   1.618   5.899  17.094 -0.4742  0.2754  1.3221
19911TIP3    H281225   1.675   5.773  17.155 -0.2890  0.2579  1.1145
19912TIP3   OH281226   4.653   0.597  14.590 -0.6852 -0.6204  0.2703
19912TIP3    H181227   4.584   0.582  14.526 -0.1111  1.0010 -0.7755
19912TIP3    H281228   4.720   0.647  14.543 -0.5443  1.2502  2.2874
19913TIP3   OH281229   3.577   2.579   0.774  0.4822  0.1081 -0.2997
19913TIP3    H181230   3.577   2.521   0.850  0.7747  1.9443  1.1825
19913TIP3    H281231   3.655   2.634   0.786 -1.0387  2.4200 -0.2726
19914TIP3   OH281232   6.053   5.949   3.673  0.0727 -0.0964 -0.2795
19914TIP3    H181233   6.037   5.895   3.750  0.2273 -1.6392 -1.2814
19914TIP3    H281234   5.982   5.925   3.613 -0.3450  1.4582 -0.4420
19915TIP3   OH281235   4.164   0.910   5.129  0.5104 -0.7391  0.0595
19915TIP3    H181236   4.100   0.981   5.125  1.1619 -0.1660 -0.3665
19915TIP3    H281237   4.141   0.862   5.208  0.1116 -0.0076  0.4006
19916TIP3   OH281238   3.735   1.012  16.925  0.4228 -0.4050  0.0644
19916TIP3    H181239   3.726   0.958  17.004  0.6194 -0.2975  0.1596
19916TIP3    H281240   3.645   1.039  16.904  0.3296 -0.7167  0.0522
19917TIP3   OH281241   0.817   3.156   3.372 -0.8375 -0.0744  0.4249
19917TIP3    H181242   0.888   3.172   3.310  0.2118  0.3378  1.6690
19917TIP3    H281243   0.860   3.111   3.446 -1.8707  0.1399  1.1807
19918TIP3   OH281244   5.476   0.953  14.559  0.6875 -0.4475  0.4837
19918TIP3    H181245   5.492   0.900  14.637  1.0246  0.3832  0.9973
19918TIP3    H281246   5.390   0.925  14.528  1.4528 -2.3088 -0.1149
19919TIP3   OH281247   5.336   2.704   3.104 -0.0135  0.3467 -0.5945
19919TIP3    H181248   5.283   2.684   3.027 -0.0591 -0.1932 -0.4218
19919TIP3    H281249   5.404   2.763   3.072  1.4206 -1.7510 -1.5615
19920TIP3   OH281250   0.097   3.356  16.927  0.9401 -0.6116  0.3215
19920TIP3    H181251   0.084   3.435  16.979  0.0802 -0.4121 -0.1755
19920TIP3    H281252   0.147   3.298  16.984 -1.5224 -1.1147  2.1008
19921TIP3   OH281253   4.952   1.047   0.752  0.1702 -0.1803  0.7123
19921TIP3    H181254   4.903   1.090   0.682 -0.9268 -1.1147  0.8861
19921TIP3    H281255   5.030   1.012   0.708 -0.8938 -1.4654 -0.2455
19922TIP3   OH281256   1.890   5.245  11.852  0.3635 -0.0205  0.7221
19922TIP3    H181257   1.985   5.238  11.863  0.2003 -0.4385  2.0016
19922TIP3    H281258   1.856   5.162  11.884 -0.3843 -0.2850 -0.6939
19923TIP3   OH281259   1.552   1.810   5.179 -0.2256 -0.4861 -0.5172
19923TIP3    H181260   1.626   1.759   5.212  0.9396  0.2665 -1.8448
19923TIP3    H281261   1.565   1.811   5.084 -0.6640  1.5611 -0.5921
19924TIP3   OH281262   3.540   5.383  16.082  0.5754 -0.0486  0.1211
19924TIP3    H181263   3.525   5.455  16.143 -2.7806 -0.1929 -0.3378
19924TIP3    H281264   3.531   5.422  15.995 -1.2412 -0.9404 -0.1351
19925TIP3   OH281265   6.717   4.659   2.953  0.0166 -0.5039 -0.2618
19925TIP3    H181266   6.721   4.743   2.998  2.2246 -0.7974  0.2528
19925TIP3    H281267   6.809   4.639   2.932 -0.5033 -2.4931 -0.8973
19926TIP3   OH281268   2.985   2.088  14.095  0.1706 -0.1857  0.2146
19926TIP3    H181269   2.961   2.179  14.078  1.1991  0.0300 -0.1325
19926TIP3    H281270   2.972   2.076  14.189 -2.7249 -0.5298 -0.1377
19927TIP3   OH281271   6.776   5.926  11.850  0.2838  0.3601 -0.0576
19927TIP3    H181272   6.790   5.908  11.943  0.7470 -1.8995 -0.5022
19927TIP3    H281273   6.682   5.943  11.843 -0.1971 -1.6750  0.5637
19928TIP3   OH281274   5.094   0.777  13.941  0.5214 -0.3570  0.2493
19928TIP3    H181275   5.035   0.829  13.887  2.0585  1.0182 -0.1893
19928TIP3    H281276   5.096   0.823  14.025 -1.0330 -1.8848  1.1712
19929TIP3   OH281277   1.314   4.645  13.054  0.6228  0.0288  0.5092
19929TIP3    H181278   1.358   4.573  13.099 -0.6632  0.2350  2.2208
19929TIP3    H281279   1.226   4.647  13.092  0.0992  1.5024 -0.6476
19930TIP3   OH281280   2.686   4.342  13.288  0.6934 -0.7916 -0.4376
19930TIP3    H181281   2.716   4.390  13.365 -2.1328 -1.0381  0.9345
19930TIP3    H281282   2.591   4.349  13.290  0.4595 -0.6621 -4.0528
19931TIP3   OH281283   1.322   6.759   5.806  0.0501  0.2064  0.0395
19931TIP3    H181284   1.391   6.693   5.810  0.1980  0.3087 -0.8212
19931TIP3    H281285   1.323   6.790   5.716 -1.2554  0.0648 -0.0426
19932TIP3   OH281286   1.841   2.562   2.079 -0.2709  0.4505  0.2638
19932TIP3    H181287   1.820   2.570   1.987 -1.8137 -1.6742  0.3654
19932TIP3    H281288   1.776   2.616   2.124 -1.2663 -0.6841  0.2206
19933TIP3   OH281289   1.754   6.568   1.424 -0.4507 -0.3324 -0.3986
19933TIP3    H181290   1.704   6.645   1.449  0.2718 -0.0204  0.1302
19933TIP3    H281291   1.715   6.539   1.342 -2.1320 -0.6947  0.4972
19934TIP3   OH281292   6.066   3.653   0.683 -0.0919 -0.3392 -0.0025
19934TIP3    H181293   6.017   3.601   0.619  0.5854 -1.9293  0.7199
19934TIP3    H281294   6.028   3.740   0.677 -1.7137 -1.0625 -0.8093
19935TIP3   OH281295   5.441   3.985   0.979 -0.5975 -0.4830 -0.0655
19935TIP3    H181296   5.435   3.943   1.065 -0.2215  1.8232  1.1808
19935TIP3    H281297   5.534   3.982   0.957 -0.6390 -0.7226 -0.2117
19936TIP3   OH281298   0.273   5.686  13.049 -0.0690  0.0643  0.1024
19936TIP3    H181299   0.266   5.718  13.139  0.0643  1.9757 -0.5222
19936TIP3    H281300   0.185   5.696  13.013  0.4310  1.8292 -0.7355
19937TIP3   OH281301   4.182   4.165  11.412 -0.3083  0.0150 -0.3499
19937TIP3    H181302   4.129   4.231  11.367  0.4884  0.2257 -0.9801
19937TIP3    H281303   4.120   4.093  11.430 -0.5004 -0.3958 -2.4197
19938TIP3   OH281304   4.975   0.768  12.423  0.1531 -0.4838  0.3949
19938TIP3    H181305   5.049   0.820  12.393 -0.9408  0.3241 -1.0266
19938TIP3    H281306   5.011   0.713  12.494  1.7854  0.7731  0.5977
19939TIP3   OH281307   1.009   2.637  13.848  0.2089  0.3833 -0.4905
19939TIP3    H181308   1.036   2.625  13.757 -1.2925 -2.5356 -0.6631
19939TIP3    H281309   1.009   2.549  13.885  1.4677  1.5383  2.6272
19940TIP3   OH281310   1.636   3.914   1.287  0.3447 -0.1135  0.0926
19940TIP3    H181311   1.560   3.921   1.229  0.0184  0.0173  0.5299
19940TIP3    H281312   1.675   3.830   1.266 -0.0378 -0.2713  0.0073
19941TIP3   OH281313   1.479   3.041  14.550  0.1823 -0.3647 -0.1198
19941TIP3    H181314   1.441   2.961  14.586  1.1017  0.0502  1.9444
19941TIP3    H281315   1.536   3.074  14.620  2.4948  0.2766 -2.1762
19942TIP3   OH281316   1.457   0.274   0.423  0.1344 -0.4663  0.1446
19942TIP3    H181317   1.497   0.330   0.490  0.0269 -1.1618  0.8082
19942TIP3    H281318   1.527   0.260   0.359  0.1207  0.5210 -0.0953
19943TIP3   OH281319   2.931   1.492   4.587 -0.2222  0.1297  0.0029
19943TIP3    H181320   3.014   1.483   4.633 -0.7211 -0.1901  0.8707
19943TIP3    H281321   2.928   1.419   4.526 -0.3567 -0.5138  0.7702
19944TIP3   OH281322   6.544   3.333   2.924 -0.0222 -0.4758 -0.3965
19944TIP3    H181323   6.589   3.355   2.843 -0.4637 -0.5402 -0.6659
19944TIP3    H281324   6.612   3.298   2.982  0.3953  0.1215 -0.5259
19945TIP3   OH281325   0.004   3.749   1.240  0.7437  0.3321 -0.0008
19945TIP3    H181326  -0.074   3.768   1.187  0.3258  1.0332  0.8258
19945TIP3    H281327   0.005   3.654   1.248  0.1356  0.2961 -0.2799
19946TIP3   OH281328   1.987   6.157  16.507  0.4513 -0.4539 -0.1456
19946TIP3    H181329   2.010   6.069  16.538 -0.3728 -0.7698 -0.3880
19946TIP3    H281330   1.953   6.201  16.585  0.8374 -0.3574 -0.0293
19947TIP3   OH281331   1.578   2.330  16.643 -0.2825 -0.1487 -0.5108
19947TIP3    H181332   1.542   2.251  16.602 -0.1479 -0.4341 -0.0892
19947TIP3    H281333   1.576   2.311  16.737  1.4814 -0.4190 -0.4837
19948TIP3   OH281334   1.470   0.293  13.487  0.6307  0.5350 -0.4566
19948TIP3    H181335   1.418   0.270  13.564 -1.4897  0.0526 -1.9487
19948TIP3    H281336   1.444   0.229  13.421  3.4269  0.0406 -1.2332
19949TIP3   OH281337   0.069   1.282  12.292  0.3005 -0.7071 -0.0018
19949TIP3    H181338  -0.018   1.244  12.276  0.2164 -0.9881  1.0347
19949TIP3    H281339   0.127   1.207  12.302  1.0730 -0.5274 -2.5984
19950TIP3   OH281340   6.582   1.971  15.649  0.3569 -0.4928  0.7902
19950TIP3    H181341   6.612   2.041  15.707  0.2250 -1.1090  1.6312
19950TIP3    H281342   6.501   1.940  15.690 -0.9935  0.5500 -0.9565
19951TIP3   OH281343   6.514   1.591  15.985 -0.2992 -0.1669 -0.0532
19951TIP3    H181344   6.533   1.502  16.017 -0.4860 -0.1720  0.0423
19951TIP3    H281345   6.597   1.620  15.946 -1.2942 -2.0641 -4.1280
19952TIP3   OH281346   2.864   2.891   5.741  1.2995 -0.6121  0.2471
19952TIP3    H181347   2.889   2.877   5.832  2.0121  0.9996  0.3243
19952TIP3    H281348   2.799   2.961   5.745 -1.3012 -2.8245 -0.2145
19953TIP3   OH281349   0.732   2.579  12.982 -0.4356 -0.4965 -0.3487
19953TIP3    H181350   0.662   2.571  12.917  0.9693  0.6289 -2.1143
19953TIP3    H281351   0.807   2.612  12.932  1.0078 -0.4859  1.6951
19954TIP3   OH281352   6.450   2.751   2.221 -0.6227  0.8515 -0.0777
19954TIP3    H181353   6.412   2.789   2.142 -0.8215 -0.1357 -0.4763
19954TIP3    H281354   6.542   2.738   2.200 -0.7034  0.4617 -0.2105
19955TIP3   OH281355   3.033   6.306   0.509 -0.4164 -0.0027  0.0568
19955TIP3    H181356   3.063   6.220   0.539  0.0039  0.0739 -0.1269
19955TIP3    H281357   3.035   6.361   0.587  0.0539  0.0326  0.0242
19956TIP3   OH281358   0.522   3.409   2.925  0.5322 -0.0488  0.4640
19956TIP3    H181359   0.548   3.368   3.008  0.5467  1.0507  1.0167
19956TIP3    H281360   0.600   3.454   2.895  0.4527 -0.2319 -0.0291
19957TIP3   OH281361   6.201   4.497   0.906  0.6692  0.0253 -0.1991
19957TIP3    H181362   6.249   4.537   0.834  0.2834 -0.7759 -0.9229
19957TIP3    H281363   6.137   4.440   0.864  0.4281 -0.4535  0.7727
19958TIP3   OH281364   2.341   1.031  14.266  0.4301  0.3366  0.2826
19958TIP3    H181365   2.314   1.122  14.250  0.7043  0.5065  0.7800
19958TIP3    H281366   2.387   1.034  14.350 -0.0866 -0.3666  0.6022
19959TIP3   OH281367   5.787   6.489  16.356 -0.2385  0.1490 -0.3749
19959TIP3    H181368   5.790   6.552  16.285 -0.2840  0.1624 -0.3652
19959TIP3    H281369   5.699   6.498  16.393 -0.2987 -0.0265 -0.4717
19960TIP3   OH281370   0.895   1.791   2.251 -0.5252  0.5507 -0.0474
19960TIP3    H181371   0.815   1.756   2.290  1.5436 -2.4711  2.0542
19960TIP3    H281372   0.921   1.725   2.187  1.0068  0.6494  0.4170
19961TIP3   OH281373   5.708   1.088   6.442  0.6780  0.2406 -0.0296
19961TIP3    H181374   5.707   1.011   6.385  0.9702 -0.7631  1.2608
19961TIP3    H281375   5.774   1.146   6.404  1.2021 -0.6082 -0.4351
19962TIP3   OH281376   4.296   4.358  12.338 -0.6593 -0.2423 -0.5464
19962TIP3    H181377   4.294   4.335  12.245  1.4563  2.2712 -1.3265
19962TIP3    H281378   4.249   4.442  12.343  0.1767  0.1849  0.4540
19963TIP3   OH281379   5.027   3.397  16.155 -0.1185  0.2491  0.3441
19963TIP3    H181380   5.114   3.414  16.120  0.0081 -1.4360 -0.2356
19963TIP3    H281381   5.042   3.348  16.236 -0.5037 -1.6022 -0.6428
19964TIP3   OH281382   3.289   3.844   0.744  0.0535  0.5173 -0.3193
19964TIP3    H181383   3.330   3.841   0.830 -0.5036  1.8435  0.0265
19964TIP3    H281384   3.326   3.922   0.702  1.1379 -0.7173 -1.7313
19965TIP3   OH281385   4.875   0.040  17.117  0.2566  0.3011 -0.7368
19965TIP3    H181386   4.938  -0.008  17.062  1.6867 -0.3131  1.3298
19965TIP3    H281387   4.843  -0.025  17.179  2.3429  1.8679  2.2329
19966TIP3   OH281388   6.607   1.792  14.687  0.3319  0.0075 -0.0298
19966TIP3    H181389   6.557   1.874  14.683 -0.0168 -0.1501  0.7731
19966TIP3    H281390   6.552   1.729  14.641 -0.4769 -0.2845  1.2967
19967TIP3   OH281391   4.263   3.195   4.299  0.3186  0.5629  0.0866
19967TIP3    H181392   4.264   3.099   4.303  1.4948  0.5485 -0.1226
19967TIP3    H281393   4.209   3.215   4.222 -0.1045  0.0714  0.2542
19968TIP3   OH281394   4.326   2.268  13.285 -0.0438 -0.0884  0.1923
19968TIP3    H181395   4.352   2.344  13.233  0.4425  1.8753  3.0381
19968TIP3    H281396   4.254   2.301  13.340 -1.6349 -2.5042 -0.3050
19969TIP3   OH281397   2.999   5.158   4.863 -0.2675 -0.1721 -0.1009
19969TIP3    H181398   2.920   5.210   4.869  1.3931  2.6390 -0.9685
19969TIP3    H281399   3.039   5.164   4.950 -1.0113 -1.7620  0.4013
19970TIP3   OH281400   1.243   5.041  12.060  0.0015 -0.5758  0.8066
19970TIP3    H181401   1.166   5.020  12.008  0.7574 -0.7546 -0.2934
19970TIP3    H281402   1.209   5.075  12.142 -1.2483 -1.5472  0.7223
19971TIP3   OH281403   2.722   1.520   1.553 -0.0897  0.1853 -0.0875
19971TIP3    H181404   2.716   1.439   1.502 -0.5894  1.3761 -2.0094
19971TIP3    H281405   2.634   1.532   1.589 -1.2107  1.7725 -2.9950
19972TIP3   OH281406   4.933   1.209   4.572  0.1272 -0.4602  0.5095
19972TIP3    H181407   4.926   1.300   4.601  0.0415 -0.2783 -0.0669
19972TIP3    H281408   4.855   1.195   4.519  0.9030 -0.3874 -0.6816
19973TIP3   OH281409   3.945   0.210   4.229  0.0403 -0.3572  0.2351
19973TIP3    H181410   3.995   0.173   4.155  0.6083  0.5489  0.1439
19973TIP3    H281411   3.963   0.304   4.224 -1.4757 -0.0466  0.3817
19974TIP3   OH281412   4.743   5.427   0.010 -0.1103  0.6468 -0.4126
19974TIP3    H181413   4.793   5.507  -0.004  0.1999  0.6741  0.7431
19974TIP3    H281414   4.681   5.423  -0.063  0.3390  1.5722 -0.8511
19975TIP3   OH281415   0.872   1.519   1.933 -0.3489  0.6041  0.6824
19975TIP3    H181416   0.838   1.431   1.917 -1.0123  0.6484  1.7628
19975TIP3    H281417   0.794   1.573   1.948  0.1149  1.0888  1.4158
19976TIP3   OH281418   2.438   2.594  11.304  0.1593 -0.0649  0.3627
19976TIP3    H181419   2.419   2.649  11.229 -4.2887  0.7098  1.7010
19976TIP3    H281420   2.432   2.505  11.270 -0.1762  0.2763 -0.5114
19977TIP3   OH281421   0.199   3.801  16.824  0.0310  0.3520  0.4303
19977TIP3    H181422   0.277   3.816  16.878 -0.0416  0.6628  0.4527
19977TIP3    H281423   0.130   3.778  16.887  0.0330  0.3634  0.4364
19978TIP3   OH281424   3.646   3.673   2.927 -0.6075  0.5970 -0.3378
19978TIP3    H181425   3.670   3.669   3.019 -0.8992  0.3378 -0.2739
19978TIP3    H281426   3.570   3.615   2.919  0.3216 -0.5435 -1.0359
19979TIP3   OH281427   6.120   4.806  16.323  0.1090  0.2748  0.0383
19979TIP3    H181428   6.132   4.889  16.277  1.0806  0.1244 -0.0158
19979TIP3    H281429   6.031   4.810  16.358  0.4909  1.7701  0.9054
19980TIP3   OH281430   6.602   2.826  11.248  0.1108 -0.6416  0.1375
19980TIP3    H181431   6.646   2.907  11.222  1.8056 -1.7711 -0.7203
19980TIP3    H281432   6.600   2.774  11.168 -3.1706 -0.5690  0.0280
19981TIP3   OH281433   4.967   1.189   5.462  0.3796  0.0970 -0.2065
19981TIP3    H181434   4.999   1.128   5.528 -1.3682  0.3606  0.9405
19981TIP3    H281435   5.036   1.256   5.457  1.9343 -1.4591 -0.8970
19982TIP3   OH281436   2.968   0.098   2.704  0.2456 -0.4185  0.0319
19982TIP3    H181437   2.961   0.012   2.745 -1.4196 -0.6815 -0.7279
19982TIP3    H281438   2.987   0.158   2.777 -1.8240 -0.9845  1.1241
19983TIP3   OH281439   4.243   1.911  16.009 -0.1102  1.1798 -0.2660
19983TIP3    H181440   4.170   1.900  15.948 -0.5345  0.5117  0.3521
19983TIP3    H281441   4.277   1.822  16.021 -0.6691  1.1485  1.2444
19984TIP3   OH281442   1.446   4.134  13.577 -0.1130 -0.0811  0.5386
19984TIP3    H181443   1.519   4.197  13.572 -0.2558  0.0166 -0.4619
19984TIP3    H281444   1.414   4.128  13.487 -0.4675 -1.1673  0.7316
19985TIP3   OH281445   3.057   1.000  14.774  1.0446  0.0274 -0.6468
19985TIP3    H181446   3.124   0.935  14.753  0.4634 -1.2010  1.0727
19985TIP3    H281447   3.081   1.031  14.862 -0.3680 -0.0969 -0.2012
19986TIP3   OH281448   2.495   6.682  16.194 -0.1680 -0.2331  0.2236
19986TIP3    H181449   2.536   6.767  16.211  2.1733 -1.1446 -0.4290
19986TIP3    H281450   2.422   6.677  16.256  0.3105  1.7865  1.0061
19987TIP3   OH281451   2.470   3.639  10.348 -0.4772  0.2748  0.5540
19987TIP3    H181452   2.553   3.670  10.383 -0.0071 -0.6744  0.3160
19987TIP3    H281453   2.404   3.698  10.385 -0.1110 -0.9993  3.5382
19988TIP3   OH281454   1.903   0.574   1.323  0.7880 -0.7542  0.3643
19988TIP3    H181455   1.964   0.540   1.258 -0.5335 -1.8693 -0.3621
19988TIP3    H281456   1.951   0.571   1.405  1.8641 -1.1160 -0.2544
19989TIP3   OH281457   2.107   4.628  11.587 -0.2448 -0.5144  0.1854
19989TIP3    H181458   2.177   4.657  11.529 -0.4130  2.3942  1.2865
19989TIP3    H281459   2.028   4.632  11.533  0.0495 -1.2627 -0.3213
19990TIP3   OH281460   2.370   6.687   5.463 -0.5595 -0.5915 -0.3937
19990TIP3    H181461   2.376   6.592   5.452  1.6953 -0.5683  0.1167
19990TIP3    H281462   2.354   6.699   5.556 -1.7728 -0.4434 -0.5974
19991TIP3   OH281463   6.126   6.664   6.306  0.0540 -0.2826  0.6110
19991TIP3    H181464   6.100   6.738   6.250 -0.5833 -0.9390  0.0276
19991TIP3    H281465   6.211   6.691   6.341  0.6924 -0.0210 -1.0090
19992TIP3   OH281466   1.778   1.846  15.321 -0.0020  0.6261 -0.0539
19992TIP3    H181467   1.773   1.758  15.282 -1.5222  0.5454  0.2712
19992TIP3    H281468   1.858   1.843  15.374  1.3538  0.2798 -1.9750
19993TIP3   OH281469   1.300   1.073   0.379  0.3712  0.0767 -0.4995
19993TIP3    H181470   1.266   1.025   0.454 -2.9668  0.8552 -1.3814
19993TIP3    H281471   1.307   1.164   0.409  2.0030 -0.0847 -0.2876
19994TIP3   OH281472   2.350   0.970  13.000  0.2424  0.6099  0.3330
19994TIP3    H181473   2.430   0.944  12.954 -0.6708 -0.2504 -0.8434
19994TIP3    H281474   2.381   1.011  13.081  1.8645 -0.5590  0.3687
19995TIP3   OH281475   5.661   6.002  14.911  0.5779  0.3887 -0.3311
19995TIP3    H181476   5.613   6.073  14.868 -0.6191 -0.8419 -1.1127
19995TIP3    H281477   5.649   5.927  14.853  2.3229 -0.3112  0.1754
19996TIP3   OH281478   1.692   2.701   3.988  0.2402  0.1229  0.4088
19996TIP3    H181479   1.745   2.745   4.055  1.9690  0.6960 -1.2763
19996TIP3    H281480   1.633   2.770   3.956  0.8282  0.4102 -0.0736
19997TIP3   OH281481   1.694   6.607  15.524 -0.1347  0.3947 -0.4068
19997TIP3    H181482   1.750   6.657  15.465 -0.7523 -0.3911 -1.6926
19997TIP3    H281483   1.752   6.580  15.596  0.5372  1.6799 -0.4441
19998TIP3   OH281484   0.577   1.089  12.380  0.0700  0.1961  0.2550
19998TIP3    H181485   0.521   1.028  12.428  1.2934 -1.0479  0.1637
19998TIP3    H281486   0.663   1.079  12.421  0.6843  0.5791 -0.9012
19999TIP3   OH281487   1.110   1.849   2.683 -0.4636  0.1715  0.2286
19999TIP3    H181488   1.130   1.811   2.598 -1.2368 -2.0582  0.9559
19999TIP3    H281489   1.195   1.860   2.725 -0.1919 -3.4145  0.9661
20000TIP3   OH281490   4.490   6.792  12.185  0.1851 -0.3416 -0.2118
20000TIP3    H181491   4.460   6.842  12.109  1.2678  1.1241  0.2878
20000TIP3    H281492   4.497   6.702  12.153  0.5326  0.2237 -1.8261
20001TIP3   OH281493   4.704   0.977  15.293  0.6107 -0.5725  0.0424
20001TIP3    H181494   4.673   0.893  15.328  2.3381 -0.5682  1.7826
20001TIP3    H281495   4.780   0.998  15.347 -0.5566  2.8100  0.5929
20002TIP3   OH281496   0.650   1.729   4.174  0.4933  0.1527  0.4761
20002TIP3    H181497   0.647   1.682   4.257 -0.5512  0.7753  0.8156
20002TIP3    H281498   0.588   1.682   4.117  2.9048 -1.7045 -0.7917
20003TIP3   OH281499   2.399   1.433   2.061 -0.0085 -0.1686  0.2095
20003TIP3    H181500   2.329   1.499   2.067  1.2253  1.1693  0.5719
20003TIP3    H281501   2.353   1.350   2.050 -1.6713  0.6000  0.9790
20004TIP3   OH281502   6.514   6.418  13.210  0.3811  0.1983 -0.1601
20004TIP3    H181503   6.595   6.390  13.168  0.1022  0.1231 -0.6515
20004TIP3    H281504   6.534   6.416  13.304  1.2788  1.2210 -0.3174
20005TIP3   OH281505   5.763   1.522  12.769  0.1535  0.3418 -0.3441
20005TIP3    H181506   5.816   1.456  12.725 -1.0516 -0.1255 -1.1574
20005TIP3    H281507   5.798   1.527  12.858  1.7535  0.3121 -0.9500
20006TIP3   OH281508   4.345   2.708   5.613  0.0235  0.2529  0.0576
20006TIP3    H181509   4.256   2.700   5.578  0.0571 -3.0046  0.4378
20006TIP3    H281510   4.341   2.665   5.699  1.5256  1.9786  1.0649
20007TIP3   OH281511   3.821   6.600  16.283 -0.1003 -0.0516  0.7840
20007TIP3    H181512   3.750   6.661  16.261 -0.6252 -0.9740 -0.1681
20007TIP3    H281513   3.901   6.651  16.268 -0.5353  0.6376  0.7255
20008TIP3   OH281514   5.722   0.441   1.111 -0.1438 -0.1825  0.0483
20008TIP3    H181515   5.688   0.512   1.056  2.1120  1.8556  1.0996
20008TIP3    H281516   5.798   0.408   1.063  1.8243  1.5891  1.7596
20009TIP3   OH281517   4.412   4.923   3.404  0.0925  0.3959  0.0082
20009TIP3    H181518   4.346   4.992   3.408  0.0535  0.4282 -0.8626
20009TIP3    H281519   4.367   4.849   3.363  0.1131 -0.1820  0.9956
20010TIP3   OH281520   4.407   0.549   1.448  0.4741 -0.3144 -1.1058
20010TIP3    H181521   4.445   0.633   1.422  0.1292  0.0339 -0.5012
20010TIP3    H281522   4.327   0.572   1.494  1.8755 -0.7754  1.7672
20011TIP3   OH281523   4.781   3.755  16.641  0.3080 -0.0473 -0.3753
20011TIP3    H181524   4.701   3.730  16.686  0.1357  2.6082  0.9378
20011TIP3    H281525   4.759   3.749  16.548 -0.5402 -1.8369 -0.1121
20012TIP3   OH281526   1.255   1.967  11.724 -0.5007 -0.0510  0.1285
20012TIP3    H181527   1.244   2.060  11.745  0.8147 -0.3044  2.2362
20012TIP3    H281528   1.166   1.935  11.707 -1.2083  1.1914  1.2986
20013TIP3   OH281529   0.851   4.406  11.616 -0.4016  0.5677  0.2631
20013TIP3    H181530   0.823   4.492  11.584 -0.7831 -0.2524 -1.7369
20013TIP3    H281531   0.816   4.402  11.705 -2.2315  1.6453 -0.3422
20014TIP3   OH281532   6.254   3.534  12.578 -0.1761  0.0598  0.5315
20014TIP3    H181533   6.159   3.538  12.585 -0.1771  0.2832  0.4090
20014TIP3    H281534   6.278   3.615  12.532  0.0463 -0.1276  0.3119
20015TIP3   OH281535   3.105   4.338  11.308 -0.0403 -0.1437 -0.0511
20015TIP3    H181536   3.147   4.257  11.337  0.9799  0.0519 -0.9270
20015TIP3    H281537   3.158   4.368  11.234 -1.2241  0.5904 -0.6325
20016TIP3   OH281538   5.642   5.469  11.576  0.2688 -0.8326 -0.1193
20016TIP3    H181539   5.567   5.525  11.557 -0.0381 -0.2502  2.3721
20016TIP3    H281540   5.707   5.492  11.511 -0.3187  1.5357  0.0446
20017TIP3   OH281541   0.044   3.842   2.565  0.1340 -0.0201  0.1626
20017TIP3    H181542  -0.042   3.861   2.604  0.1325  0.7135 -0.1757
20017TIP3    H281543   0.103   3.903   2.607  0.4608 -0.4004  0.2591
20018TIP3   OH281544   6.253   6.714  14.727  0.3068  0.6896 -0.1775
20018TIP3    H181545   6.311   6.785  14.700  1.6844 -0.4339 -0.2926
20018TIP3    H281546   6.308   6.657  14.780 -0.8075 -0.2157  0.0436
20019TIP3   OH281547   4.177   0.449  13.404  0.2208  0.1534  0.6604
20019TIP3    H181548   4.167   0.545  13.401 -0.1513  0.1240  0.9571
20019TIP3    H281549   4.266   0.436  13.437 -0.7829  0.3913  3.7239
20020TIP3   OH281550   3.833   6.327   5.010 -0.1149 -0.3326  0.5559
20020TIP3    H181551   3.817   6.322   5.104  1.5350  0.3913  0.9090
20020TIP3    H281552   3.852   6.420   4.993  0.8149 -0.6414 -0.2581
20021TIP3   OH281553   5.710   4.313  11.928 -0.3485 -0.1404 -0.3102
20021TIP3    H181554   5.712   4.256  11.851 -0.2335 -0.5087 -0.0384
20021TIP3    H281555   5.635   4.283  11.978  1.1857 -1.8151  1.1405
20022TIP3   OH281556   4.303   0.900   0.455 -0.1980 -0.0163 -0.8072
20022TIP3    H181557   4.312   0.929   0.364 -0.5624 -0.3292 -0.9422
20022TIP3    H281558   4.315   0.805   0.452  1.4688  0.1307 -0.2989
20023TIP3   OH281559   1.400   3.827  15.296  0.4328  0.3521  0.0668
20023TIP3    H181560   1.412   3.830  15.391  1.1849  0.6676 -0.0247
20023TIP3    H281561   1.409   3.734  15.274 -0.6949  0.1554  0.4078
20024TIP3   OH281562   0.101   6.316  16.475 -0.3357 -0.2202  0.6438
20024TIP3    H181563   0.117   6.253  16.404 -0.7129  1.3496 -0.8958
20024TIP3    H281564   0.188   6.345  16.501 -0.1633  2.5736 -2.4194
20025TIP3   OH281565   2.316   5.313   5.340  0.1546 -0.0911  0.1207
20025TIP3    H181566   2.240   5.358   5.376 -0.7558 -0.7640 -0.8962
20025TIP3    H281567   2.297   5.305   5.247  1.8536  0.4460 -0.2936
20026TIP3   OH281568   6.372   0.880  11.045 -0.0372  0.1438  0.4043
20026TIP3    H181569   6.374   0.921  11.131  0.3543  1.0558 -0.0337
20026TIP3    H281570   6.457   0.900  11.006  0.2741 -1.3199  0.2834
20027TIP3   OH281571   2.831   4.082  11.208 -0.1139 -0.1941 -0.2432
20027TIP3    H181572   2.876   3.997  11.207  1.2420  0.5056 -1.5033
20027TIP3    H281573   2.777   4.079  11.287  0.9918 -1.6689  0.5112
20028TIP3   OH281574   0.708   3.914   1.400  0.3326  0.1417 -0.4372
20028TIP3    H181575   0.623   3.930   1.358  0.0749 -0.4765 -0.1547
20028TIP3    H281576   0.690   3.848   1.467  0.9710  0.2662 -0.1386
20029TIP3   OH281577   2.831   0.443   4.394  0.1811 -0.1460  0.1863
20029TIP3    H181578   2.768   0.376   4.422  1.0949 -0.9458  0.3887
20029TIP3    H281579   2.833   0.506   4.466 -0.6662  0.1057  0.0070
20030TIP3   OH281580   2.208   5.668  15.196 -0.2362 -0.3962 -0.6318
20030TIP3    H181581   2.289   5.707  15.228 -2.2031  2.9209  0.8905
20030TIP3    H281582   2.214   5.576  15.221  0.9854  0.7101  4.3414
20031TIP3   OH281583   4.568   2.358  13.072 -0.5347 -0.1678  0.2506
20031TIP3    H181584   4.630   2.403  13.014  0.4394 -0.8950  0.6945
20031TIP3    H281585   4.576   2.404  13.155  0.1667 -0.8690  0.5905
20032TIP3   OH281586   6.765   2.687  12.234  0.8414  0.0958  0.5411
20032TIP3    H181587   6.814   2.733  12.303  1.7063  1.9645 -1.2049
20032TIP3    H281588   6.832   2.652  12.176  0.1833  1.5800 -1.2008
20033TIP3   OH281589   1.516   2.587  14.435 -0.2511  0.6232 -0.4561
20033TIP3    H181590   1.577   2.628  14.373 -0.3279 -0.2221 -1.0999
20033TIP3    H281591   1.564   2.587  14.518 -0.1228  1.7115 -0.5143
20034TIP3   OH281592   5.849   1.258   6.281  0.0779 -0.0381 -0.2225
20034TIP3    H181593   5.937   1.244   6.314  0.5383  0.3503 -1.2351
20034TIP3    H281594   5.836   1.353   6.287  0.4374  0.1383 -1.7191
20035TIP3   OH281595   2.717   4.173  15.352  0.9706 -0.3782 -0.0883
20035TIP3    H181596   2.669   4.091  15.355  1.6108 -0.7830 -0.5149
20035TIP3    H281597   2.793   4.158  15.409  0.8028  0.1117  0.2697
20036TIP3   OH281598   0.673   0.630   0.337 -0.6909  0.0759  0.0490
20036TIP3    H181599   0.658   0.540   0.366 -1.2112 -0.1115 -0.7853
20036TIP3    H281600   0.623   0.638   0.256 -2.4213  1.7908  1.2251
20037TIP3   OH281601   1.217   0.845   1.634  0.5563 -0.2222 -0.3578
20037TIP3    H181602   1.273   0.917   1.605  0.9669 -0.7383 -0.8596
20037TIP3    H281603   1.269   0.798   1.699  0.5286 -0.4373 -0.4903
20038TIP3   OH281604   2.778   4.319   5.619  0.5383 -0.0654  0.4379
20038TIP3    H181605   2.804   4.397   5.669  1.6648  0.2913 -0.6639
20038TIP3    H281606   2.858   4.292   5.573 -0.5076 -0.2363 -1.3596
20039TIP3   OH281607   4.366   3.415  13.104  0.1973 -0.5976  0.1654
20039TIP3    H181608   4.389   3.339  13.156  1.1035 -0.7343 -0.4170
20039TIP3    H281609   4.289   3.451  13.147 -0.1460 -1.7437  0.5387
20040TIP3   OH281610   2.878   2.391  11.266 -0.4976 -0.4317  0.4892
20040TIP3    H181611   2.805   2.400  11.204  1.0526 -0.2542 -1.4276
20040TIP3    H281612   2.866   2.305  11.305 -1.1372 -0.8792 -0.6357
20041TIP3   OH281613   1.977   3.964  13.029  0.3788  0.1714 -0.1875
20041TIP3    H181614   2.027   3.910  13.090  1.0570  1.1704  0.1443
20041TIP3    H281615   2.040   3.992  12.963 -0.4109 -1.2140 -1.6317
20042TIP3   OH281616   6.387   4.121   1.693  0.1935  0.4502  0.1155
20042TIP3    H181617   6.477   4.144   1.716  0.7703 -1.3342 -0.1934
20042TIP3    H281618   6.381   4.027   1.713 -1.7134  0.6095  0.4660
20043TIP3   OH281619   6.832   3.044   0.691 -0.4288  0.2586  0.2139
20043TIP3    H181620   6.860   3.031   0.782  1.2787 -0.6673 -0.3903
20043TIP3    H281621   6.839   2.957   0.652  0.9958  1.0021 -1.3352
20044TIP3   OH281622   3.678   4.424  14.539  0.1518  0.1514 -0.1384
20044TIP3    H181623   3.658   4.490  14.605 -0.7970  0.7243 -0.9635
20044TIP3    H281624   3.602   4.365  14.541  0.6255 -0.4589  0.0374
20045TIP3   OH281625   5.240   4.092  14.227  0.6053 -0.1159  0.7416
20045TIP3    H181626   5.176   4.049  14.170  2.6238 -1.5989 -0.5807
20045TIP3    H281627   5.217   4.184  14.224 -1.2863 -0.5593  0.1033
20046TIP3   OH281628   5.028   6.795   2.527 -0.6127 -0.0513 -0.2965
20046TIP3    H181629   5.115   6.755   2.526 -1.1852 -1.3384 -1.3548
20046TIP3    H281630   4.971   6.725   2.558 -1.2820  0.8251  0.5225
20047TIP3   OH281631   1.705   3.594  15.525  0.3870  0.4224  0.6717
20047TIP3    H181632   1.648   3.611  15.600 -0.1532 -1.3536  0.7285
20047TIP3    H281633   1.791   3.625  15.552 -0.1794  1.4738  1.3034
20048TIP3   OH281634   0.208   5.116   3.183  0.3092 -0.0597  0.1120
20048TIP3    H181635   0.123   5.157   3.168 -0.2147 -1.6481 -1.6556
20048TIP3    H281636   0.190   5.046   3.245  0.3002 -0.4040 -0.2723
20049TIP3   OH281637   0.834   2.404   3.819  0.2742  0.1050  0.0315
20049TIP3    H181638   0.789   2.364   3.744  1.2615 -1.2645  0.1188
20049TIP3    H281639   0.907   2.452   3.780  0.6728 -0.4470  0.0747
20050TIP3   OH281640   3.899   3.742  16.093 -0.3632 -0.0627 -0.8296
20050TIP3    H181641   3.804   3.740  16.107 -0.3093  0.7704 -0.2789
20050TIP3    H281642   3.913   3.821  16.041  0.2216  0.9449  0.7805
20051TIP3   OH281643   1.821   3.459  14.229  0.0678 -0.1612 -0.2581
20051TIP3    H181644   1.789   3.412  14.306  0.6922 -2.2164 -1.1656
20051TIP3    H281645   1.859   3.390  14.174  2.5963  1.6677 -0.9322
20052TIP3   OH281646   1.237   1.766  13.342  0.5451  0.5481  0.1280
20052TIP3    H181647   1.154   1.773  13.295 -0.7693 -1.9382  1.8585
20052TIP3    H281648   1.213   1.775  13.434  2.2817  0.4009  0.6239
20053TIP3   OH281649   5.481   1.162   5.031 -0.4498  0.2139  0.1166
20053TIP3    H181650   5.399   1.134   4.990  1.1777  0.4930 -3.6412
20053TIP3    H281651   5.514   1.084   5.076 -2.3998 -0.0532  1.2014
20054TIP3   OH281652   3.560   5.495  11.607  0.3254 -0.1122  0.1964
20054TIP3    H181653   3.652   5.484  11.630  0.3685 -0.9052 -0.3426
20054TIP3    H281654   3.546   5.435  11.534 -1.0605 -1.3596  1.4194
20055TIP3   OH281655   5.232   0.814   4.599  0.2762  0.2347  0.1059
20055TIP3    H181656   5.184   0.737   4.569  0.8484  0.2319 -0.8620
20055TIP3    H281657   5.234   0.805   4.695  0.4382 -1.0187  0.0121
20056TIP3   OH281658   0.554   1.752  12.069  1.2254  0.1845 -0.0634
20056TIP3    H181659   0.572   1.839  12.104 -0.6917  0.4296  0.4019
20056TIP3    H281660   0.579   1.691  12.139  0.2181  0.5200  0.6122
20057TIP3   OH281661   6.061   3.579  13.773  0.2486 -0.2550 -0.2951
20057TIP3    H181662   6.080   3.485  13.774 -0.9695 -0.5798  2.6175
20057TIP3    H281663   6.106   3.612  13.696  0.8612 -3.1965 -1.3134
20058TIP3   OH281664   5.547   1.807  12.164  0.1459 -0.2540  0.0198
20058TIP3    H181665   5.563   1.763  12.247 -1.3014  1.9402  1.5508
20058TIP3    H281666   5.459   1.779  12.138 -1.4956  2.7578  1.8509
20059TIP3   OH281667   2.129   0.655   4.310 -0.2319 -0.5886 -0.4424
20059TIP3    H181668   2.066   0.603   4.360  0.0052 -1.7213 -1.2891
20059TIP3    H281669   2.214   0.615   4.329  0.6777  2.3349  2.5599
20060TIP3   OH281670   5.309   4.956  16.405 -0.0361 -0.0998 -0.1766
20060TIP3    H181671   5.333   4.896  16.475  0.6619  2.5202  1.9972
20060TIP3    H281672   5.222   4.989  16.431 -0.0331  0.4596 -0.8510
20061TIP3   OH281673   6.514   4.275  16.799  0.4481 -0.0772 -0.6490
20061TIP3    H181674   6.571   4.340  16.759  1.0651 -1.4144 -2.0723
20061TIP3    H281675   6.474   4.229  16.724 -0.5962 -0.7846  0.3091
20062TIP3   OH281676   4.091   0.827  15.605  0.0798 -0.4234  0.0535
20062TIP3    H181677   4.000   0.801  15.596  0.0990  0.1191 -2.0605
20062TIP3    H281678   4.131   0.808  15.521  0.5031  4.5789 -1.2045
20063TIP3   OH281679   4.360   6.396  13.910  0.1342  0.3398  0.4550
20063TIP3    H181680   4.432   6.336  13.888  0.7090  1.3451 -0.5303
20063TIP3    H281681   4.382   6.427  13.998 -1.3078 -2.4597  1.9302
20064TIP3   OH281682   0.688   1.416  15.377  0.8098 -0.1570  0.1751
20064TIP3    H181683   0.766   1.369  15.406  0.8442 -0.4030 -0.2973
20064TIP3    H281684   0.671   1.382  15.289  0.5499  0.3670  0.0183
20065TIP3   OH281685   6.373   0.580   0.977 -0.3042  0.0817 -0.6192
20065TIP3    H181686   6.316   0.650   1.008 -2.5740 -1.9814  0.2472
20065TIP3    H281687   6.350   0.570   0.884 -0.5532 -0.0048 -0.5501
20066TIP3   OH281688   2.213   5.344   0.497  0.1983 -0.1514  0.0562
20066TIP3    H181689   2.177   5.391   0.422 -1.1069 -0.5266  0.4113
20066TIP3    H281690   2.300   5.316   0.469 -0.1627 -0.0524 -1.2123
20067TIP3   OH281691   1.927   1.600   6.308 -0.3105  0.1590  0.1297
20067TIP3    H181692   1.865   1.578   6.377  1.5571 -2.2843  1.1962
20067TIP3    H281693   1.904   1.542   6.235 -0.0769  0.1377  0.0698
20068TIP3   OH281694   1.938   3.241  16.551  0.1276 -0.0058  0.3441
20068TIP3    H181695   1.936   3.213  16.459  0.5989  1.0057  0.0033
20068TIP3    H281696   1.993   3.320  16.550  0.8743 -0.4868  1.6451
20069TIP3   OH281697   0.441   1.378   4.622 -0.7322 -0.1118 -0.1083
20069TIP3    H181698   0.388   1.372   4.702 -1.4653  0.3359 -0.5540
20069TIP3    H281699   0.510   1.313   4.635 -0.6497  0.1778  1.0316
20070TIP3   OH281700   6.130   1.235   3.073  0.8990  0.4413  0.4170
20070TIP3    H181701   6.209   1.192   3.105  1.2301  0.0515 -0.8444
20070TIP3    H281702   6.121   1.204   2.983 -0.4994  0.7630  0.4237
20071TIP3   OH281703   0.100   6.721  17.109  0.1198  0.2502  0.0272
20071TIP3    H181704   0.143   6.654  17.162  1.2246 -0.2594 -1.4639
20071TIP3    H281705   0.059   6.673  17.038 -1.6839  0.8916  0.5703
20072TIP3   OH281706   4.646   3.054   2.497 -0.2447 -0.0166 -0.2425
20072TIP3    H181707   4.643   2.976   2.552  2.3502 -0.5587 -0.7557
20072TIP3    H281708   4.616   3.025   2.411  2.1440 -0.9128 -0.8402
20073TIP3   OH281709   3.899   3.213  17.111  0.4949  0.4266 -0.5978
20073TIP3    H181710   3.825   3.207  17.051 -1.1747 -2.6625  1.4561
20073TIP3    H281711   3.867   3.267  17.184  0.2722 -0.7085  0.1809
20074TIP3   OH281712   3.648   3.847   4.625  0.3522  0.2109 -0.0611
20074TIP3    H181713   3.624   3.835   4.534 -1.6786  0.1529  0.4348
20074TIP3    H281714   3.616   3.768   4.669 -0.1947  0.9601  0.9335
20075TIP3   OH281715   1.613   1.821  14.186 -0.5441 -0.2183  0.0822
20075TIP3    H181716   1.548   1.889  14.168  0.2334  0.5572  0.1153
20075TIP3    H281717   1.660   1.809  14.103 -1.0090 -1.0984 -0.0677
20076TIP3   OH281718   4.543   4.506  14.454 -0.1258  0.0396  0.3671
20076TIP3    H181719   4.452   4.483  14.474  0.3609 -2.2185  0.2740
20076TIP3    H281720   4.567   4.570  14.522 -1.4179 -0.2328  1.1158
20077TIP3   OH281721   5.627   4.353   0.713 -0.7187 -0.3069 -0.3597
20077TIP3    H181722   5.671   4.324   0.633 -0.1526 -1.6907  0.4235
20077TIP3    H281723   5.536   4.369   0.686 -1.0506 -2.7369 -0.9022
20078TIP3   OH281724   2.126   3.689  10.147  0.2479  0.2918  0.6056
20078TIP3    H181725   2.122   3.784  10.158 -0.2958  0.1051  2.2558
20078TIP3    H281726   2.091   3.653  10.229 -2.5120 -1.3483 -1.1094
20079TIP3   OH281727   3.684   2.478  12.426  0.1582  0.4243  0.4371
20079TIP3    H181728   3.637   2.532  12.489 -1.1048 -1.3996  1.1280
20079TIP3    H281729   3.616   2.446  12.366  1.0051  0.3093 -0.4865
20080TIP3   OH281730   4.781   3.838   5.364  0.2811  0.2054  0.3235
20080TIP3    H181731   4.817   3.776   5.428  0.6990 -0.2033 -0.3006
20080TIP3    H281732   4.686   3.827   5.372  0.3184  0.2692  0.9741
20081TIP3   OH281733   1.682   6.015  16.844 -0.5802 -0.2871 -0.3296
20081TIP3    H181734   1.669   6.043  16.934 -2.1315  0.4257 -0.7309
20081TIP3    H281735   1.684   5.919  16.849  0.6604 -0.2310  0.5902
20082TIP3   OH281736   5.151   1.629  12.769 -0.0560  0.2773  0.1115
20082TIP3    H181737   5.083   1.562  12.758 -0.2543  0.3303  0.9326
20082TIP3    H281738   5.200   1.600  12.846  0.3745  0.6480 -0.0207
20083TIP3   OH281739   2.283   4.007   4.397 -0.3182  0.8039 -0.4219
20083TIP3    H181740   2.220   3.941   4.429  1.3968 -0.0127  1.5189
20083TIP3    H281741   2.233   4.059   4.334 -2.8803  0.0794  0.8555
20084TIP3   OH281742   5.863   0.953   4.260  0.1868 -0.0020 -0.2019
20084TIP3    H181743   5.771   0.948   4.234  0.1960  0.3324 -0.2924
20084TIP3    H281744   5.912   0.950   4.178  0.2563 -0.0856 -0.1586
20085TIP3   OH281745   2.897   0.112  13.698 -0.1293 -0.6013 -0.0934
20085TIP3    H181746   2.843   0.058  13.640  0.8987 -1.9345  0.1279
20085TIP3    H281747   2.976   0.059  13.712 -0.1414 -0.1176  2.1073
20086TIP3   OH281748   2.143   0.894   1.483 -0.3047  0.2449 -0.5715
20086TIP3    H181749   2.144   0.907   1.388 -1.3346 -1.8510 -0.9349
20086TIP3    H281750   2.225   0.849   1.503 -0.9532 -1.1210 -0.8307
20087TIP3   OH281751   4.939   4.857   2.690 -0.6834 -0.1329 -0.6513
20087TIP3    H181752   4.950   4.789   2.756 -0.9465 -1.0146 -1.4916
20087TIP3    H281753   4.874   4.821   2.629  0.5518  0.0702 -2.1512
20088TIP3   OH281754   2.141   2.569  13.654 -0.3681 -0.2790  0.5379
20088TIP3    H181755   2.094   2.652  13.653  0.9769  0.5293  0.9280
20088TIP3    H281756   2.230   2.592  13.627  0.2742 -1.4137  1.5900
20089TIP3   OH281757   1.272   3.060  10.316 -0.4785  0.5311  0.3256
20089TIP3    H181758   1.342   3.033  10.256 -0.6578  1.2864 -0.2338
20089TIP3    H281759   1.195   3.012  10.286 -0.1317 -0.5714  1.1597
20090TIP3   OH281760   6.806   4.829  13.323 -0.8306  0.4302 -0.1114
20090TIP3    H181761   6.877   4.805  13.264 -0.4757 -0.9655  0.8576
20090TIP3    H281762   6.812   4.924  13.330  0.5608  0.3862 -0.4983
20091TIP3   OH281763   4.133   4.269  14.110  0.4670 -0.3284 -0.6670
20091TIP3    H181764   4.107   4.336  14.174 -2.5311 -3.3609  1.6568
20091TIP3    H281765   4.100   4.302  14.027 -0.1957  1.4395  0.2404
20092TIP3   OH281766   5.947   0.758  14.342 -0.2552  0.2906 -0.3446
20092TIP3    H181767   5.924   0.755  14.435  1.1842  1.3738  0.0888
20092TIP3    H281768   5.866   0.735  14.297 -1.4373  1.2763  1.1365
20093TIP3   OH281769   0.552   2.606  12.304 -0.0433 -0.3920 -0.3578
20093TIP3    H181770   0.504   2.622  12.223 -0.4411  0.3645  0.0079
20093TIP3    H281771   0.499   2.541  12.351  0.1081 -0.7154 -0.6322
20094TIP3   OH281772   6.754   6.405  16.677  0.2387 -0.3014 -0.4197
20094TIP3    H181773   6.672   6.367  16.646  0.0477  1.4203 -2.1832
20094TIP3    H281774   6.819   6.380  16.612  0.2816  1.5530 -1.1396
20095TIP3   OH281775   5.962   0.943   3.016 -0.0436  0.3408  0.2742
20095TIP3    H181776   5.973   0.902   3.101 -1.2403  1.9468  1.2763
20095TIP3    H281777   5.873   0.979   3.018  0.4158  1.6843 -1.0594
20096TIP3   OH281778   4.599   1.953  13.569  0.8532  0.3919  0.0375
20096TIP3    H181779   4.504   1.955  13.558  0.9566  3.0851 -1.0213
20096TIP3    H281780   4.632   1.903  13.495  0.2554 -1.6104  1.0614
20097TIP3   OH281781   3.421   1.307   3.316  0.3603  0.0732 -0.0232
20097TIP3    H181782   3.420   1.386   3.370 -1.0018 -0.9049  1.4873
20097TIP3    H281783   3.473   1.243   3.366  3.1028  0.4826 -2.1033
20098TIP3   OH281784   4.524   1.533   0.255 -0.4811  0.2887 -0.0601
20098TIP3    H181785   4.612   1.498   0.259 -0.2182  1.0491  1.5530
20098TIP3    H281786   4.471   1.462   0.220  0.8218 -0.0292 -1.4955
20099TIP3   OH281787   2.195   1.936  11.511  0.3639  0.4136 -0.2446
20099TIP3    H181788   2.152   1.936  11.426  1.3489  0.3987 -0.7515
20099TIP3    H281789   2.187   2.026  11.542 -2.9767 -0.2342  1.2319
20100TIP3   OH281790   1.358   4.754   2.047 -0.0256  0.2515  0.8816
20100TIP3    H181791   1.304   4.803   2.109  1.2908  0.3500  1.9882
20100TIP3    H281792   1.381   4.817   1.979 -0.0876  0.6005  1.1824
20101TIP3   OH281793   3.327   1.325   0.574 -0.5150  0.1034 -0.9320
20101TIP3    H181794   3.389   1.391   0.606  0.1405 -0.2441 -1.4505
20101TIP3    H281795   3.252   1.376   0.542 -0.9216  0.4790  0.5524
20102TIP3   OH281796   3.634   4.374   3.649  0.2867 -0.3584 -0.8251
20102TIP3    H181797   3.620   4.301   3.709 -0.1095  0.3805  0.0012
20102TIP3    H281798   3.702   4.426   3.691 -1.0790  0.9990 -0.2121
20103TIP3   OH281799   1.413   2.005   1.564 -0.1336 -0.4859 -0.3017
20103TIP3    H181800   1.465   1.984   1.487 -2.4808 -1.2110 -1.8103
20103TIP3    H281801   1.362   1.926   1.581  0.8550 -0.6196  2.5225
20104TIP3   OH281802   0.082   6.529   5.549  0.0147 -0.1255  0.2998
20104TIP3    H181803   0.045   6.472   5.481  1.6157  1.5759 -2.1935
20104TIP3    H281804   0.075   6.617   5.512  1.1620  0.8613  2.2862
20105TIP3   OH281805   3.638   0.964   0.382 -0.0012  0.2626 -0.3668
20105TIP3    H181806   3.620   1.029   0.450  1.2259  1.2482 -0.9489
20105TIP3    H281807   3.732   0.971   0.365 -0.2288 -0.1231 -1.9866
20106TIP3   OH281808   3.369   4.842  13.694  0.5195 -1.0153 -0.6504
20106TIP3    H181809   3.331   4.786  13.762  0.8959  1.0229  1.3350
20106TIP3    H281810   3.300   4.847  13.627 -0.3818 -2.0530  0.1529
20107TIP3   OH281811   3.599   5.212   3.917 -0.2181 -0.7404 -0.6223
20107TIP3    H181812   3.693   5.213   3.898 -0.2222 -4.8555 -2.0307
20107TIP3    H281813   3.559   5.259   3.844  0.6840 -0.9223 -1.2534
20108TIP3   OH281814   4.711   3.671   4.728  0.0771  0.3942  0.0176
20108TIP3    H181815   4.660   3.594   4.752  0.8764  0.6790  3.1736
20108TIP3    H281816   4.801   3.640   4.725  0.2885  0.9846  0.1796
20109TIP3   OH281817   1.187   1.346   4.550  0.5360 -0.6222  0.1521
20109TIP3    H181818   1.228   1.260   4.564  1.2398 -0.2846  0.1618
20109TIP3    H281819   1.259   1.403   4.525  0.0088 -0.1119 -0.2089
20110TIP3   OH281820   4.587   6.575  16.575  0.7026 -0.2391  0.2287
20110TIP3    H181821   4.600   6.616  16.489  0.1608 -1.6039 -0.5398
20110TIP3    H281822   4.668   6.591  16.622  1.5500 -0.6288 -1.0451
20111TIP3   OH281823   3.022   1.396   0.800  0.2512 -0.8324 -0.4493
20111TIP3    H181824   2.952   1.438   0.849  0.0145 -1.2252 -0.4410
20111TIP3    H281825   3.098   1.452   0.812 -0.6642  1.0434 -2.5413
20112TIP3   OH281826   6.765   1.748  14.082  0.7801 -0.1362  0.0361
20112TIP3    H181827   6.779   1.799  14.161  1.1877  0.0219 -0.1350
20112TIP3    H281828   6.671   1.752  14.066  0.9236  1.3864 -0.5283
20113TIP3   OH281829   3.552   1.708  15.809  0.4405  0.3583 -0.4271
20113TIP3    H181830   3.622   1.664  15.857  0.1178  0.1870 -0.1110
20113TIP3    H281831   3.554   1.798  15.841 -1.1132 -0.2202  1.4679
20114TIP3   OH281832   4.304   3.380  12.753 -0.1655 -0.0260 -0.2667
20114TIP3    H181833   4.234   3.387  12.818  0.2049 -0.3825  0.1693
20114TIP3    H281834   4.372   3.439  12.784 -0.0736 -0.0351 -0.4456
20115TIP3   OH281835   5.164   4.976   2.765 -0.5667 -0.1972  0.3292
20115TIP3    H181836   5.106   4.909   2.727 -0.6533  0.4394 -0.6933
20115TIP3    H281837   5.105   5.048   2.788 -0.6570 -0.8882  2.5658
20116TIP3   OH281838   2.910   1.314   5.102 -0.3190 -0.4425  0.8978
20116TIP3    H181839   2.865   1.232   5.123 -0.7946 -0.5268 -0.3823
20116TIP3    H281840   2.985   1.288   5.049 -1.4417  0.0308 -1.0241
20117TIP3   OH281841   0.253   5.465  12.409 -0.2893  0.1421 -0.0420
20117TIP3    H181842   0.264   5.411  12.487  2.2490 -0.2273 -0.5571
20117TIP3    H281843   0.205   5.542  12.440 -1.5937 -1.1269  1.2806
20118TIP3   OH281844   4.914   6.784  14.310  0.5960 -0.2292  0.4531
20118TIP3    H181845   4.842   6.803  14.370  0.3444  2.2684 -0.5542
20118TIP3    H281846   4.990   6.827  14.349  0.5336  1.0034 -0.7175
20119TIP3   OH281847   0.483   5.030  11.854 -0.2898 -0.4294  0.1192
20119TIP3    H181848   0.416   5.049  11.789 -1.0693 -1.3122  0.6331
20119TIP3    H281849   0.482   5.105  11.913 -0.8783 -0.4570  0.1488
20120TIP3   OH281850   5.186   4.990  11.079 -0.1549 -0.5692 -0.0402
20120TIP3    H181851   5.100   4.949  11.091  0.0245 -0.2844  3.0536
20120TIP3    H281852   5.192   5.054  11.150  1.0872  2.2879 -2.5111
20121TIP3   OH281853   4.554   1.581  16.509 -0.6326 -0.6153  0.0518
20121TIP3    H181854   4.500   1.546  16.438  0.3343  0.0489 -1.0691
20121TIP3    H281855   4.545   1.676  16.501 -1.3737 -0.5371  1.5391
20122TIP3   OH281856   2.339   2.087   5.681  0.3579 -0.1212  0.5217
20122TIP3    H181857   2.353   2.112   5.773  0.3304  0.6769  0.3197
20122TIP3    H281858   2.415   2.035   5.658  0.8722  0.5379  0.7021
20123TIP3   OH281859   4.767   1.090  11.655 -0.1338 -0.1645  0.0268
20123TIP3    H181860   4.751   1.174  11.613  3.1196  0.9216  0.6399
20123TIP3    H281861   4.809   1.036  11.588  3.0060  0.7971  1.0525
20124TIP3   OH281862   0.509   4.430   1.429  0.2668 -0.6609 -0.1648
20124TIP3    H181863   0.567   4.355   1.441 -0.8852 -1.6195 -0.4122
20124TIP3    H281864   0.428   4.393   1.394 -0.5291  0.6242  0.2213
20125TIP3   OH281865   0.278   1.825  12.340 -0.0361  0.0146 -0.2876
20125TIP3    H181866   0.298   1.836  12.433 -0.5823 -0.3002 -0.1278
20125TIP3    H281867   0.342   1.760  12.309 -0.6686 -0.8267  0.1664
20126TIP3   OH281868   3.274   5.682   3.861 -0.5406 -0.2106  0.2030
20126TIP3    H181869   3.233   5.606   3.821 -1.2630 -0.1478  0.8050
20126TIP3    H281870   3.361   5.652   3.888 -0.0824 -0.2798 -1.2953
20127TIP3   OH281871   0.723   3.409   3.785 -0.4540  0.3245  0.0380
20127TIP3    H181872   0.717   3.314   3.793 -3.4366  0.3439 -0.5261
20127TIP3    H281873   0.782   3.424   3.712  1.5133 -0.9691  1.2593
20128TIP3   OH281874   2.329   5.128  14.687 -0.1216 -0.2274  0.4951
20128TIP3    H181875   2.367   5.172  14.611  0.5214 -1.3071  0.1676
20128TIP3    H281876   2.318   5.197  14.752 -0.5971  0.7012 -0.5415
20129TIP3   OH281877   6.075   3.159  12.495  0.3791 -0.1086  0.1037
20129TIP3    H181878   6.076   3.102  12.573 -1.4042 -1.1710 -0.5842
20129TIP3    H281879   6.111   3.242  12.525  1.8990 -1.2034  1.4748
20130TIP3   OH281880   4.481   0.402   2.544 -0.0944  0.4715 -0.2381
20130TIP3    H181881   4.433   0.326   2.511  0.8707 -0.0382 -0.4915
20130TIP3    H281882   4.499   0.382   2.636 -2.1899  1.6000  0.5063
20131TIP3   OH281883   2.008   2.782  11.840  0.0666 -0.3921 -0.0598
20131TIP3    H181884   1.924   2.825  11.857  0.3292 -0.0552  0.3870
20131TIP3    H281885   2.024   2.798  11.747 -1.6295 -2.6896 -0.8403
20132TIP3   OH281886   2.429   6.496  16.628  0.2378  0.3325  1.0135
20132TIP3    H181887   2.356   6.460  16.578 -0.3817 -1.2248  2.9348
20132TIP3    H281888   2.500   6.433  16.616  0.9448  1.2453  0.1154
20133TIP3   OH281889   6.567   1.139   2.414 -0.2532 -0.5107 -0.0686
20133TIP3    H181890   6.566   1.118   2.507  1.3222  0.1357  0.1277
20133TIP3    H281891   6.641   1.090   2.379 -1.2875 -1.3506 -1.1597
20134TIP3   OH281892   3.406   1.891  15.236  0.0715  0.5470  0.3379
20134TIP3    H181893   3.318   1.927  15.228  0.5592  1.6355 -0.3745
20134TIP3    H281894   3.402   1.807  15.191 -0.1019  1.5234 -1.5494
20135TIP3   OH281895   6.738   5.433   5.461  0.3813 -0.5861  0.2081
20135TIP3    H181896   6.822   5.456   5.500  0.4112  3.0134 -1.5704
20135TIP3    H281897   6.687   5.396   5.533  2.8255 -1.1717  1.7356
20136TIP3   OH281898   1.259   1.677  15.696 -0.6458 -0.2158 -0.1240
20136TIP3    H181899   1.349   1.703  15.714 -0.5325 -0.3571 -0.4814
20136TIP3    H281900   1.207   1.753  15.720 -0.3628  0.1438 -0.6531
20137TIP3   OH281901   2.486   6.117   5.822  0.0080  0.2278 -0.1172
20137TIP3    H181902   2.470   6.028   5.854  0.0028  0.6149  0.9968
20137TIP3    H281903   2.516   6.105   5.732  0.2299 -0.9093  0.0948
20138TIP3   OH281904   0.206   2.039   4.408 -0.1986 -0.6419 -0.5388
20138TIP3    H181905   0.140   2.020   4.341 -0.1773  0.4943 -0.9085
20138TIP3    H281906   0.158   2.042   4.490 -0.3223 -1.4484 -0.5697
20139TIP3   OH281907   2.486   5.442  13.072  0.8049  0.2506  0.8737
20139TIP3    H181908   2.390   5.440  13.074  0.7419  1.6992  0.4317
20139TIP3    H281909   2.509   5.530  13.103  1.8863  0.7738 -1.2124
20140TIP3   OH281910   2.023   4.390  13.378 -0.3244 -0.2441  0.1476
20140TIP3    H181911   1.971   4.368  13.456  0.0060  1.7244  0.9890
20140TIP3    H281912   2.113   4.394  13.410 -0.0547 -0.4004 -0.5808
20141TIP3   OH281913   5.038   5.084  14.978 -0.2312  0.2464  0.3321
20141TIP3    H181914   4.949   5.084  15.013  0.7285  0.8712  3.0239
20141TIP3    H281915   5.089   5.133  15.042  2.6685 -2.8132  0.6417
20142TIP3   OH281916   1.582   4.714   1.417  0.0298  0.1075 -0.0432
20142TIP3    H181917   1.672   4.708   1.386  0.5777  1.6994  1.1027
20142TIP3    H281918   1.543   4.785   1.366 -0.6964 -0.7495 -0.7248
20143TIP3   OH281919   5.812   6.323  11.156  0.0616 -0.3559  0.1724
20143TIP3    H181920   5.904   6.341  11.174  0.5329 -2.2893 -0.0421
20143TIP3    H281921   5.798   6.235  11.191 -0.9200 -1.2599 -2.2396
20144TIP3   OH281922   3.972   4.087  17.057 -0.5223 -0.3787 -0.5335
20144TIP3    H181923   3.952   3.996  17.079 -0.7274 -0.6026 -1.5919
20144TIP3    H281924   3.942   4.137  17.133  0.2474 -1.2490  0.3786
20145TIP3   OH281925   6.348   2.984  15.919  0.1566 -0.3881 -0.1785
20145TIP3    H181926   6.326   2.891  15.925 -2.4650  0.1366 -0.5234
20145TIP3    H281927   6.307   3.024  15.995 -0.7342  0.7815 -1.2192
20146TIP3   OH281928   3.648   2.878  15.187 -0.0726 -0.4612 -0.0892
20146TIP3    H181929   3.705   2.809  15.154 -1.6993 -0.5481 -3.1066
20146TIP3    H281930   3.696   2.959  15.172  0.0699 -0.6626 -0.7419
20147TIP3   OH281931   4.853   5.400  14.399  0.0839  0.2398 -0.5605
20147TIP3    H181932   4.923   5.365  14.453 -0.3503 -0.3468 -0.3664
20147TIP3    H281933   4.883   5.388  14.309  0.2907  0.1184 -0.4744
20148TIP3   OH281934   2.339   1.994  12.973 -1.0166 -0.9962  0.5278
20148TIP3    H181935   2.353   2.088  12.959  1.1227 -1.6309 -2.5254
20148TIP3    H281936   2.249   1.978  12.947 -1.0206  0.0418 -0.1282
20149TIP3   OH281937   1.087   2.810   4.935 -0.4149 -0.3645 -0.6015
20149TIP3    H181938   1.044   2.877   4.989  0.2252 -2.2865  2.5072
20149TIP3    H281939   1.176   2.842   4.923 -0.5470  0.0542 -0.4870
20150TIP3   OH281940   5.447   3.933   4.992  0.2233 -0.0866 -0.0306
20150TIP3    H181941   5.485   4.014   4.958 -3.3204  2.5010  1.5309
20150TIP3    H281942   5.356   3.935   4.963 -0.3381 -2.8866  1.1934
20151TIP3   OH281943   5.914   2.264  14.683 -0.3886  0.6160  0.7439
20151TIP3    H181944   5.965   2.263  14.765  1.0580 -0.7190 -0.1045
20151TIP3    H281945   5.967   2.213  14.622 -2.3696 -0.1075 -0.4665
20152TIP3   OH281946   6.180   1.101  11.427  0.3942  0.5677 -0.1335
20152TIP3    H181947   6.268   1.066  11.436  0.5332  1.1067  0.6483
20152TIP3    H281948   6.139   1.046  11.360  1.2246  0.1355 -0.2965
20153TIP3   OH281949   0.324   6.857  15.593  0.5274 -0.2473  0.1410
20153TIP3    H181950   0.381   6.905  15.653  0.2869 -0.3754  0.4737
20153TIP3    H281951   0.236   6.882  15.618  0.4438  0.3420 -0.7060
20154TIP3   OH281952   2.568   1.358   3.404  0.2244 -0.0760 -0.2794
20154TIP3    H181953   2.617   1.321   3.478  1.9145 -0.4883 -1.5350
20154TIP3    H281954   2.547   1.282   3.349 -0.4766  0.2979 -0.5451
20155TIP3   OH281955   2.955   0.181   1.932 -0.0873  0.0488 -0.2015
20155TIP3    H181956   2.986   0.132   2.008 -0.8630 -0.8381 -0.4336
20155TIP3    H281957   2.865   0.204   1.954  0.6247  2.4873  0.4223
20156TIP3   OH281958   2.638   5.901  11.908 -0.5003 -0.4229  0.1577
20156TIP3    H181959   2.709   5.844  11.879 -0.1202  0.0549  0.1396
20156TIP3    H281960   2.566   5.841  11.927 -0.2298 -0.8759 -0.2226
20157TIP3   OH281961   5.741   4.600   6.235  0.7588  0.3540  0.0699
20157TIP3    H181962   5.667   4.562   6.283  1.0185  2.0224  1.9670
20157TIP3    H281963   5.816   4.550   6.265  0.6739  0.0777 -0.1730
20158TIP3   OH281964   3.888   0.337  14.181  0.1438 -0.5475  0.6898
20158TIP3    H181965   3.885   0.246  14.211  0.2261 -0.3370  1.3347
20158TIP3    H281966   3.958   0.377  14.233 -1.3474  0.4517  2.0077
20159TIP3   OH281967   4.599   2.330   4.462 -0.1864  0.0253  0.3052
20159TIP3    H181968   4.634   2.373   4.540  0.0067 -0.5334  0.5329
20159TIP3    H281969   4.627   2.238   4.471  1.3098  0.2872 -1.2624
20160TIP3   OH281970   2.789   2.567   0.966  0.5497 -0.2079  0.2135
20160TIP3    H181971   2.865   2.621   0.944  0.1866  0.4973  0.6538
20160TIP3    H281972   2.826   2.492   1.013  1.1480 -0.8282 -1.1821
20161TIP3   OH281973   5.184   4.285   1.541 -0.1154 -0.7680  0.0191
20161TIP3    H181974   5.148   4.373   1.549  1.3334 -0.0857 -0.7268
20161TIP3    H281975   5.235   4.272   1.621  0.4530 -0.5474 -0.3026
20162TIP3   OH281976   2.901   2.383  16.391  0.7620 -0.3413 -0.6408
20162TIP3    H181977   2.975   2.332  16.425  0.9247  0.8598  0.9157
20162TIP3    H281978   2.935   2.428  16.314  1.8592  0.6994  0.4280
20163TIP3   OH281979   4.475   3.509   3.090 -0.0663  0.5382  0.0521
20163TIP3    H181980   4.497   3.598   3.062 -0.5024  1.2834  1.9359
20163TIP3    H281981   4.479   3.511   3.186 -1.4742 -1.0795  0.2156
20164TIP3   OH281982   2.624   1.748   6.669 -0.0227 -0.3580 -0.4610
20164TIP3    H181983   2.599   1.676   6.612 -1.6450 -0.5905  0.5016
20164TIP3    H281984   2.598   1.827   6.622  0.8756 -0.4082 -1.0828
20165TIP3   OH281985   4.139   2.862  12.579 -0.2715 -0.0806  0.1725
20165TIP3    H181986   4.050   2.893  12.598 -0.2748 -0.2266  0.3976
20165TIP3    H281987   4.127   2.775  12.541 -0.2123 -0.2204  0.4698
20166TIP3   OH281988   2.174   2.210  10.717 -0.4922  0.1234 -0.1980
20166TIP3    H181989   2.087   2.234  10.747 -0.6068 -0.3777 -0.1157
20166TIP3    H281990   2.183   2.252  10.631 -0.2112  1.4625  0.4588
20167TIP3   OH281991   0.570   2.914  13.455 -0.1268  0.4503  0.9845
20167TIP3    H181992   0.645   2.895  13.397 -0.5729 -0.4706  0.6885
20167TIP3    H281993   0.520   2.980  13.407  0.5970  1.2236  1.2769
20168TIP3   OH281994   1.438   4.528   0.002 -0.1268  0.3429  0.4049
20168TIP3    H181995   1.480   4.447   0.031 -0.5844  0.0588  0.2892
20168TIP3    H281996   1.510   4.585  -0.024  0.2673  0.4953  1.8026
20169TIP3   OH281997   6.770   2.387   5.454 -0.1844  0.5551  0.9486
20169TIP3    H181998   6.687   2.377   5.501 -0.1374 -0.6060  0.8127
20169TIP3    H281999   6.753   2.458   5.391 -1.7946 -1.1016 -0.5982
20170TIP3   OH282000   3.407   5.917   3.977  0.0744 -0.0800  0.1897
20170TIP3    H182001   3.359   5.837   3.953  0.5045 -0.3908  0.3630
20170TIP3    H282002   3.499   5.891   3.977  0.7242  1.4147 -3.9592
20171TIP3   OH282003   2.266   2.331  12.503 -0.0438  0.2861 -0.4038
20171TIP3    H182004   2.339   2.328  12.442  0.6050  2.2583  0.1952
20171TIP3    H282005   2.211   2.403  12.471 -0.7509  0.0150  0.1825
20172TIP3   OH282006   4.148   2.934  11.557  0.0346  0.1335  0.0211
20172TIP3    H182007   4.135   3.025  11.583 -0.7041  0.0381  0.0211
20172TIP3    H282008   4.240   2.928  11.531  0.7187  0.3359  2.1901
20173TIP3   OH282009   3.134   5.906  13.375 -0.2800  0.1817 -0.3488
20173TIP3    H182010   3.083   5.889  13.455  1.5523  1.7901  1.2614
20173TIP3    H282011   3.102   5.990  13.344 -0.6395 -0.2111 -1.0698
20174TIP3   OH282012   0.813   2.595   0.823  0.3397 -0.0812 -0.2493
20174TIP3    H182013   0.862   2.584   0.741 -0.1798  0.3838 -0.6303
20174TIP3    H282014   0.773   2.509   0.839  1.9814 -0.7321  0.5436
20175TIP3   OH282015   5.532   3.491   5.274  0.0513  0.5842 -0.1218
20175TIP3    H182016   5.621   3.480   5.308  1.1186  1.6585 -2.3339
20175TIP3    H282017   5.516   3.411   5.223  0.3582  0.9979 -0.8910
20176TIP3   OH282018   5.794   6.311  11.505  0.0827 -0.1717 -0.2377
20176TIP3    H182019   5.792   6.233  11.559  0.4051 -0.4160 -0.5726
20176TIP3    H282020   5.849   6.288  11.431  0.8738  0.6291  0.0731
20177TIP3   OH282021   4.736   6.644   2.516 -0.0407  0.4511 -0.0826
20177TIP3    H182022   4.784   6.606   2.590 -1.1501 -0.8004  0.0301
20177TIP3    H282023   4.751   6.584   2.443 -0.9605  0.3417 -0.1941
20178TIP3   OH282024   3.148   2.401   4.297 -0.3037 -0.1459 -0.1235
20178TIP3    H182025   3.117   2.439   4.379  0.5094 -1.3575  0.7850
20178TIP3    H282026   3.068   2.375   4.251 -0.7698 -1.5575  1.3575
20179TIP3   OH282027   4.120   0.441   2.936 -0.2043  0.4888 -0.3431
20179TIP3    H182028   4.141   0.400   2.852 -0.8914  1.2403 -0.8968
20179TIP3    H282029   4.068   0.518   2.913 -1.2822  0.1474  0.8355
20180TIP3   OH282030   6.534   4.612  16.693  0.2886  0.1217 -0.1650
20180TIP3    H182031   6.452   4.564  16.684 -0.3772  0.8762  1.3512
20180TIP3    H282032   6.507   4.703  16.707  1.3071  0.2493  1.2790
20181TIP3   OH282033   1.385   1.554  16.056 -0.0650 -0.1827 -0.7857
20181TIP3    H182034   1.386   1.510  16.141 -3.0686 -0.1339 -0.6158
20181TIP3    H282035   1.319   1.506  16.005 -0.9338  1.9670 -1.7889
20182TIP3   OH282036   4.502   3.883   0.387  0.0552  0.5948  0.2492
20182TIP3    H182037   4.525   3.854   0.299  1.0491 -0.0762  0.6972
20182TIP3    H282038   4.444   3.958   0.375 -1.3321 -0.6289 -0.9634
20183TIP3   OH282039   3.738   3.405  12.225 -0.5200 -0.2856 -0.2603
20183TIP3    H182040   3.739   3.338  12.156 -0.8560 -0.2393 -0.3157
20183TIP3    H282041   3.667   3.464  12.199 -0.6145 -0.2394  0.1016
20184TIP3   OH282042   1.355   4.760  12.303  0.1115 -0.4027 -0.1486
20184TIP3    H182043   1.442   4.795  12.283 -0.9992  1.8724 -1.4250
20184TIP3    H282044   1.336   4.701  12.230  1.2792 -2.4228  1.1021
20185TIP3   OH282045   0.745   0.204   5.293 -0.0371 -0.4375  0.0438
20185TIP3    H182046   0.801   0.279   5.313 -1.9980  1.1087  0.1012
20185TIP3    H282047   0.793   0.154   5.226  1.3351  0.8382  0.0333
20186TIP3   OH282048   3.299   3.410   0.053 -0.2770 -0.2833 -0.6359
20186TIP3    H182049   3.240   3.485   0.047  0.3702  0.2446 -0.5949
20186TIP3    H282050   3.242   3.334   0.059 -0.9466  0.0825 -2.1186
20187TIP3   OH282051   5.159   2.675  11.609  0.0834  0.4641 -0.1724
20187TIP3    H182052   5.195   2.723  11.684 -0.7176 -2.7379  2.4697
20187TIP3    H282053   5.234   2.660  11.552  0.8677  2.3252  0.2757
20188TIP3   OH282054   6.586   4.840  16.976 -0.0562  0.3535 -0.4313
20188TIP3    H182055   6.498   4.828  16.940  0.1671  1.1515 -1.2707
20188TIP3    H282056   6.611   4.928  16.950  0.8342  0.2914  0.1669
20189TIP3   OH282057   4.398   3.341  14.327 -0.3419 -0.1616 -0.7306
20189TIP3    H182058   4.328   3.374  14.271 -0.0627  1.3380 -0.2475
20189TIP3    H282059   4.478   3.378  14.291  0.2146 -1.7014 -1.1592
20190TIP3   OH282060   6.144   3.057   0.396 -0.0097  0.4842 -0.4069
20190TIP3    H182061   6.218   3.102   0.437 -0.9140  0.6661  1.1207
20190TIP3    H282062   6.067   3.103   0.429 -0.8143  0.5929 -2.3307
20191TIP3   OH282063   6.439   6.129  11.313  0.0154 -0.0599  0.3681
20191TIP3    H182064   6.436   6.058  11.249  0.0393  0.8866 -0.7116
20191TIP3    H282065   6.469   6.206  11.264  3.0557  0.0672  2.1227
20192TIP3   OH282066   2.473   3.286   3.344 -0.6112  0.2930  0.0496
20192TIP3    H182067   2.387   3.273   3.382 -0.8650 -0.5872 -0.7922
20192TIP3    H282068   2.480   3.220   3.275  2.0047 -1.9605  2.1994
20193TIP3   OH282069   4.130   5.931  13.174  0.0778  0.2895 -0.2179
20193TIP3    H182070   4.199   5.878  13.214  0.2648 -0.5455 -1.5747
20193TIP3    H282071   4.168   5.961  13.091 -1.3307 -0.6041 -1.2339
20194TIP3   OH282072   5.509   4.712   1.443 -0.0724  0.0362  0.0097
20194TIP3    H182073   5.571   4.755   1.384 -1.7482 -0.8472 -2.5717
20194TIP3    H282074   5.432   4.769   1.443 -0.0645  0.1046  1.5799
20195TIP3   OH282075   4.302   3.052  14.822  0.2197 -0.0412  0.1205
20195TIP3    H182076   4.237   3.030  14.888  1.2228 -1.6132  0.6277
20195TIP3    H282077   4.360   3.115  14.865 -0.9855  1.4582 -0.3730
20196TIP3   OH282078   0.260   5.089  10.434 -0.0576 -0.2884 -0.4506
20196TIP3    H182079   0.318   5.124  10.502 -0.5797 -0.4012  0.0669
20196TIP3    H282080   0.317   5.077  10.358  0.2994  0.9161 -0.3981
20197TIP3   OH282081   1.783   1.850   3.263  0.2523  0.3157  0.0333
20197TIP3    H182082   1.717   1.877   3.326  0.0758  0.3600 -0.1712
20197TIP3    H282083   1.739   1.784   3.209  0.4555  0.1519  0.0668
20198TIP3   OH282084   0.093   6.376   4.854  0.3492  0.6960 -0.2723
20198TIP3    H182085   0.045   6.445   4.810 -0.5505  0.5252  0.4125
20198TIP3    H282086   0.146   6.421   4.920 -1.0286  0.6999  0.8997
20199TIP3   OH282087   2.400   6.716  15.216 -0.0921  0.1572 -0.5483
20199TIP3    H182088   2.431   6.690  15.129  2.3128  0.1996  0.2104
20199TIP3    H282089   2.417   6.639  15.271 -0.9368  0.3779  0.0430
20200TIP3   OH282090   2.975   4.692   1.561  0.6106  0.3725  0.3226
20200TIP3    H182091   2.964   4.719   1.653 -2.3372  0.5038  0.0463
20200TIP3    H282092   2.972   4.775   1.512  1.6169  0.2580  0.0492
20201TIP3   OH282093   3.885   5.426   0.757 -0.3211 -0.4798  0.0126
20201TIP3    H182094   3.795   5.396   0.753 -0.2929 -0.6271  0.4208
20201TIP3    H282095   3.889   5.479   0.837  0.1907 -1.2703  0.5189
20202TIP3   OH282096   0.374   4.877  14.611  0.0565 -0.0697  0.4628
20202TIP3    H182097   0.413   4.955  14.650  1.6295  0.1820 -1.4323
20202TIP3    H282098   0.447   4.816  14.600 -0.2274 -0.0732 -2.0555
20203TIP3   OH282099   6.186   4.759  16.601  0.0442 -0.4352 -0.3075
20203TIP3    H182100   6.169   4.666  16.615  1.7004 -0.8213 -0.7013
20203TIP3    H282101   6.164   4.774  16.509 -3.5343  0.4144  0.4979
20204TIP3   OH282102   5.475   3.586  14.548  0.5060 -0.4816 -0.5840
20204TIP3    H182103   5.517   3.608  14.465 -1.1310  0.6045 -1.1913
20204TIP3    H282104   5.491   3.661  14.605 -0.1144 -0.2924 -0.6437
20205TIP3   OH282105   6.683   2.422  12.545  0.1977 -0.4189 -0.2632
20205TIP3    H182106   6.634   2.445  12.466 -3.2026  1.8843  2.2359
20205TIP3    H282107   6.685   2.503  12.597 -0.2171 -2.4287  3.1974
20206TIP3   OH282108   5.853   3.662   5.405 -0.0056 -0.0659  0.1789
20206TIP3    H182109   5.918   3.626   5.464 -1.0832 -2.2102  0.1269
20206TIP3    H282110   5.769   3.646   5.447 -0.6803  0.1486 -1.0163
20207TIP3   OH282111   6.140   3.105  14.307  0.1641  0.1605  0.7331
20207TIP3    H182112   6.084   3.182  14.294 -0.4286 -0.3744  0.0421
20207TIP3    H282113   6.145   3.095  14.402  3.1611  3.1395  1.0699
20208TIP3   OH282114   0.049   5.243  16.378 -0.2248 -0.1214  0.7559
20208TIP3    H182115   0.069   5.336  16.366 -0.9223  0.0907  1.1149
20208TIP3    H282116   0.057   5.230  16.473 -1.3487 -0.1046  0.8761
20209TIP3   OH282117   4.263   6.660  12.384  0.1752  0.4021 -0.6924
20209TIP3    H182118   4.226   6.701  12.306 -1.9122 -0.2412 -0.1027
20209TIP3    H282119   4.256   6.566  12.367  1.0657  0.2585 -0.3126
20210TIP3   OH282120   1.835   2.068   3.519  0.3102  0.1609 -0.0099
20210TIP3    H182121   1.761   2.115   3.482  0.5245  0.4079 -0.1298
20210TIP3    H282122   1.801   1.981   3.539 -0.3202  0.6403  1.0507
20211TIP3   OH282123   3.683   6.744  13.286  0.5627 -0.0492 -0.0589
20211TIP3    H182124   3.712   6.663  13.245 -0.9631 -0.5657 -0.1632
20211TIP3    H282125   3.618   6.718  13.351  0.9727  0.9942  0.8136
20212TIP3   OH282126   6.247   2.358  14.553 -0.7261 -0.1700  0.2934
20212TIP3    H182127   6.220   2.391  14.467 -1.3628 -1.3354  0.0219
20212TIP3    H282128   6.341   2.344  14.545 -0.5856  0.7854  0.1572
20213TIP3   OH282129   6.736   0.521  14.682 -0.7037 -0.1933  0.3729
20213TIP3    H182130   6.773   0.593  14.734  1.0319  0.9124 -2.2201
20213TIP3    H282131   6.641   0.534  14.688 -0.4530  2.8257 -0.5593
20214TIP3   OH282132   1.122   3.367   4.071  0.5540  0.4483 -0.0365
20214TIP3    H182133   1.099   3.337   4.159  2.4123  0.6289  0.5655
20214TIP3    H282134   1.078   3.305   4.013  0.2760 -0.4265  1.0598
20215TIP3   OH282135   2.862   6.081   1.251  0.2546  0.5446 -0.7902
20215TIP3    H182136   2.928   6.020   1.282 -0.6928 -0.7205 -1.1702
20215TIP3    H282137   2.832   6.044   1.169 -1.2907  0.7855 -0.3677
20216TIP3   OH282138   6.247   1.599  15.751 -0.3995  0.2454 -0.1058
20216TIP3    H182139   6.192   1.523  15.734 -0.6053  0.0879  1.1523
20216TIP3    H282140   6.236   1.616  15.844 -0.6855  2.0933 -0.4442
20217TIP3   OH282141   4.923   1.462   5.056  0.6057  0.2096  0.1298
20217TIP3    H182142   4.879   1.536   5.014 -0.8562 -1.0547 -0.6560
20217TIP3    H282143   4.852   1.407   5.089  1.5396 -1.8944 -1.1747
20218TIP3   OH282144   4.858   6.696   0.514 -0.0379  0.4404  0.1579
20218TIP3    H182145   4.854   6.782   0.473  4.0101  0.1201 -1.2948
20218TIP3    H282146   4.859   6.634   0.441  0.9918 -0.5725  0.9980
20219TIP3   OH282147   4.797   0.732  15.583  0.1417 -0.6143  0.0073
20219TIP3    H182148   4.774   0.825  15.588 -1.5441 -1.0620  1.4034
20219TIP3    H282149   4.737   0.697  15.517 -0.9740 -1.1556  1.2715
20220TIP3   OH282150   1.622   2.869  13.621  0.2555 -0.4677  0.1951
20220TIP3    H182151   1.696   2.816  13.590 -0.8050 -1.1025 -1.3721
20220TIP3    H282152   1.606   2.930  13.550  0.5963  1.1034  1.4250
20221TIP3   OH282153   6.831   1.057  12.960  0.1085 -0.2416 -0.2729
20221TIP3    H182154   6.806   1.142  12.998  0.3905 -0.4140  0.3181
20221TIP3    H282155   6.792   1.057  12.873 -2.2397 -0.6345  0.7070
20222TIP3   OH282156   3.122   3.725   2.365  0.2989  0.1338  0.2225
20222TIP3    H182157   3.172   3.662   2.417 -0.2550  0.0678  0.6702
20222TIP3    H282158   3.162   3.810   2.386  0.6837  0.0031  0.0376
20223TIP3   OH282159   4.696   3.996  16.390  0.2014  0.0683 -0.3719
20223TIP3    H182160   4.775   3.959  16.430 -0.6238  1.5626  3.0383
20223TIP3    H282161   4.626   3.977  16.452 -1.6388  1.0750 -2.0035
20224TIP3   OH282162   6.718   3.450   6.053 -0.2114 -0.3940 -0.8532
20224TIP3    H182163   6.705   3.404   6.136  0.7571  1.2254  0.2621
20224TIP3    H282164   6.801   3.416   6.020 -0.2859 -0.5857 -0.8467
20225TIP3   OH282165   0.019   6.314   0.230  0.0417 -0.2812 -0.1892
20225TIP3    H182166   0.011   6.320   0.325  0.6276 -1.4693 -0.0428
20225TIP3    H282167  -0.064   6.276   0.202  0.4617 -1.4151  0.0392
20226TIP3   OH282168   2.609   6.522   4.019  0.0050 -0.0703 -0.1402
20226TIP3    H182169   2.564   6.606   4.027  0.6306  0.2577  0.0377
20226TIP3    H282170   2.696   6.545   3.986  0.5914 -0.5127  1.0263
20227TIP3   OH282171   0.476   5.294  16.021  0.5985  0.1542 -0.2803
20227TIP3    H182172   0.394   5.293  16.069  0.0366  0.3559 -1.1992
20227TIP3    H282173   0.534   5.349  16.074  0.7536 -1.4643  1.3066
20228TIP3   OH282174   1.368   3.751  15.551  0.5633 -0.3882 -0.8298
20228TIP3    H182175   1.439   3.758  15.615 -0.8833  0.1052  0.8201
20228TIP3    H282176   1.331   3.664  15.566 -0.1700 -0.0361 -0.5340
20229TIP3   OH282177   0.583   2.624   1.491 -0.3661  0.0986  0.1661
20229TIP3    H182178   0.546   2.708   1.463 -0.8984  0.1595  0.9995
20229TIP3    H282179   0.665   2.648   1.535  0.1544  0.0545 -0.7504
20230TIP3   OH282180   6.160   0.612  14.206 -0.2397 -0.1560 -0.3420
20230TIP3    H182181   6.100   0.659  14.263  1.1748 -0.0797  1.1707
20230TIP3    H282182   6.163   0.523  14.242 -0.7895 -0.6753 -1.5063
20231TIP3   OH282183   1.787   3.761   1.781 -0.8701  0.3946 -0.1892
20231TIP3    H182184   1.719   3.828   1.789 -1.0325  0.0271  1.8346
20231TIP3    H282185   1.854   3.787   1.844 -0.0096 -0.3015 -0.7882
20232TIP3   OH282186   5.649   2.019   2.204  0.1236  0.1099 -0.3130
20232TIP3    H182187   5.664   1.958   2.132  1.4647  1.2145 -1.0146
20232TIP3    H282188   5.588   2.083   2.169  0.3465  0.3400 -0.2813
20233TIP3   OH282189   6.556   6.725  17.024 -0.2004 -0.1368 -0.9024
20233TIP3    H182190   6.604   6.725  17.107 -1.3896  1.1236 -0.1781
20233TIP3    H282191   6.565   6.636  16.992  0.7016 -0.5258  0.3443
20234TIP3   OH282192   4.454   0.594  14.951 -0.0126 -0.6447 -0.4840
20234TIP3    H182193   4.466   0.504  14.920 -0.9900 -0.3614 -1.8024
20234TIP3    H282194   4.418   0.584  15.039  0.2827 -1.5441 -0.4559
20235TIP3   OH282195   5.277   4.443   6.103 -0.1515 -0.1801 -0.1847
20235TIP3    H182196   5.264   4.350   6.087 -1.2147  0.2191 -1.7981
20235TIP3    H282197   5.244   4.486   6.025 -0.3059  1.6086  0.8186
20236TIP3   OH282198   3.194   3.114   0.139 -0.0583  0.3773 -0.0861
20236TIP3    H182199   3.113   3.145   0.098 -0.0068  2.8596  1.5019
20236TIP3    H282200   3.173   3.110   0.232  1.0811 -0.9936  0.1523
20237TIP3   OH282201   3.963   2.583  11.066 -0.5731  0.6505 -0.2670
20237TIP3    H182202   4.013   2.605  10.987 -0.2123  2.2187  0.3534
20237TIP3    H282203   3.989   2.493  11.086  1.6210  1.1963 -0.3132
20238TIP3   OH282204   4.524   1.661  13.659 -0.1435 -0.1444  0.4694
20238TIP3    H182205   4.565   1.574  13.657  1.4735  0.5835  0.7425
20238TIP3    H282206   4.541   1.694  13.747 -3.1828 -0.6007  1.3571
20239LIG      S82207   3.248   3.157  16.916  0.2648  0.3904  0.4987
20239LIG     F182208   2.705   3.344  16.756  0.7806 -0.2231  0.8080
20239LIG     F282209   2.650   3.138  16.739  0.4119  0.8624 -0.3074
20239LIG     F382210   2.729   3.220  16.918 -0.1666 -0.0922  0.2731
20239LIG     N182211   3.433   3.481  16.662  0.2798  0.6281 -0.1530
20239LIG     N282212   3.705   3.602  16.655 -0.4663 -0.3595  0.1855
20239LIG     N382213   3.284   3.088  16.622  0.3584 -0.0682  0.5795
20239LIG     N482214   3.048   3.095  16.420  0.8179 -0.0670 -0.4172
20239LIG     C182215   3.483   3.576  16.551  0.2644  0.3764 -0.0550
20239LIG     C282216   3.497   3.521  16.788 -0.3519  0.5324 -0.1782
20239LIG     C382217   3.436   3.342  16.640 -0.2865 -0.0355 -0.2273
20239LIG     C482218   3.634   3.560  16.535  0.5100 -0.7886 -0.2539
20239LIG     C582219   3.657   3.527  16.776  0.5762 -0.8439 -0.1350
20239LIG     C682220   3.354   3.295  16.519  0.0921  0.1375  0.0926
20239LIG     C782221   3.349   3.137  16.504  0.2969 -0.7974 -0.4536
20239LIG     C882222   3.707   3.747  16.680 -0.3068  0.0080  0.3014
20239LIG     C982223   3.144   3.119  16.652  0.1249 -0.2829 -0.6308
20239LIG    C1082224   3.346   2.994  16.714 -0.4555 -0.3455  0.2977
20239LIG    C1182225   3.118   3.158  16.791 -0.6820 -0.6415 -0.0667
20239LIG    C1282226   3.344   3.022  16.854 -0.8682  1.0232  0.9256
20239LIG    C1382227   3.039   3.124  16.558 -0.0077 -0.3652 -0.3622
20239LIG    C1482228   3.402   2.874  16.666  0.6601 -0.1019 -0.1016
20239LIG    C1582229   2.990   3.186  16.833  0.8283  0.1311  0.2148
20239LIG    C1682230   2.906   3.166  16.606 -0.7094 -0.1742  0.8358
20239LIG    C1782231   2.883   3.190  16.740 -0.0630  0.5754  0.0613
20239LIG    C1882232   3.400   2.927  16.939 -0.2787  0.4547  0.2315
20239LIG    C1982233   3.446   2.770  16.753 -0.0522 -0.6602  0.0556
20239LIG    C2082234   3.449   2.803  16.888  0.1601 -0.6242  0.2532
20239LIG    C2182235   2.748   3.223  16.787  0.5882  0.1748  0.2621
20239LIG     H182236   3.450   3.676  16.588 -1.3788  0.2654 -1.1070
20239LIG     H282237   3.432   3.555  16.455 -0.0589  0.4578  0.0949
20239LIG     H382238   3.464   3.455  16.871 -0.4523  2.7638  1.6579
20239LIG     H482239   3.455   3.620  16.814  0.8715  0.3787  2.6812
20239LIG     H582240   3.401   3.287  16.729  0.7117  0.2424  0.3556
20239LIG     H682241   3.545   3.319  16.649 -0.1051  0.0023 -1.8770
20239LIG     H782242   3.655   3.452  16.519  0.9800 -0.6288 -0.7778
20239LIG     H882243   3.671   3.623  16.450  1.4164 -0.5171  0.3250
20239LIG     H982244   3.700   3.573  16.868  0.0312 -0.0175 -0.2862
20239LIG    H1082245   3.696   3.423  16.777  0.0969 -1.0695  2.2005
20239LIG    H1182246   3.396   3.346  16.430 -2.8492  3.6931  0.5332
20239LIG    H1282247   3.253   3.338  16.534 -0.0561 -0.9503  2.7616
20239LIG    H1382248   3.288   3.125  16.412 -1.0314 -0.6836  0.3869
20239LIG    H1482249   3.449   3.092  16.488  0.7836 -1.1669  2.8745
20239LIG    H1582250   3.793   3.803  16.636  0.6759 -0.9598  0.9356
20239LIG    H1682251   3.720   3.768  16.788 -0.9453 -1.0704  0.6044
20239LIG    H1782252   3.610   3.797  16.664 -0.7518 -0.3261  1.8383
20239LIG    H1882253   3.423   2.861  16.561  1.9235  0.1037  0.1006
20239LIG    H1982254   2.973   3.226  16.932  0.0954 -0.6856  0.4260
20239LIG    H2082255   2.824   3.170  16.536  0.5099  1.7551 -0.5627
20239LIG    H2182256   3.408   2.946  17.045  2.9814  0.2448  0.1165
20239LIG    H2282257   3.483   2.676  16.715  2.0072 -0.0501  0.4276
20239LIG    H2382258   3.489   2.730  16.955  1.4501  0.6931  0.9691
20239LIG    H2482259   3.141   3.067  16.395  1.2806  1.4614 -0.4983
20239LIG    H2582260   2.969   3.048  16.381 -0.0363  0.9021  0.1210
   6.86334   6.86334  17.11947
